[Molden Format]
made by pyscf v[2.0.1]
[Atoms] (AU)
C   1   6     0.69100024066471     0.64692934207205    -3.48223131169301
H   2   1     2.68052439830868     1.13355088658700    -3.25784032593313
C   3   6    -0.36286361513219     0.85440132524594    -5.97030179418974
H   4   1    -2.35448549047279     0.36322488579172    -6.17995817793143
C   5   6     0.93697958957450     1.61209284601821    -8.05828437677121
H   6   1     1.09182490265505     3.62435627880799    -8.46787148771875
C   7   6     2.13423629966321    -0.10744231105711    -9.78050935942977
H   8   1     1.96390963868834    -2.11762116447114    -9.34474333768613
H   9   1     1.55630230933075    -1.92953025305990    12.99630010416247
C   10   6     0.75233899775814    -2.21270439606481    11.10705728102219
H   11   1    -0.43433408177274    -3.90944857546550    11.22216085340412
C   12   6     2.86362581178706    -2.63237380607947     9.17926416456045
H   13   1     4.39038949912609    -1.24955421540245     9.49899813497433
H   14   1     3.74629220191363    -4.48798724300892     9.47414880959024
C   15   6     2.02478325613682    -2.42177285709634     6.44560829588644
C   16   6     3.88048732735477    -3.58795445234514     4.61402886975252
C   17   6    -0.18412382258602    -1.30464291234259     5.76021113872346
C   18   6    -2.10044360464350    -0.26837831858460     7.71610340967100
C   19   6    -3.08956938670431     2.35282328359417     6.88693925039594
C   20   6    -4.37372924086464    -2.09766595989678     7.93610724222001
C   21   6    -0.83850430601230     0.06372213486173    10.33002307638377
H   22   1     0.38411922151109     1.74281358582432    10.27380136542181
H   23   1    -2.30980003007874     0.45460143924521    11.73986301809809
H   24   1     4.58527064644668    -5.38706904487420     5.36778158031719
H   25   1     5.54944938085014    -2.37631462192748     4.35398898413318
H   26   1     3.06633019150423    -3.94118377050688     2.75255466040884
H   27   1    -4.17727778763735     2.26573369139522     5.12914900961283
H   28   1    -1.52662344944051     3.68001877445626     6.59540397144508
H   29   1    -4.32916174397830     3.13643051467482     8.35225460090378
H   30   1    -5.32329548508442    -2.36691813602939     6.11583672749896
H   31   1    -5.77989366602257    -1.33896741843465     9.25748940450990
H   32   1    -3.79310905208926    -3.96389819310853     8.61386170102686
C   33   6    -1.01100794811226    -1.06331657314144     3.11929490449947
C   34   6     0.37686231036534    -0.33275864505552     1.09165013605873
H   35   1    -3.01671213906703    -1.40297922279997     2.77827895090944
C   36   6    -0.64382707979370    -0.11591880174385    -1.42063131251064
H   37   1     2.35569259782137     0.17174499283897     1.33641070251401
H   38   1    -2.63317482980319    -0.60229203511219    -1.66119700387645
C   39   6     3.44427310754987     0.55955226130243   -11.88185544133447
C   40   6     4.59546774580895    -1.33837842065929   -13.51881378425706
H   41   1     3.68484150802705     2.52824088205540   -12.42422090941845
O   42   8     5.79494197127018    -0.87330187518197   -15.43343894779829
H   43   1     4.30216020100717    -3.32855150553013   -12.89162904717628
[GTO]
1 0
 s    6 1.00
             3047.5249  0.0018347001629433
             457.36951    0.01403730124668
             103.94869   0.068842606114048
             29.210155    0.23218442062076
              9.286663    0.46794134155879
              3.163927    0.36231203217765
 s    3 1.00
             7.8682724   -0.11933240861517
             1.8812885   -0.16085421161283
             0.5442493     1.1434564825515
 s    1 1.00
             0.1687144                   1
 p    3 1.00
             7.8682724   0.068999095584993
             1.8812885    0.31642397975315
             0.5442493    0.74430825237435
 p    1 1.00
             0.1687144                   1
 d    1 1.00
                   0.8                   1

2 0
 s    3 1.00
             18.731137    0.03349459952309
             2.8253937    0.23472694665786
             0.6401217    0.81375731841339
 s    1 1.00
             0.1612778                   1

3 0
 s    6 1.00
             3047.5249  0.0018347001629433
             457.36951    0.01403730124668
             103.94869   0.068842606114048
             29.210155    0.23218442062076
              9.286663    0.46794134155879
              3.163927    0.36231203217765
 s    3 1.00
             7.8682724   -0.11933240861517
             1.8812885   -0.16085421161283
             0.5442493     1.1434564825515
 s    1 1.00
             0.1687144                   1
 p    3 1.00
             7.8682724   0.068999095584993
             1.8812885    0.31642397975315
             0.5442493    0.74430825237435
 p    1 1.00
             0.1687144                   1
 d    1 1.00
                   0.8                   1

4 0
 s    3 1.00
             18.731137    0.03349459952309
             2.8253937    0.23472694665786
             0.6401217    0.81375731841339
 s    1 1.00
             0.1612778                   1

5 0
 s    6 1.00
             3047.5249  0.0018347001629433
             457.36951    0.01403730124668
             103.94869   0.068842606114048
             29.210155    0.23218442062076
              9.286663    0.46794134155879
              3.163927    0.36231203217765
 s    3 1.00
             7.8682724   -0.11933240861517
             1.8812885   -0.16085421161283
             0.5442493     1.1434564825515
 s    1 1.00
             0.1687144                   1
 p    3 1.00
             7.8682724   0.068999095584993
             1.8812885    0.31642397975315
             0.5442493    0.74430825237435
 p    1 1.00
             0.1687144                   1
 d    1 1.00
                   0.8                   1

6 0
 s    3 1.00
             18.731137    0.03349459952309
             2.8253937    0.23472694665786
             0.6401217    0.81375731841339
 s    1 1.00
             0.1612778                   1

7 0
 s    6 1.00
             3047.5249  0.0018347001629433
             457.36951    0.01403730124668
             103.94869   0.068842606114048
             29.210155    0.23218442062076
              9.286663    0.46794134155879
              3.163927    0.36231203217765
 s    3 1.00
             7.8682724   -0.11933240861517
             1.8812885   -0.16085421161283
             0.5442493     1.1434564825515
 s    1 1.00
             0.1687144                   1
 p    3 1.00
             7.8682724   0.068999095584993
             1.8812885    0.31642397975315
             0.5442493    0.74430825237435
 p    1 1.00
             0.1687144                   1
 d    1 1.00
                   0.8                   1

8 0
 s    3 1.00
             18.731137    0.03349459952309
             2.8253937    0.23472694665786
             0.6401217    0.81375731841339
 s    1 1.00
             0.1612778                   1

9 0
 s    3 1.00
             18.731137    0.03349459952309
             2.8253937    0.23472694665786
             0.6401217    0.81375731841339
 s    1 1.00
             0.1612778                   1

10 0
 s    6 1.00
             3047.5249  0.0018347001629433
             457.36951    0.01403730124668
             103.94869   0.068842606114048
             29.210155    0.23218442062076
              9.286663    0.46794134155879
              3.163927    0.36231203217765
 s    3 1.00
             7.8682724   -0.11933240861517
             1.8812885   -0.16085421161283
             0.5442493     1.1434564825515
 s    1 1.00
             0.1687144                   1
 p    3 1.00
             7.8682724   0.068999095584993
             1.8812885    0.31642397975315
             0.5442493    0.74430825237435
 p    1 1.00
             0.1687144                   1
 d    1 1.00
                   0.8                   1

11 0
 s    3 1.00
             18.731137    0.03349459952309
             2.8253937    0.23472694665786
             0.6401217    0.81375731841339
 s    1 1.00
             0.1612778                   1

12 0
 s    6 1.00
             3047.5249  0.0018347001629433
             457.36951    0.01403730124668
             103.94869   0.068842606114048
             29.210155    0.23218442062076
              9.286663    0.46794134155879
              3.163927    0.36231203217765
 s    3 1.00
             7.8682724   -0.11933240861517
             1.8812885   -0.16085421161283
             0.5442493     1.1434564825515
 s    1 1.00
             0.1687144                   1
 p    3 1.00
             7.8682724   0.068999095584993
             1.8812885    0.31642397975315
             0.5442493    0.74430825237435
 p    1 1.00
             0.1687144                   1
 d    1 1.00
                   0.8                   1

13 0
 s    3 1.00
             18.731137    0.03349459952309
             2.8253937    0.23472694665786
             0.6401217    0.81375731841339
 s    1 1.00
             0.1612778                   1

14 0
 s    3 1.00
             18.731137    0.03349459952309
             2.8253937    0.23472694665786
             0.6401217    0.81375731841339
 s    1 1.00
             0.1612778                   1

15 0
 s    6 1.00
             3047.5249  0.0018347001629433
             457.36951    0.01403730124668
             103.94869   0.068842606114048
             29.210155    0.23218442062076
              9.286663    0.46794134155879
              3.163927    0.36231203217765
 s    3 1.00
             7.8682724   -0.11933240861517
             1.8812885   -0.16085421161283
             0.5442493     1.1434564825515
 s    1 1.00
             0.1687144                   1
 p    3 1.00
             7.8682724   0.068999095584993
             1.8812885    0.31642397975315
             0.5442493    0.74430825237435
 p    1 1.00
             0.1687144                   1
 d    1 1.00
                   0.8                   1

16 0
 s    6 1.00
             3047.5249  0.0018347001629433
             457.36951    0.01403730124668
             103.94869   0.068842606114048
             29.210155    0.23218442062076
              9.286663    0.46794134155879
              3.163927    0.36231203217765
 s    3 1.00
             7.8682724   -0.11933240861517
             1.8812885   -0.16085421161283
             0.5442493     1.1434564825515
 s    1 1.00
             0.1687144                   1
 p    3 1.00
             7.8682724   0.068999095584993
             1.8812885    0.31642397975315
             0.5442493    0.74430825237435
 p    1 1.00
             0.1687144                   1
 d    1 1.00
                   0.8                   1

17 0
 s    6 1.00
             3047.5249  0.0018347001629433
             457.36951    0.01403730124668
             103.94869   0.068842606114048
             29.210155    0.23218442062076
              9.286663    0.46794134155879
              3.163927    0.36231203217765
 s    3 1.00
             7.8682724   -0.11933240861517
             1.8812885   -0.16085421161283
             0.5442493     1.1434564825515
 s    1 1.00
             0.1687144                   1
 p    3 1.00
             7.8682724   0.068999095584993
             1.8812885    0.31642397975315
             0.5442493    0.74430825237435
 p    1 1.00
             0.1687144                   1
 d    1 1.00
                   0.8                   1

18 0
 s    6 1.00
             3047.5249  0.0018347001629433
             457.36951    0.01403730124668
             103.94869   0.068842606114048
             29.210155    0.23218442062076
              9.286663    0.46794134155879
              3.163927    0.36231203217765
 s    3 1.00
             7.8682724   -0.11933240861517
             1.8812885   -0.16085421161283
             0.5442493     1.1434564825515
 s    1 1.00
             0.1687144                   1
 p    3 1.00
             7.8682724   0.068999095584993
             1.8812885    0.31642397975315
             0.5442493    0.74430825237435
 p    1 1.00
             0.1687144                   1
 d    1 1.00
                   0.8                   1

19 0
 s    6 1.00
             3047.5249  0.0018347001629433
             457.36951    0.01403730124668
             103.94869   0.068842606114048
             29.210155    0.23218442062076
              9.286663    0.46794134155879
              3.163927    0.36231203217765
 s    3 1.00
             7.8682724   -0.11933240861517
             1.8812885   -0.16085421161283
             0.5442493     1.1434564825515
 s    1 1.00
             0.1687144                   1
 p    3 1.00
             7.8682724   0.068999095584993
             1.8812885    0.31642397975315
             0.5442493    0.74430825237435
 p    1 1.00
             0.1687144                   1
 d    1 1.00
                   0.8                   1

20 0
 s    6 1.00
             3047.5249  0.0018347001629433
             457.36951    0.01403730124668
             103.94869   0.068842606114048
             29.210155    0.23218442062076
              9.286663    0.46794134155879
              3.163927    0.36231203217765
 s    3 1.00
             7.8682724   -0.11933240861517
             1.8812885   -0.16085421161283
             0.5442493     1.1434564825515
 s    1 1.00
             0.1687144                   1
 p    3 1.00
             7.8682724   0.068999095584993
             1.8812885    0.31642397975315
             0.5442493    0.74430825237435
 p    1 1.00
             0.1687144                   1
 d    1 1.00
                   0.8                   1

21 0
 s    6 1.00
             3047.5249  0.0018347001629433
             457.36951    0.01403730124668
             103.94869   0.068842606114048
             29.210155    0.23218442062076
              9.286663    0.46794134155879
              3.163927    0.36231203217765
 s    3 1.00
             7.8682724   -0.11933240861517
             1.8812885   -0.16085421161283
             0.5442493     1.1434564825515
 s    1 1.00
             0.1687144                   1
 p    3 1.00
             7.8682724   0.068999095584993
             1.8812885    0.31642397975315
             0.5442493    0.74430825237435
 p    1 1.00
             0.1687144                   1
 d    1 1.00
                   0.8                   1

22 0
 s    3 1.00
             18.731137    0.03349459952309
             2.8253937    0.23472694665786
             0.6401217    0.81375731841339
 s    1 1.00
             0.1612778                   1

23 0
 s    3 1.00
             18.731137    0.03349459952309
             2.8253937    0.23472694665786
             0.6401217    0.81375731841339
 s    1 1.00
             0.1612778                   1

24 0
 s    3 1.00
             18.731137    0.03349459952309
             2.8253937    0.23472694665786
             0.6401217    0.81375731841339
 s    1 1.00
             0.1612778                   1

25 0
 s    3 1.00
             18.731137    0.03349459952309
             2.8253937    0.23472694665786
             0.6401217    0.81375731841339
 s    1 1.00
             0.1612778                   1

26 0
 s    3 1.00
             18.731137    0.03349459952309
             2.8253937    0.23472694665786
             0.6401217    0.81375731841339
 s    1 1.00
             0.1612778                   1

27 0
 s    3 1.00
             18.731137    0.03349459952309
             2.8253937    0.23472694665786
             0.6401217    0.81375731841339
 s    1 1.00
             0.1612778                   1

28 0
 s    3 1.00
             18.731137    0.03349459952309
             2.8253937    0.23472694665786
             0.6401217    0.81375731841339
 s    1 1.00
             0.1612778                   1

29 0
 s    3 1.00
             18.731137    0.03349459952309
             2.8253937    0.23472694665786
             0.6401217    0.81375731841339
 s    1 1.00
             0.1612778                   1

30 0
 s    3 1.00
             18.731137    0.03349459952309
             2.8253937    0.23472694665786
             0.6401217    0.81375731841339
 s    1 1.00
             0.1612778                   1

31 0
 s    3 1.00
             18.731137    0.03349459952309
             2.8253937    0.23472694665786
             0.6401217    0.81375731841339
 s    1 1.00
             0.1612778                   1

32 0
 s    3 1.00
             18.731137    0.03349459952309
             2.8253937    0.23472694665786
             0.6401217    0.81375731841339
 s    1 1.00
             0.1612778                   1

33 0
 s    6 1.00
             3047.5249  0.0018347001629433
             457.36951    0.01403730124668
             103.94869   0.068842606114048
             29.210155    0.23218442062076
              9.286663    0.46794134155879
              3.163927    0.36231203217765
 s    3 1.00
             7.8682724   -0.11933240861517
             1.8812885   -0.16085421161283
             0.5442493     1.1434564825515
 s    1 1.00
             0.1687144                   1
 p    3 1.00
             7.8682724   0.068999095584993
             1.8812885    0.31642397975315
             0.5442493    0.74430825237435
 p    1 1.00
             0.1687144                   1
 d    1 1.00
                   0.8                   1

34 0
 s    6 1.00
             3047.5249  0.0018347001629433
             457.36951    0.01403730124668
             103.94869   0.068842606114048
             29.210155    0.23218442062076
              9.286663    0.46794134155879
              3.163927    0.36231203217765
 s    3 1.00
             7.8682724   -0.11933240861517
             1.8812885   -0.16085421161283
             0.5442493     1.1434564825515
 s    1 1.00
             0.1687144                   1
 p    3 1.00
             7.8682724   0.068999095584993
             1.8812885    0.31642397975315
             0.5442493    0.74430825237435
 p    1 1.00
             0.1687144                   1
 d    1 1.00
                   0.8                   1

35 0
 s    3 1.00
             18.731137    0.03349459952309
             2.8253937    0.23472694665786
             0.6401217    0.81375731841339
 s    1 1.00
             0.1612778                   1

36 0
 s    6 1.00
             3047.5249  0.0018347001629433
             457.36951    0.01403730124668
             103.94869   0.068842606114048
             29.210155    0.23218442062076
              9.286663    0.46794134155879
              3.163927    0.36231203217765
 s    3 1.00
             7.8682724   -0.11933240861517
             1.8812885   -0.16085421161283
             0.5442493     1.1434564825515
 s    1 1.00
             0.1687144                   1
 p    3 1.00
             7.8682724   0.068999095584993
             1.8812885    0.31642397975315
             0.5442493    0.74430825237435
 p    1 1.00
             0.1687144                   1
 d    1 1.00
                   0.8                   1

37 0
 s    3 1.00
             18.731137    0.03349459952309
             2.8253937    0.23472694665786
             0.6401217    0.81375731841339
 s    1 1.00
             0.1612778                   1

38 0
 s    3 1.00
             18.731137    0.03349459952309
             2.8253937    0.23472694665786
             0.6401217    0.81375731841339
 s    1 1.00
             0.1612778                   1

39 0
 s    6 1.00
             3047.5249  0.0018347001629433
             457.36951    0.01403730124668
             103.94869   0.068842606114048
             29.210155    0.23218442062076
              9.286663    0.46794134155879
              3.163927    0.36231203217765
 s    3 1.00
             7.8682724   -0.11933240861517
             1.8812885   -0.16085421161283
             0.5442493     1.1434564825515
 s    1 1.00
             0.1687144                   1
 p    3 1.00
             7.8682724   0.068999095584993
             1.8812885    0.31642397975315
             0.5442493    0.74430825237435
 p    1 1.00
             0.1687144                   1
 d    1 1.00
                   0.8                   1

40 0
 s    6 1.00
             3047.5249  0.0018347001629433
             457.36951    0.01403730124668
             103.94869   0.068842606114048
             29.210155    0.23218442062076
              9.286663    0.46794134155879
              3.163927    0.36231203217765
 s    3 1.00
             7.8682724   -0.11933240861517
             1.8812885   -0.16085421161283
             0.5442493     1.1434564825515
 s    1 1.00
             0.1687144                   1
 p    3 1.00
             7.8682724   0.068999095584993
             1.8812885    0.31642397975315
             0.5442493    0.74430825237435
 p    1 1.00
             0.1687144                   1
 d    1 1.00
                   0.8                   1

41 0
 s    3 1.00
             18.731137    0.03349459952309
             2.8253937    0.23472694665786
             0.6401217    0.81375731841339
 s    1 1.00
             0.1612778                   1

42 0
 s    6 1.00
             5484.6717   0.001831099805527
             825.23495   0.013950098518422
             188.04696    0.06844509273075
               52.9645    0.23271427528445
              16.89757    0.47019295006289
             5.7996353    0.35852086192309
 s    3 1.00
             15.539616   -0.11077750382508
             3.5999336   -0.14802630511126
             1.0137618     1.1307670390447
 s    1 1.00
             0.2700058                   1
 p    3 1.00
             15.539616   0.070874299543311
             3.5999336    0.33975279781076
             1.0137618    0.72715859531445
 p    1 1.00
             0.2700058                   1
 d    1 1.00
                   0.8                   1

43 0
 s    3 1.00
             18.731137    0.03349459952309
             2.8253937    0.23472694665786
             0.6401217    0.81375731841339
 s    1 1.00
             0.1612778                   1

[5d]
[7f]
[9g]

[MO]
 Sym= A
 Ene=               0
 Spin= Alpha
 Occup=    1.00000
   1     0.018189134485262
   2    -0.00092196335573857
   3    0.0069072133543566
   4    0.00035069917648604
   5    -0.00011767924367928
   6    0.0011628862253526
   7    0.00082107155059598
   8    0.0012257227046672
   9    -0.005500109479166
  10    -0.00091333799914659
  11    -0.000863432856201
  12    0.00014635121238406
  13    -0.0001965814427359
  14    4.5518919070588e-05
  15    -0.00044994222138611
  16    -0.00081661123713235
  17       0.9949025886733
  18     0.036806908180245
  19    -0.028603019352191
  20    0.00091070634316316
  21    0.00015578163893513
  22    -0.00060501951115457
  23    -0.0035741116125869
  24    -0.0010637206829543
  25    -0.00078420876236651
  26    0.00077537075155776
  27    -0.00029745432946174
  28    -0.00034423779873325
  29    0.00029946269164696
  30    0.00019607540842154
  31    -0.0011150642427176
  32    0.0038855063506278
  33      0.01369841190583
  34    -0.00021553371950394
  35    0.0010371848944862
  36    0.00082680114416331
  37    0.00030629313251987
  38    -0.0011196320885837
  39    -0.0022030581454644
  40    0.0035173258266622
  41    0.0042205016007196
  42    -0.00061167188240072
  43    0.0011694347820679
  44    0.0004455368560891
  45    -0.00033357485274212
  46    -0.00038642422791523
  47    -0.00054780803217682
  48    -0.00061063606313972
  49    0.00023613548069235
  50    -0.00053110403074588
  51    0.00036541515422869
  52    0.00024214125410298
  53    7.1742066826634e-06
  54    -0.00041746586158237
  55    -0.0045963788320092
  56    0.0011472842410715
  57    0.0070903491612621
  58    -0.00013544450195656
  59    -1.7252783064125e-05
  60    0.00018258234689485
  61    -0.00024107125264737
  62    -0.00016607809278929
  63    -0.00049169491319466
  64    0.00020955530487509
  65    -4.006092127704e-06
  66    -5.2419880001666e-06
  67    8.1446099276543e-07
  68    -3.7850460919538e-06
  69    6.3070625460318e-06
  70    2.2581515172288e-06
  71    -5.5653885431957e-06
  72    1.1469535103742e-06
  73    8.8521361724349e-06
  74    2.3992384500617e-05
  75    5.6790349071777e-06
  76    -5.2910236505516e-07
  77    -5.633511608492e-07
  78    6.4092848335107e-07
  79    6.0709122087279e-07
  80    -7.9037243060312e-08
  81    2.8399976035385e-06
  82    1.3593069361604e-05
  83    1.8300156246163e-06
  84    -1.7366099972548e-06
  85    -8.6630497047591e-05
  86    9.6070731506797e-06
  87    2.7036069456094e-06
  88    1.6080690285971e-05
  89    2.9941150243767e-05
  90    -6.2305507397894e-05
  91    2.2284008414924e-05
  92    1.1207446115253e-06
  93    -2.310546570947e-06
  94    4.1475726137204e-06
  95    -3.8859391969753e-07
  96    -7.1138794269585e-07
  97    1.1833921238261e-05
  98    2.0135276151022e-05
  99    -2.3865155099764e-06
 100    -1.8392739583037e-05
 101    -2.9774654243875e-06
 102    -9.5112301378637e-06
 103    0.00021500139263149
 104    -1.4605450552913e-05
 105    -1.9436847395349e-05
 106    -5.4751988834492e-06
 107    -0.0002056017565282
 108    0.00017149446862278
 109    0.00016784436020292
 110    -7.1996326499898e-06
 111    -2.7506155061107e-06
 112    1.1339090971427e-06
 113    2.3778467248341e-06
 114    -5.6922450194464e-06
 115    -5.9352250442629e-06
 116    -2.9236464900109e-05
 117    0.00026060091904927
 118    -5.6866433819972e-06
 119    9.023044916539e-06
 120    9.511769274495e-06
 121    -6.0899251204038e-05
 122    2.3813273363566e-05
 123    3.8922585947151e-05
 124    9.5782910197662e-07
 125    -3.1656177931593e-06
 126    -2.416000249802e-06
 127    1.322192060924e-06
 128    -1.9641549791749e-06
 129    7.3031734345683e-06
 130    -7.6570134700465e-05
 131    0.00013399868681209
 132    1.944002452634e-05
 133    -5.2154516607441e-06
 134    9.8561235041779e-05
 135    -0.00032344873433221
 136    3.566671792639e-05
 137    -0.00042000816789551
 138    1.3130660595238e-05
 139    8.1982897793323e-06
 140    4.0072115730102e-06
 141    3.0884818382573e-06
 142    5.4385192575733e-06
 143    -1.0366388097582e-05
 144    -1.0072569298095e-05
 145    9.0953160862165e-05
 146    2.0133017421867e-05
 147    -8.6880480550131e-06
 148    -1.977893134482e-05
 149    5.183773301474e-05
 150    -3.08701433949e-05
 151    -5.9946323400641e-05
 152    -9.5395970966847e-06
 153    -4.6601483931679e-06
 154    -2.6586969727752e-06
 155    4.9331611360087e-06
 156    -5.3641713651063e-06
 157    3.9597052088611e-07
 158    1.3394332259171e-05
 159    -1.5845260488889e-05
 160    6.918262219322e-06
 161    -3.6385899374364e-06
 162    1.8080246721864e-06
 163    -4.8594483718999e-05
 164    1.4320514518949e-05
 165    1.3123712032037e-05
 166    3.2735827214313e-06
 167    -1.0754277023513e-06
 168    2.3031753675717e-07
 169    2.4037634715025e-07
 170    1.2666290045595e-06
 171    -1.2956937434474e-06
 172    -1.063612189472e-05
 173    2.2004719794084e-05
 174    -3.0063044141368e-06
 175    1.3629224868287e-06
 176    9.8285129412949e-06
 177    -1.1424631491111e-05
 178    1.4485898821819e-06
 179    -3.2541365476076e-05
 180    1.2213057221094e-06
 181    3.3887577202147e-06
 182    2.1231356992455e-07
 183    -8.5852428898842e-07
 184    1.4237759095523e-06
 185    3.0484068044703e-07
 186    -3.3817851499952e-05
 187    4.1404271366176e-05
 188    2.7319682016081e-06
 189    4.2146044238652e-06
 190    2.2894250428576e-05
 191    9.7168535409589e-06
 192    -3.5348630543059e-06
 193    -4.8422732087483e-05
 194    3.7736502203224e-06
 195    2.2395382490568e-07
 196    2.8812113290667e-06
 197    -5.7147052784073e-07
 198    2.0562582762554e-07
 199    -7.1976415669864e-06
 200    -1.5846738559602e-06
 201    4.618704768769e-06
 202    3.5515775743581e-05
 203    -1.337216513229e-05
 204    -6.9957785498337e-06
 205    2.9054921144232e-06
 206    -2.1948050252347e-05
 207    7.2112676896049e-06
 208    -6.513493846064e-05
 209    6.6018151628418e-06
 210    -3.1185557750132e-05
 211    4.9272053674007e-06
 212    1.5200276430266e-05
 213    1.9969495889415e-06
 214    -1.6167349152463e-05
 215    -5.2468300082253e-06
 216    -4.3137204313621e-05
 217    4.3334421467888e-06
 218    1.4181786879373e-05
 219    -2.2830952084248e-07
 220    2.2513560702201e-06
 221    -8.7078914566999e-05
 222    7.5375681755182e-05
 223    0.00087517742350693
 224    0.00010113541081403
 225    5.5249671862059e-05
 226    -0.00020592409809554
 227    0.00061492542746504
 228    0.00030196366494361
 229    -0.00096817976283329
 230    -2.4166779147209e-06
 231    -4.5034040224637e-05
 232    -2.0403448336305e-05
 233    2.3404118777706e-05
 234    2.3339451220174e-05
 235    0.00014284379249946
 236    -0.00032127686992853
 237    -0.00047914256623604
 238    -0.00020621737958794
 239    -0.0001575808042334
 240    0.00055030168055567
 241    0.00019993317426429
 242    0.00025785593597301
 243    -0.0012465753113893
 244    2.8607791811621e-06
 245    5.5078357926399e-05
 246    1.3474418936512e-05
 247    1.1326632781586e-05
 248    -1.9531554533001e-06
 249    -1.7599345608395e-05
 250    0.0002837109986893
 251    -0.00034261126494222
 252    -0.00044304781458776
 253    0.0020921091124448
 254    -0.00049576524197156
 255    -9.7841231571132e-05
 256    -0.00019716087105459
 257    -0.00019464379893115
 258    0.00038723743656422
 259    -0.0018272845647939
 260    -7.654154956779e-05
 261    -3.0949216448001e-05
 262    -1.7954265975972e-05
 263    0.0001437444945055
 264    9.3778717880647e-05
 265    -0.00025349920140176
 266    0.00014748438557779
 267    0.00022141694356513
 268    -0.00020322022452648
 269    -1.9238790094844e-05
 270    -0.00049333254385928
 271    0.0066249908150715
 272    -1.3525432724963e-05
 273    -0.00015519558807687
 274    8.281021812759e-05
 275    -0.0015669794697392
 276    -0.0028240362555318
 277    0.0025393780621797
 278    8.0837561735478e-05
 279    -0.00017527188239753
 280    -7.8149605618113e-05
 281    -2.39235525364e-05