[Molden Format]
made by pyscf v[2.0.1]
[Atoms] (AU)
C   1   6     0.69100024066471     0.64692934207205    -3.48223131169301
H   2   1     2.68052439830868     1.13355088658700    -3.25784032593313
C   3   6    -0.36286361513219     0.85440132524594    -5.97030179418974
H   4   1    -2.35448549047279     0.36322488579172    -6.17995817793143
C   5   6     0.93697958957450     1.61209284601821    -8.05828437677121
H   6   1     1.03927160684768     3.62047501567417    -8.50199621914587
C   7   6     2.20035018302409    -0.10258413888539    -9.73758817852609
H   8   1     2.08224949102462    -2.10886499715255    -9.26789512642378
H   9   1     1.55630230933075    -1.92953025305990    12.99630010416247
C   10   6     0.75233899775814    -2.21270439606481    11.10705728102219
H   11   1    -0.43433408177274    -3.90944857546550    11.22216085340412
C   12   6     2.86362581178706    -2.63237380607947     9.17926416456045
H   13   1     4.39038949912609    -1.24955421540245     9.49899813497433
H   14   1     3.74629220191363    -4.48798724300892     9.47414880959024
C   15   6     2.02478325613682    -2.42177285709634     6.44560829588644
C   16   6     3.88048732735477    -3.58795445234514     4.61402886975252
C   17   6    -0.18412382258602    -1.30464291234259     5.76021113872346
C   18   6    -2.10044360464350    -0.26837831858460     7.71610340967100
C   19   6    -3.08956938670431     2.35282328359417     6.88693925039594
C   20   6    -4.37372924086464    -2.09766595989678     7.93610724222001
C   21   6    -0.83850430601230     0.06372213486173    10.33002307638377
H   22   1     0.38411922151109     1.74281358582432    10.27380136542181
H   23   1    -2.30980003007874     0.45460143924521    11.73986301809809
H   24   1     4.58527064644668    -5.38706904487420     5.36778158031719
H   25   1     5.54944938085014    -2.37631462192748     4.35398898413318
H   26   1     3.06633019150423    -3.94118377050688     2.75255466040884
H   27   1    -4.17727778763735     2.26573369139522     5.12914900961283
H   28   1    -1.52662344944051     3.68001877445626     6.59540397144508
H   29   1    -4.32916174397830     3.13643051467482     8.35225460090378
H   30   1    -5.32329548508442    -2.36691813602939     6.11583672749896
H   31   1    -5.77989366602257    -1.33896741843465     9.25748940450990
H   32   1    -3.79310905208926    -3.96389819310853     8.61386170102686
C   33   6    -1.01100794811226    -1.06331657314144     3.11929490449947
C   34   6     0.37686231036534    -0.33275864505552     1.09165013605873
H   35   1    -3.01671213906703    -1.40297922279997     2.77827895090944
C   36   6    -0.64382707979370    -0.11591880174385    -1.42063131251064
H   37   1     2.35569259782137     0.17174499283897     1.33641070251401
H   38   1    -2.63317482980319    -0.60229203511219    -1.66119700387645
C   39   6     3.51308281939799     0.56451683374771   -11.83721740116087
C   40   6     4.73454985947753    -1.32827425009098   -13.42856361339847
H   41   1     3.70368628307445     2.52946227119814   -12.41204614817202
O   42   8     5.94050384923934    -0.86285538356078   -15.33903067176323
H   43   1     4.49094488416901    -3.31470750932465   -12.76908014850535
[GTO]
1 0
 s    6 1.00
             3047.5249  0.0018347001629433
             457.36951    0.01403730124668
             103.94869   0.068842606114048
             29.210155    0.23218442062076
              9.286663    0.46794134155879
              3.163927    0.36231203217765
 s    3 1.00
             7.8682724   -0.11933240861517
             1.8812885   -0.16085421161283
             0.5442493     1.1434564825515
 s    1 1.00
             0.1687144                   1
 p    3 1.00
             7.8682724   0.068999095584993
             1.8812885    0.31642397975315
             0.5442493    0.74430825237435
 p    1 1.00
             0.1687144                   1
 d    1 1.00
                   0.8                   1

2 0
 s    3 1.00
             18.731137    0.03349459952309
             2.8253937    0.23472694665786
             0.6401217    0.81375731841339
 s    1 1.00
             0.1612778                   1

3 0
 s    6 1.00
             3047.5249  0.0018347001629433
             457.36951    0.01403730124668
             103.94869   0.068842606114048
             29.210155    0.23218442062076
              9.286663    0.46794134155879
              3.163927    0.36231203217765
 s    3 1.00
             7.8682724   -0.11933240861517
             1.8812885   -0.16085421161283
             0.5442493     1.1434564825515
 s    1 1.00
             0.1687144                   1
 p    3 1.00
             7.8682724   0.068999095584993
             1.8812885    0.31642397975315
             0.5442493    0.74430825237435
 p    1 1.00
             0.1687144                   1
 d    1 1.00
                   0.8                   1

4 0
 s    3 1.00
             18.731137    0.03349459952309
             2.8253937    0.23472694665786
             0.6401217    0.81375731841339
 s    1 1.00
             0.1612778                   1

5 0
 s    6 1.00
             3047.5249  0.0018347001629433
             457.36951    0.01403730124668
             103.94869   0.068842606114048
             29.210155    0.23218442062076
              9.286663    0.46794134155879
              3.163927    0.36231203217765
 s    3 1.00
             7.8682724   -0.11933240861517
             1.8812885   -0.16085421161283
             0.5442493     1.1434564825515
 s    1 1.00
             0.1687144                   1
 p    3 1.00
             7.8682724   0.068999095584993
             1.8812885    0.31642397975315
             0.5442493    0.74430825237435
 p    1 1.00
             0.1687144                   1
 d    1 1.00
                   0.8                   1

6 0
 s    3 1.00
             18.731137    0.03349459952309
             2.8253937    0.23472694665786
             0.6401217    0.81375731841339
 s    1 1.00
             0.1612778                   1

7 0
 s    6 1.00
             3047.5249  0.0018347001629433
             457.36951    0.01403730124668
             103.94869   0.068842606114048
             29.210155    0.23218442062076
              9.286663    0.46794134155879
              3.163927    0.36231203217765
 s    3 1.00
             7.8682724   -0.11933240861517
             1.8812885   -0.16085421161283
             0.5442493     1.1434564825515
 s    1 1.00
             0.1687144                   1
 p    3 1.00
             7.8682724   0.068999095584993
             1.8812885    0.31642397975315
             0.5442493    0.74430825237435
 p    1 1.00
             0.1687144                   1
 d    1 1.00
                   0.8                   1

8 0
 s    3 1.00
             18.731137    0.03349459952309
             2.8253937    0.23472694665786
             0.6401217    0.81375731841339
 s    1 1.00
             0.1612778                   1

9 0
 s    3 1.00
             18.731137    0.03349459952309
             2.8253937    0.23472694665786
             0.6401217    0.81375731841339
 s    1 1.00
             0.1612778                   1

10 0
 s    6 1.00
             3047.5249  0.0018347001629433
             457.36951    0.01403730124668
             103.94869   0.068842606114048
             29.210155    0.23218442062076
              9.286663    0.46794134155879
              3.163927    0.36231203217765
 s    3 1.00
             7.8682724   -0.11933240861517
             1.8812885   -0.16085421161283
             0.5442493     1.1434564825515
 s    1 1.00
             0.1687144                   1
 p    3 1.00
             7.8682724   0.068999095584993
             1.8812885    0.31642397975315
             0.5442493    0.74430825237435
 p    1 1.00
             0.1687144                   1
 d    1 1.00
                   0.8                   1

11 0
 s    3 1.00
             18.731137    0.03349459952309
             2.8253937    0.23472694665786
             0.6401217    0.81375731841339
 s    1 1.00
             0.1612778                   1

12 0
 s    6 1.00
             3047.5249  0.0018347001629433
             457.36951    0.01403730124668
             103.94869   0.068842606114048
             29.210155    0.23218442062076
              9.286663    0.46794134155879
              3.163927    0.36231203217765
 s    3 1.00
             7.8682724   -0.11933240861517
             1.8812885   -0.16085421161283
             0.5442493     1.1434564825515
 s    1 1.00
             0.1687144                   1
 p    3 1.00
             7.8682724   0.068999095584993
             1.8812885    0.31642397975315
             0.5442493    0.74430825237435
 p    1 1.00
             0.1687144                   1
 d    1 1.00
                   0.8                   1

13 0
 s    3 1.00
             18.731137    0.03349459952309
             2.8253937    0.23472694665786
             0.6401217    0.81375731841339
 s    1 1.00
             0.1612778                   1

14 0
 s    3 1.00
             18.731137    0.03349459952309
             2.8253937    0.23472694665786
             0.6401217    0.81375731841339
 s    1 1.00
             0.1612778                   1

15 0
 s    6 1.00
             3047.5249  0.0018347001629433
             457.36951    0.01403730124668
             103.94869   0.068842606114048
             29.210155    0.23218442062076
              9.286663    0.46794134155879
              3.163927    0.36231203217765
 s    3 1.00
             7.8682724   -0.11933240861517
             1.8812885   -0.16085421161283
             0.5442493     1.1434564825515
 s    1 1.00
             0.1687144                   1
 p    3 1.00
             7.8682724   0.068999095584993
             1.8812885    0.31642397975315
             0.5442493    0.74430825237435
 p    1 1.00
             0.1687144                   1
 d    1 1.00
                   0.8                   1

16 0
 s    6 1.00
             3047.5249  0.0018347001629433
             457.36951    0.01403730124668
             103.94869   0.068842606114048
             29.210155    0.23218442062076
              9.286663    0.46794134155879
              3.163927    0.36231203217765
 s    3 1.00
             7.8682724   -0.11933240861517
             1.8812885   -0.16085421161283
             0.5442493     1.1434564825515
 s    1 1.00
             0.1687144                   1
 p    3 1.00
             7.8682724   0.068999095584993
             1.8812885    0.31642397975315
             0.5442493    0.74430825237435
 p    1 1.00
             0.1687144                   1
 d    1 1.00
                   0.8                   1

17 0
 s    6 1.00
             3047.5249  0.0018347001629433
             457.36951    0.01403730124668
             103.94869   0.068842606114048
             29.210155    0.23218442062076
              9.286663    0.46794134155879
              3.163927    0.36231203217765
 s    3 1.00
             7.8682724   -0.11933240861517
             1.8812885   -0.16085421161283
             0.5442493     1.1434564825515
 s    1 1.00
             0.1687144                   1
 p    3 1.00
             7.8682724   0.068999095584993
             1.8812885    0.31642397975315
             0.5442493    0.74430825237435
 p    1 1.00
             0.1687144                   1
 d    1 1.00
                   0.8                   1

18 0
 s    6 1.00
             3047.5249  0.0018347001629433
             457.36951    0.01403730124668
             103.94869   0.068842606114048
             29.210155    0.23218442062076
              9.286663    0.46794134155879
              3.163927    0.36231203217765
 s    3 1.00
             7.8682724   -0.11933240861517
             1.8812885   -0.16085421161283
             0.5442493     1.1434564825515
 s    1 1.00
             0.1687144                   1
 p    3 1.00
             7.8682724   0.068999095584993
             1.8812885    0.31642397975315
             0.5442493    0.74430825237435
 p    1 1.00
             0.1687144                   1
 d    1 1.00
                   0.8                   1

19 0
 s    6 1.00
             3047.5249  0.0018347001629433
             457.36951    0.01403730124668
             103.94869   0.068842606114048
             29.210155    0.23218442062076
              9.286663    0.46794134155879
              3.163927    0.36231203217765
 s    3 1.00
             7.8682724   -0.11933240861517
             1.8812885   -0.16085421161283
             0.5442493     1.1434564825515
 s    1 1.00
             0.1687144                   1
 p    3 1.00
             7.8682724   0.068999095584993
             1.8812885    0.31642397975315
             0.5442493    0.74430825237435
 p    1 1.00
             0.1687144                   1
 d    1 1.00
                   0.8                   1

20 0
 s    6 1.00
             3047.5249  0.0018347001629433
             457.36951    0.01403730124668
             103.94869   0.068842606114048
             29.210155    0.23218442062076
              9.286663    0.46794134155879
              3.163927    0.36231203217765
 s    3 1.00
             7.8682724   -0.11933240861517
             1.8812885   -0.16085421161283
             0.5442493     1.1434564825515
 s    1 1.00
             0.1687144                   1
 p    3 1.00
             7.8682724   0.068999095584993
             1.8812885    0.31642397975315
             0.5442493    0.74430825237435
 p    1 1.00
             0.1687144                   1
 d    1 1.00
                   0.8                   1

21 0
 s    6 1.00
             3047.5249  0.0018347001629433
             457.36951    0.01403730124668
             103.94869   0.068842606114048
             29.210155    0.23218442062076
              9.286663    0.46794134155879
              3.163927    0.36231203217765
 s    3 1.00
             7.8682724   -0.11933240861517
             1.8812885   -0.16085421161283
             0.5442493     1.1434564825515
 s    1 1.00
             0.1687144                   1
 p    3 1.00
             7.8682724   0.068999095584993
             1.8812885    0.31642397975315
             0.5442493    0.74430825237435
 p    1 1.00
             0.1687144                   1
 d    1 1.00
                   0.8                   1

22 0
 s    3 1.00
             18.731137    0.03349459952309
             2.8253937    0.23472694665786
             0.6401217    0.81375731841339
 s    1 1.00
             0.1612778                   1

23 0
 s    3 1.00
             18.731137    0.03349459952309
             2.8253937    0.23472694665786
             0.6401217    0.81375731841339
 s    1 1.00
             0.1612778                   1

24 0
 s    3 1.00
             18.731137    0.03349459952309
             2.8253937    0.23472694665786
             0.6401217    0.81375731841339
 s    1 1.00
             0.1612778                   1

25 0
 s    3 1.00
             18.731137    0.03349459952309
             2.8253937    0.23472694665786
             0.6401217    0.81375731841339
 s    1 1.00
             0.1612778                   1

26 0
 s    3 1.00
             18.731137    0.03349459952309
             2.8253937    0.23472694665786
             0.6401217    0.81375731841339
 s    1 1.00
             0.1612778                   1

27 0
 s    3 1.00
             18.731137    0.03349459952309
             2.8253937    0.23472694665786
             0.6401217    0.81375731841339
 s    1 1.00
             0.1612778                   1

28 0
 s    3 1.00
             18.731137    0.03349459952309
             2.8253937    0.23472694665786
             0.6401217    0.81375731841339
 s    1 1.00
             0.1612778                   1

29 0
 s    3 1.00
             18.731137    0.03349459952309
             2.8253937    0.23472694665786
             0.6401217    0.81375731841339
 s    1 1.00
             0.1612778                   1

30 0
 s    3 1.00
             18.731137    0.03349459952309
             2.8253937    0.23472694665786
             0.6401217    0.81375731841339
 s    1 1.00
             0.1612778                   1

31 0
 s    3 1.00
             18.731137    0.03349459952309
             2.8253937    0.23472694665786
             0.6401217    0.81375731841339
 s    1 1.00
             0.1612778                   1

32 0
 s    3 1.00
             18.731137    0.03349459952309
             2.8253937    0.23472694665786
             0.6401217    0.81375731841339
 s    1 1.00
             0.1612778                   1

33 0
 s    6 1.00
             3047.5249  0.0018347001629433
             457.36951    0.01403730124668
             103.94869   0.068842606114048
             29.210155    0.23218442062076
              9.286663    0.46794134155879
              3.163927    0.36231203217765
 s    3 1.00
             7.8682724   -0.11933240861517
             1.8812885   -0.16085421161283
             0.5442493     1.1434564825515
 s    1 1.00
             0.1687144                   1
 p    3 1.00
             7.8682724   0.068999095584993
             1.8812885    0.31642397975315
             0.5442493    0.74430825237435
 p    1 1.00
             0.1687144                   1
 d    1 1.00
                   0.8                   1

34 0
 s    6 1.00
             3047.5249  0.0018347001629433
             457.36951    0.01403730124668
             103.94869   0.068842606114048
             29.210155    0.23218442062076
              9.286663    0.46794134155879
              3.163927    0.36231203217765
 s    3 1.00
             7.8682724   -0.11933240861517
             1.8812885   -0.16085421161283
             0.5442493     1.1434564825515
 s    1 1.00
             0.1687144                   1
 p    3 1.00
             7.8682724   0.068999095584993
             1.8812885    0.31642397975315
             0.5442493    0.74430825237435
 p    1 1.00
             0.1687144                   1
 d    1 1.00
                   0.8                   1

35 0
 s    3 1.00
             18.731137    0.03349459952309
             2.8253937    0.23472694665786
             0.6401217    0.81375731841339
 s    1 1.00
             0.1612778                   1

36 0
 s    6 1.00
             3047.5249  0.0018347001629433
             457.36951    0.01403730124668
             103.94869   0.068842606114048
             29.210155    0.23218442062076
              9.286663    0.46794134155879
              3.163927    0.36231203217765
 s    3 1.00
             7.8682724   -0.11933240861517
             1.8812885   -0.16085421161283
             0.5442493     1.1434564825515
 s    1 1.00
             0.1687144                   1
 p    3 1.00
             7.8682724   0.068999095584993
             1.8812885    0.31642397975315
             0.5442493    0.74430825237435
 p    1 1.00
             0.1687144                   1
 d    1 1.00
                   0.8                   1

37 0
 s    3 1.00
             18.731137    0.03349459952309
             2.8253937    0.23472694665786
             0.6401217    0.81375731841339
 s    1 1.00
             0.1612778                   1

38 0
 s    3 1.00
             18.731137    0.03349459952309
             2.8253937    0.23472694665786
             0.6401217    0.81375731841339
 s    1 1.00
             0.1612778                   1

39 0
 s    6 1.00
             3047.5249  0.0018347001629433
             457.36951    0.01403730124668
             103.94869   0.068842606114048
             29.210155    0.23218442062076
              9.286663    0.46794134155879
              3.163927    0.36231203217765
 s    3 1.00
             7.8682724   -0.11933240861517
             1.8812885   -0.16085421161283
             0.5442493     1.1434564825515
 s    1 1.00
             0.1687144                   1
 p    3 1.00
             7.8682724   0.068999095584993
             1.8812885    0.31642397975315
             0.5442493    0.74430825237435
 p    1 1.00
             0.1687144                   1
 d    1 1.00
                   0.8                   1

40 0
 s    6 1.00
             3047.5249  0.0018347001629433
             457.36951    0.01403730124668
             103.94869   0.068842606114048
             29.210155    0.23218442062076
              9.286663    0.46794134155879
              3.163927    0.36231203217765
 s    3 1.00
             7.8682724   -0.11933240861517
             1.8812885   -0.16085421161283
             0.5442493     1.1434564825515
 s    1 1.00
             0.1687144                   1
 p    3 1.00
             7.8682724   0.068999095584993
             1.8812885    0.31642397975315
             0.5442493    0.74430825237435
 p    1 1.00
             0.1687144                   1
 d    1 1.00
                   0.8                   1

41 0
 s    3 1.00
             18.731137    0.03349459952309
             2.8253937    0.23472694665786
             0.6401217    0.81375731841339
 s    1 1.00
             0.1612778                   1

42 0
 s    6 1.00
             5484.6717   0.001831099805527
             825.23495   0.013950098518422
             188.04696    0.06844509273075
               52.9645    0.23271427528445
              16.89757    0.47019295006289
             5.7996353    0.35852086192309
 s    3 1.00
             15.539616   -0.11077750382508
             3.5999336   -0.14802630511126
             1.0137618     1.1307670390447
 s    1 1.00
             0.2700058                   1
 p    3 1.00
             15.539616   0.070874299543311
             3.5999336    0.33975279781076
             1.0137618    0.72715859531445
 p    1 1.00
             0.2700058                   1
 d    1 1.00
                   0.8                   1

43 0
 s    3 1.00
             18.731137    0.03349459952309
             2.8253937    0.23472694665786
             0.6401217    0.81375731841339
 s    1 1.00
             0.1612778                   1

[5d]
[7f]
[9g]

[MO]
 Sym= A
 Ene=               0
 Spin= Alpha
 Occup=    1.00000
   1      0.01787882573301
   2    -0.00093133539354648
   3    0.0069380502856845
   4    0.00035215333661577
   5    -0.00012457659846782
   6    0.0011587309423169
   7    0.00081655491258836
   8    0.0012576326749379
   9    -0.0055262698022935
  10    -0.00091045358338896
  11    -0.00086327474461772
  12    0.00014500903457924
  13    -0.00019620912590119
  14    4.5095364171882e-05
  15    -0.00044886858893349
  16    -0.00082129217107657
  17        0.994918628988
  18     0.036817070879325
  19    -0.028639964057141
  20    0.00091909704282845
  21    0.00015963978826256
  22    -0.00061178802155744
  23    -0.0035976332791618
  24    -0.0010791522152059
  25    -0.00079588826688561
  26    0.00077335444381922
  27    -0.00030029714974122
  28    -0.00034225330884555
  29    0.00029892292512331
  30    0.00020203956440908
  31    -0.0011201952946501
  32    0.0038767580765053
  33     0.013000438435912
  34    -0.00023588148357813
  35     0.001039806559365
  36    0.00082752293911725
  37    0.00030715576336374
  38    -0.0011176483463524
  39    -0.0023173333568292
  40    0.0035206745662032
  41    0.0041419530366838
  42    -0.00060500154330377
  43     0.001174729086308
  44    0.00045089394721288
  45    -0.00033708348206525
  46    -0.00038121374271643
  47    -0.00054840722917363
  48    -0.00060996224427827
  49    0.00020941378492369
  50    -0.00053050949061811
  51    0.00033348855110561
  52    0.00025572861603986
  53    9.0272644817037e-06
  54    -0.00040979691714319
  55    -0.0047546177307103
  56    0.0011293456617581
  57    0.0070344038454106
  58    -0.00014163666654466
  59    -1.9816849915404e-05
  60    0.00017285360772549
  61    -0.00023517293370885
  62    -0.00018409438559803
  63    -0.00049332044403753
  64    0.00020963597177054
  65    -4.0091751316436e-06
  66    -5.263283876062e-06
  67    8.150731042071e-07
  68    -3.7396430870474e-06
  69    5.9670664767985e-06
  70    2.2545957829977e-06
  71    -5.5937195071714e-06
  72    1.1404323496614e-06
  73    9.0153305520395e-06
  74    2.4134716968293e-05
  75    5.7319848785317e-06
  76    -5.2388886648036e-07
  77    -5.5168482817626e-07
  78    6.3131042766213e-07
  79    6.0034007922506e-07
  80    -7.342420044685e-08
  81    2.8762191753879e-06
  82    1.3716869534021e-05
  83    1.8213423910339e-06
  84    -1.7702783173605e-06
  85    -8.6672981039624e-05
  86    9.5980357301014e-06
  87    2.6999825737845e-06
  88    1.6051013905654e-05
  89    2.9672207951176e-05
  90    -6.2463041526531e-05
  91    2.2364409245786e-05
  92    1.1309765240926e-06
  93    -2.3028355683139e-06
  94    4.1512040969197e-06
  95    -3.8511567935294e-07
  96    -7.224017695443e-07
  97    1.1816295512999e-05
  98    2.0127345895538e-05
  99    -2.3849977384666e-06
 100    -1.8411117579098e-05
 101    -2.9199068715781e-06
 102    -9.3238176980139e-06
 103    0.00021200227091366
 104    -1.4431439006843e-05
 105    -1.9361673338218e-05
 106    -5.442036585566e-06
 107    -0.00020465719730913
 108    0.00017185147280158
 109    0.0001688319659778
 110    -7.2382397936228e-06
 111    -2.7560348709471e-06
 112    1.1298869910243e-06
 113    2.2720789877201e-06
 114    -5.6821213680235e-06
 115    -5.9305158936093e-06
 116    -2.927537170401e-05
 117    0.00026064116001498
 118    -5.6571473901252e-06
 119    8.9035397083357e-06
 120    9.5933246024149e-06
 121    -6.137795975409e-05
 122    2.4555901279815e-05
 123    3.9325652901529e-05
 124    9.4552667552774e-07
 125    -3.2146186876888e-06
 126    -2.4031122770308e-06
 127    1.3706360739348e-06
 128    -1.9981728187253e-06
 129    7.3425511475032e-06
 130    -7.6534234844207e-05
 131    0.0001339308257625
 132    1.9380960438802e-05
 133    -4.9668161622218e-06
 134    9.8634007236908e-05
 135    -0.0003217105341371
 136    3.3096937968266e-05
 137    -0.0004199311453042
 138    1.3014115824538e-05
 139    8.3001233982164e-06
 140    4.0343693967665e-06
 141    3.1443931573358e-06
 142    5.4824971582365e-06
 143    -1.0428642782801e-05
 144    -1.0583154525019e-05
 145    9.3629377387955e-05
 146    2.0169172512247e-05
 147    -8.7932800127596e-06
 148    -1.9706032262437e-05
 149    5.2387937440466e-05
 150    -2.9338145062435e-05
 151    -6.2415957218104e-05
 152    -9.4740913641912e-06
 153    -4.7395420847857e-06
 154    -2.6979896652887e-06
 155    4.9189457469343e-06
 156    -5.4152337152896e-06
 157    4.2198234033991e-07
 158    1.3660542285868e-05
 159    -1.7816161204681e-05
 160    6.9087170855078e-06
 161    -3.5740984430799e-06
 162    1.6454921229757e-06
 163    -4.922737888582e-05
 164    1.5240544290276e-05
 165    1.346966609601e-05
 166    3.3401087801559e-06
 167    -1.1441594614532e-06
 168    2.2898950698374e-07
 169    2.8783084594255e-07
 170    1.2921878354086e-06
 171    -1.3072767132377e-06
 172    -1.0781148754731e-05
 173    2.2491619495795e-05
 174    -3.058281989431e-06
 175    1.3432360717473e-06
 176    9.9071788020572e-06
 177    -1.0775228457721e-05
 178    1.4942665411534e-06
 179    -3.2324499369166e-05
 180    1.2085013017809e-06
 181    3.4330385514441e-06
 182    2.487541156214e-07
 183    -8.2605589040143e-07
 184     1.45469085589e-06
 185    3.0209788364734e-07
 186    -3.3866891738729e-05
 187    4.1998977576937e-05
 188    2.7385927007697e-06
 189    4.2033396976734e-06
 190    2.291331836906e-05
 191    9.2122276928276e-06
 192    -3.9621572536192e-06
 193    -4.844480580672e-05
 194    3.7400416620981e-06
 195    2.4874272011871e-07
 196    2.9411598490078e-06
 197    -5.5771839573334e-07
 198    2.1831560925786e-07
 199    -7.1826979139447e-06
 200    -1.3684098600543e-06
 201    4.5891407858424e-06
 202    3.5418591870655e-05
 203    -1.3293445644075e-05
 204    -6.5428528290392e-06
 205    2.8841594408234e-06
 206    -2.2194276493342e-05
 207    7.0130031535798e-06
 208    -6.3930518391678e-05
 209    6.7831588893466e-06
 210    -3.1145645103178e-05
 211    5.0610355687507e-06
 212    1.5312932701461e-05
 213    1.9779431744114e-06
 214    -1.6408118726715e-05
 215    -5.343702912569e-06
 216    -4.2621761621914e-05
 217    4.3370967318852e-06
 218    1.4363038340763e-05
 219    -2.317370284028e-07
 220    2.0248216092509e-06
 221    -8.716037879378e-05
 222    7.4494988449517e-05
 223    0.00088610033117728
 224    0.00010143558425856
 225    5.447066426234e-05
 226    -0.00020612528045763
 227    0.00061747555670658
 228    0.00030415882756188
 229    -0.00097280865862401
 230    -2.2010261970024e-06
 231    -4.535856350546e-05
 232    -2.0458588293436e-05
 233    2.3594672003694e-05
 234    2.3408772422178e-05
 235    0.00014321000190254
 236    -0.0003213748114045
 237    -0.00049417172014698
 238    -0.00020591598643031
 239    -0.00015796909785135
 240    0.00055158210567064
 241    0.00020415126969506
 242    0.0002629580447147
 243    -0.0012496532682616
 244    2.3623290324198e-06
 245    5.5407804022496e-05
 246    1.3041931163511e-05
 247    1.1454897278714e-05
 248    -2.4797683147785e-06
 249    -1.7796637407322e-05
 250    0.00028358676852567
 251    -0.00034277662685838
 252    -0.00044433794439041
 253    0.0021050795727074
 254    -0.00049628050808285
 255    -9.5338460782911e-05
 256    -0.00019822131331714
 257    -0.00018218212563045
 258    0.00037620542621331
 259    -0.0018277706956912
 260    -7.5954530758602e-05
 261    -3.152826683494e-05
 262    -1.7108367967448e-05
 263    0.00014467072122786
 264    9.2579101335157e-05
 265    -0.00025389004567317
 266    0.00014796489153384
 267    0.00022119066048725
 268    -0.0002006131000343
 269    -1.9334267622476e-05
 270    -0.00049609113416859
 271    0.0066703232122797
 272    -1.273178258711e-05
 273    -0.00015404575699601
 274    8.4740407579545e-05
 275    -0.0015068099970439
 276    -0.0028364173660257
 277    0.0025995174566941
 278    8.2695625640601e-05
 279    -0.00017533269828658
 280    -8.1606765041992e-05
 281    -2.3808150384141e-05