[Molden Format]
made by pyscf v[2.0.1]
[Atoms] (AU)
C   1   6     0.69100024066471     0.64692934207205    -3.48223131169301
H   2   1     2.68052439830868     1.13355088658700    -3.25784032593313
C   3   6    -0.36286361513219     0.85440132524594    -5.97030179418974
H   4   1    -2.35448549047279     0.36322488579172    -6.17995817793143
C   5   6     0.93697958957450     1.61209284601821    -8.05828437677121
H   6   1     0.30646242799847     3.28538583431710    -9.07979378939352
C   7   6     3.12235401223615     0.31857752265429    -9.01077606594223
H   8   1     3.73232478675010    -1.35404880050347    -7.96675544506269
H   9   1     1.55630230933075    -1.92953025305990    12.99630010416247
C   10   6     0.75233899775814    -2.21270439606481    11.10705728102219
H   11   1    -0.43433408177274    -3.90944857546550    11.22216085340412
C   12   6     2.86362581178706    -2.63237380607947     9.17926416456045
H   13   1     4.39038949912609    -1.24955421540245     9.49899813497433
H   14   1     3.74629220191363    -4.48798724300892     9.47414880959024
C   15   6     2.02478325613682    -2.42177285709634     6.44560829588644
C   16   6     3.88048732735477    -3.58795445234514     4.61402886975252
C   17   6    -0.18412382258602    -1.30464291234259     5.76021113872346
C   18   6    -2.10044360464350    -0.26837831858460     7.71610340967100
C   19   6    -3.08956938670431     2.35282328359417     6.88693925039594
C   20   6    -4.37372924086464    -2.09766595989678     7.93610724222001
C   21   6    -0.83850430601230     0.06372213486173    10.33002307638377
H   22   1     0.38411922151109     1.74281358582432    10.27380136542181
H   23   1    -2.30980003007874     0.45460143924521    11.73986301809809
H   24   1     4.58527064644668    -5.38706904487420     5.36778158031719
H   25   1     5.54944938085014    -2.37631462192748     4.35398898413318
H   26   1     3.06633019150423    -3.94118377050688     2.75255466040884
H   27   1    -4.17727778763735     2.26573369139522     5.12914900961283
H   28   1    -1.52662344944051     3.68001877445626     6.59540397144508
H   29   1    -4.32916174397830     3.13643051467482     8.35225460090378
H   30   1    -5.32329548508442    -2.36691813602939     6.11583672749896
H   31   1    -5.77989366602257    -1.33896741843465     9.25748940450990
H   32   1    -3.79310905208926    -3.96389819310853     8.61386170102686
C   33   6    -1.01100794811226    -1.06331657314144     3.11929490449947
C   34   6     0.37686231036534    -0.33275864505552     1.09165013605873
H   35   1    -3.01671213906703    -1.40297922279997     2.77827895090944
C   36   6    -0.64382707979370    -0.11591880174385    -1.42063131251064
H   37   1     2.35569259782137     0.17174499283897     1.33641070251401
H   38   1    -2.63317482980319    -0.60229203511219    -1.66119700387645
C   39   6     4.47307059082302     1.00138906809445   -11.08105785168909
C   40   6     6.67463726557562    -0.44413475967984   -11.89995199897600
H   41   1     3.96718229655089     2.64690253849906   -12.20539356366280
O   42   8     7.97152342098443     0.06042731610533   -13.73960618931333
H   43   1     7.12379765531873    -2.11255344586070   -10.69379572801653
[GTO]
1 0
 s    6 1.00
             3047.5249  0.0018347001629433
             457.36951    0.01403730124668
             103.94869   0.068842606114048
             29.210155    0.23218442062076
              9.286663    0.46794134155879
              3.163927    0.36231203217765
 s    3 1.00
             7.8682724   -0.11933240861517
             1.8812885   -0.16085421161283
             0.5442493     1.1434564825515
 s    1 1.00
             0.1687144                   1
 p    3 1.00
             7.8682724   0.068999095584993
             1.8812885    0.31642397975315
             0.5442493    0.74430825237435
 p    1 1.00
             0.1687144                   1
 d    1 1.00
                   0.8                   1

2 0
 s    3 1.00
             18.731137    0.03349459952309
             2.8253937    0.23472694665786
             0.6401217    0.81375731841339
 s    1 1.00
             0.1612778                   1

3 0
 s    6 1.00
             3047.5249  0.0018347001629433
             457.36951    0.01403730124668
             103.94869   0.068842606114048
             29.210155    0.23218442062076
              9.286663    0.46794134155879
              3.163927    0.36231203217765
 s    3 1.00
             7.8682724   -0.11933240861517
             1.8812885   -0.16085421161283
             0.5442493     1.1434564825515
 s    1 1.00
             0.1687144                   1
 p    3 1.00
             7.8682724   0.068999095584993
             1.8812885    0.31642397975315
             0.5442493    0.74430825237435
 p    1 1.00
             0.1687144                   1
 d    1 1.00
                   0.8                   1

4 0
 s    3 1.00
             18.731137    0.03349459952309
             2.8253937    0.23472694665786
             0.6401217    0.81375731841339
 s    1 1.00
             0.1612778                   1

5 0
 s    6 1.00
             3047.5249  0.0018347001629433
             457.36951    0.01403730124668
             103.94869   0.068842606114048
             29.210155    0.23218442062076
              9.286663    0.46794134155879
              3.163927    0.36231203217765
 s    3 1.00
             7.8682724   -0.11933240861517
             1.8812885   -0.16085421161283
             0.5442493     1.1434564825515
 s    1 1.00
             0.1687144                   1
 p    3 1.00
             7.8682724   0.068999095584993
             1.8812885    0.31642397975315
             0.5442493    0.74430825237435
 p    1 1.00
             0.1687144                   1
 d    1 1.00
                   0.8                   1

6 0
 s    3 1.00
             18.731137    0.03349459952309
             2.8253937    0.23472694665786
             0.6401217    0.81375731841339
 s    1 1.00
             0.1612778                   1

7 0
 s    6 1.00
             3047.5249  0.0018347001629433
             457.36951    0.01403730124668
             103.94869   0.068842606114048
             29.210155    0.23218442062076
              9.286663    0.46794134155879
              3.163927    0.36231203217765
 s    3 1.00
             7.8682724   -0.11933240861517
             1.8812885   -0.16085421161283
             0.5442493     1.1434564825515
 s    1 1.00
             0.1687144                   1
 p    3 1.00
             7.8682724   0.068999095584993
             1.8812885    0.31642397975315
             0.5442493    0.74430825237435
 p    1 1.00
             0.1687144                   1
 d    1 1.00
                   0.8                   1

8 0
 s    3 1.00
             18.731137    0.03349459952309
             2.8253937    0.23472694665786
             0.6401217    0.81375731841339
 s    1 1.00
             0.1612778                   1

9 0
 s    3 1.00
             18.731137    0.03349459952309
             2.8253937    0.23472694665786
             0.6401217    0.81375731841339
 s    1 1.00
             0.1612778                   1

10 0
 s    6 1.00
             3047.5249  0.0018347001629433
             457.36951    0.01403730124668
             103.94869   0.068842606114048
             29.210155    0.23218442062076
              9.286663    0.46794134155879
              3.163927    0.36231203217765
 s    3 1.00
             7.8682724   -0.11933240861517
             1.8812885   -0.16085421161283
             0.5442493     1.1434564825515
 s    1 1.00
             0.1687144                   1
 p    3 1.00
             7.8682724   0.068999095584993
             1.8812885    0.31642397975315
             0.5442493    0.74430825237435
 p    1 1.00
             0.1687144                   1
 d    1 1.00
                   0.8                   1

11 0
 s    3 1.00
             18.731137    0.03349459952309
             2.8253937    0.23472694665786
             0.6401217    0.81375731841339
 s    1 1.00
             0.1612778                   1

12 0
 s    6 1.00
             3047.5249  0.0018347001629433
             457.36951    0.01403730124668
             103.94869   0.068842606114048
             29.210155    0.23218442062076
              9.286663    0.46794134155879
              3.163927    0.36231203217765
 s    3 1.00
             7.8682724   -0.11933240861517
             1.8812885   -0.16085421161283
             0.5442493     1.1434564825515
 s    1 1.00
             0.1687144                   1
 p    3 1.00
             7.8682724   0.068999095584993
             1.8812885    0.31642397975315
             0.5442493    0.74430825237435
 p    1 1.00
             0.1687144                   1
 d    1 1.00
                   0.8                   1

13 0
 s    3 1.00
             18.731137    0.03349459952309
             2.8253937    0.23472694665786
             0.6401217    0.81375731841339
 s    1 1.00
             0.1612778                   1

14 0
 s    3 1.00
             18.731137    0.03349459952309
             2.8253937    0.23472694665786
             0.6401217    0.81375731841339
 s    1 1.00
             0.1612778                   1

15 0
 s    6 1.00
             3047.5249  0.0018347001629433
             457.36951    0.01403730124668
             103.94869   0.068842606114048
             29.210155    0.23218442062076
              9.286663    0.46794134155879
              3.163927    0.36231203217765
 s    3 1.00
             7.8682724   -0.11933240861517
             1.8812885   -0.16085421161283
             0.5442493     1.1434564825515
 s    1 1.00
             0.1687144                   1
 p    3 1.00
             7.8682724   0.068999095584993
             1.8812885    0.31642397975315
             0.5442493    0.74430825237435
 p    1 1.00
             0.1687144                   1
 d    1 1.00
                   0.8                   1

16 0
 s    6 1.00
             3047.5249  0.0018347001629433
             457.36951    0.01403730124668
             103.94869   0.068842606114048
             29.210155    0.23218442062076
              9.286663    0.46794134155879
              3.163927    0.36231203217765
 s    3 1.00
             7.8682724   -0.11933240861517
             1.8812885   -0.16085421161283
             0.5442493     1.1434564825515
 s    1 1.00
             0.1687144                   1
 p    3 1.00
             7.8682724   0.068999095584993
             1.8812885    0.31642397975315
             0.5442493    0.74430825237435
 p    1 1.00
             0.1687144                   1
 d    1 1.00
                   0.8                   1

17 0
 s    6 1.00
             3047.5249  0.0018347001629433
             457.36951    0.01403730124668
             103.94869   0.068842606114048
             29.210155    0.23218442062076
              9.286663    0.46794134155879
              3.163927    0.36231203217765
 s    3 1.00
             7.8682724   -0.11933240861517
             1.8812885   -0.16085421161283
             0.5442493     1.1434564825515
 s    1 1.00
             0.1687144                   1
 p    3 1.00
             7.8682724   0.068999095584993
             1.8812885    0.31642397975315
             0.5442493    0.74430825237435
 p    1 1.00
             0.1687144                   1
 d    1 1.00
                   0.8                   1

18 0
 s    6 1.00
             3047.5249  0.0018347001629433
             457.36951    0.01403730124668
             103.94869   0.068842606114048
             29.210155    0.23218442062076
              9.286663    0.46794134155879
              3.163927    0.36231203217765
 s    3 1.00
             7.8682724   -0.11933240861517
             1.8812885   -0.16085421161283
             0.5442493     1.1434564825515
 s    1 1.00
             0.1687144                   1
 p    3 1.00
             7.8682724   0.068999095584993
             1.8812885    0.31642397975315
             0.5442493    0.74430825237435
 p    1 1.00
             0.1687144                   1
 d    1 1.00
                   0.8                   1

19 0
 s    6 1.00
             3047.5249  0.0018347001629433
             457.36951    0.01403730124668
             103.94869   0.068842606114048
             29.210155    0.23218442062076
              9.286663    0.46794134155879
              3.163927    0.36231203217765
 s    3 1.00
             7.8682724   -0.11933240861517
             1.8812885   -0.16085421161283
             0.5442493     1.1434564825515
 s    1 1.00
             0.1687144                   1
 p    3 1.00
             7.8682724   0.068999095584993
             1.8812885    0.31642397975315
             0.5442493    0.74430825237435
 p    1 1.00
             0.1687144                   1
 d    1 1.00
                   0.8                   1

20 0
 s    6 1.00
             3047.5249  0.0018347001629433
             457.36951    0.01403730124668
             103.94869   0.068842606114048
             29.210155    0.23218442062076
              9.286663    0.46794134155879
              3.163927    0.36231203217765
 s    3 1.00
             7.8682724   -0.11933240861517
             1.8812885   -0.16085421161283
             0.5442493     1.1434564825515
 s    1 1.00
             0.1687144                   1
 p    3 1.00
             7.8682724   0.068999095584993
             1.8812885    0.31642397975315
             0.5442493    0.74430825237435
 p    1 1.00
             0.1687144                   1
 d    1 1.00
                   0.8                   1

21 0
 s    6 1.00
             3047.5249  0.0018347001629433
             457.36951    0.01403730124668
             103.94869   0.068842606114048
             29.210155    0.23218442062076
              9.286663    0.46794134155879
              3.163927    0.36231203217765
 s    3 1.00
             7.8682724   -0.11933240861517
             1.8812885   -0.16085421161283
             0.5442493     1.1434564825515
 s    1 1.00
             0.1687144                   1
 p    3 1.00
             7.8682724   0.068999095584993
             1.8812885    0.31642397975315
             0.5442493    0.74430825237435
 p    1 1.00
             0.1687144                   1
 d    1 1.00
                   0.8                   1

22 0
 s    3 1.00
             18.731137    0.03349459952309
             2.8253937    0.23472694665786
             0.6401217    0.81375731841339
 s    1 1.00
             0.1612778                   1

23 0
 s    3 1.00
             18.731137    0.03349459952309
             2.8253937    0.23472694665786
             0.6401217    0.81375731841339
 s    1 1.00
             0.1612778                   1

24 0
 s    3 1.00
             18.731137    0.03349459952309
             2.8253937    0.23472694665786
             0.6401217    0.81375731841339
 s    1 1.00
             0.1612778                   1

25 0
 s    3 1.00
             18.731137    0.03349459952309
             2.8253937    0.23472694665786
             0.6401217    0.81375731841339
 s    1 1.00
             0.1612778                   1

26 0
 s    3 1.00
             18.731137    0.03349459952309
             2.8253937    0.23472694665786
             0.6401217    0.81375731841339
 s    1 1.00
             0.1612778                   1

27 0
 s    3 1.00
             18.731137    0.03349459952309
             2.8253937    0.23472694665786
             0.6401217    0.81375731841339
 s    1 1.00
             0.1612778                   1

28 0
 s    3 1.00
             18.731137    0.03349459952309
             2.8253937    0.23472694665786
             0.6401217    0.81375731841339
 s    1 1.00
             0.1612778                   1

29 0
 s    3 1.00
             18.731137    0.03349459952309
             2.8253937    0.23472694665786
             0.6401217    0.81375731841339
 s    1 1.00
             0.1612778                   1

30 0
 s    3 1.00
             18.731137    0.03349459952309
             2.8253937    0.23472694665786
             0.6401217    0.81375731841339
 s    1 1.00
             0.1612778                   1

31 0
 s    3 1.00
             18.731137    0.03349459952309
             2.8253937    0.23472694665786
             0.6401217    0.81375731841339
 s    1 1.00
             0.1612778                   1

32 0
 s    3 1.00
             18.731137    0.03349459952309
             2.8253937    0.23472694665786
             0.6401217    0.81375731841339
 s    1 1.00
             0.1612778                   1

33 0
 s    6 1.00
             3047.5249  0.0018347001629433
             457.36951    0.01403730124668
             103.94869   0.068842606114048
             29.210155    0.23218442062076
              9.286663    0.46794134155879
              3.163927    0.36231203217765
 s    3 1.00
             7.8682724   -0.11933240861517
             1.8812885   -0.16085421161283
             0.5442493     1.1434564825515
 s    1 1.00
             0.1687144                   1
 p    3 1.00
             7.8682724   0.068999095584993
             1.8812885    0.31642397975315
             0.5442493    0.74430825237435
 p    1 1.00
             0.1687144                   1
 d    1 1.00
                   0.8                   1

34 0
 s    6 1.00
             3047.5249  0.0018347001629433
             457.36951    0.01403730124668
             103.94869   0.068842606114048
             29.210155    0.23218442062076
              9.286663    0.46794134155879
              3.163927    0.36231203217765
 s    3 1.00
             7.8682724   -0.11933240861517
             1.8812885   -0.16085421161283
             0.5442493     1.1434564825515
 s    1 1.00
             0.1687144                   1
 p    3 1.00
             7.8682724   0.068999095584993
             1.8812885    0.31642397975315
             0.5442493    0.74430825237435
 p    1 1.00
             0.1687144                   1
 d    1 1.00
                   0.8                   1

35 0
 s    3 1.00
             18.731137    0.03349459952309
             2.8253937    0.23472694665786
             0.6401217    0.81375731841339
 s    1 1.00
             0.1612778                   1

36 0
 s    6 1.00
             3047.5249  0.0018347001629433
             457.36951    0.01403730124668
             103.94869   0.068842606114048
             29.210155    0.23218442062076
              9.286663    0.46794134155879
              3.163927    0.36231203217765
 s    3 1.00
             7.8682724   -0.11933240861517
             1.8812885   -0.16085421161283
             0.5442493     1.1434564825515
 s    1 1.00
             0.1687144                   1
 p    3 1.00
             7.8682724   0.068999095584993
             1.8812885    0.31642397975315
             0.5442493    0.74430825237435
 p    1 1.00
             0.1687144                   1
 d    1 1.00
                   0.8                   1

37 0
 s    3 1.00
             18.731137    0.03349459952309
             2.8253937    0.23472694665786
             0.6401217    0.81375731841339
 s    1 1.00
             0.1612778                   1

38 0
 s    3 1.00
             18.731137    0.03349459952309
             2.8253937    0.23472694665786
             0.6401217    0.81375731841339
 s    1 1.00
             0.1612778                   1

39 0
 s    6 1.00
             3047.5249  0.0018347001629433
             457.36951    0.01403730124668
             103.94869   0.068842606114048
             29.210155    0.23218442062076
              9.286663    0.46794134155879
              3.163927    0.36231203217765
 s    3 1.00
             7.8682724   -0.11933240861517
             1.8812885   -0.16085421161283
             0.5442493     1.1434564825515
 s    1 1.00
             0.1687144                   1
 p    3 1.00
             7.8682724   0.068999095584993
             1.8812885    0.31642397975315
             0.5442493    0.74430825237435
 p    1 1.00
             0.1687144                   1
 d    1 1.00
                   0.8                   1

40 0
 s    6 1.00
             3047.5249  0.0018347001629433
             457.36951    0.01403730124668
             103.94869   0.068842606114048
             29.210155    0.23218442062076
              9.286663    0.46794134155879
              3.163927    0.36231203217765
 s    3 1.00
             7.8682724   -0.11933240861517
             1.8812885   -0.16085421161283
             0.5442493     1.1434564825515
 s    1 1.00
             0.1687144                   1
 p    3 1.00
             7.8682724   0.068999095584993
             1.8812885    0.31642397975315
             0.5442493    0.74430825237435
 p    1 1.00
             0.1687144                   1
 d    1 1.00
                   0.8                   1

41 0
 s    3 1.00
             18.731137    0.03349459952309
             2.8253937    0.23472694665786
             0.6401217    0.81375731841339
 s    1 1.00
             0.1612778                   1

42 0
 s    6 1.00
             5484.6717   0.001831099805527
             825.23495   0.013950098518422
             188.04696    0.06844509273075
               52.9645    0.23271427528445
              16.89757    0.47019295006289
             5.7996353    0.35852086192309
 s    3 1.00
             15.539616   -0.11077750382508
             3.5999336   -0.14802630511126
             1.0137618     1.1307670390447
 s    1 1.00
             0.2700058                   1
 p    3 1.00
             15.539616   0.070874299543311
             3.5999336    0.33975279781076
             1.0137618    0.72715859531445
 p    1 1.00
             0.2700058                   1
 d    1 1.00
                   0.8                   1

43 0
 s    3 1.00
             18.731137    0.03349459952309
             2.8253937    0.23472694665786
             0.6401217    0.81375731841339
 s    1 1.00
             0.1612778                   1

[5d]
[7f]
[9g]

[MO]
 Sym= A
 Ene=               0
 Spin= Alpha
 Occup=    1.00000
   1      0.01905985592653
   2    -0.00081788561320784
   3    0.0069519037299364
   4    0.00041256362210115
   5    -0.00020364855962128
   6    0.0010864451509041
   7    0.0005580072427065
   8       0.0013311589228
   9    -0.0044205362747597
  10    -0.00091465824330912
  11    -0.00091999193388847
  12    0.00011716522007367
  13    -0.00021354226093825
  14    5.6347114890088e-05
  15    -0.00037804370723066
  16    -0.00087677635941419
  17      0.99467394339142
  18     0.036474366713242
  19     -0.02768415637276
  20    0.00088711401576946
  21    0.00021044446555275
  22    -0.0003594165866761
  23    -0.0033209955090537
  24    -0.0010525239523858
  25    -0.00057449133697107
  26    0.0007446602132823
  27    -0.00027983857249078
  28    -0.0003412151003839
  29    0.00025487108364432
  30    0.00024549667230905
  31    -0.0011581201823551
  32    0.0037834785212232
  33     0.023698398457491
  34    -0.00028700868498259
  35    0.0030349010619512
  36    0.00082085329736863
  37    0.00035679848343783
  38    -0.0011610513348451
  39    -0.0029497788561784
  40    0.0017317207323544
  41    0.0027876163550041
  42    -0.00052455068382555
  43      0.00108744542896
  44    0.00055457036953221
  45    -0.00039890263026432
  46    -0.00037820323706851
  47    -0.00048253845691788
  48    -0.00031173632271945
  49    0.0010068643525014
  50    -0.00037897268276071
  51    -0.00081509710555542
  52    0.00035191575145391
  53    0.00010348748623594
  54    -0.00025399202413208
  55    -0.0048846897047283
  56    -0.00037822921945876
  57    0.0044729876692633
  58    -0.00014679721993419
  59    6.5334671479645e-05
  60    -2.3557927403859e-05
  61    -1.4863035775316e-05
  62    -0.00025378829675183
  63    -0.0004096896256107
  64    1.6145289803092e-05
  65    -3.6295355615367e-06
  66    -6.4483474057643e-06
  67    1.0261541549946e-06
  68    -1.5601410604175e-06
  69    -1.5190894027321e-06
  70    1.1038485276668e-06
  71    -4.6030473365565e-06
  72    7.0726183127474e-07
  73    8.2892974525408e-06
  74    2.3913886944314e-05
  75    7.7858505288846e-06
  76    -6.4206018482021e-07
  77    -3.11472377707e-07
  78    3.0358324318525e-07
  79    3.1855322099938e-07
  80    -5.935938519657e-09
  81    3.0756586139956e-06
  82    1.4643889436074e-05
  83    1.5787617644753e-06
  84    -4.0442338411821e-06
  85    -6.8134845567901e-05
  86    8.9093269788559e-06
  87    2.2172497996435e-06
  88    1.4880769854284e-05
  89    1.7881640746126e-05
  90    -5.1119049771478e-05
  91    2.2417482376208e-05
  92    1.1277048979365e-06
  93    -1.3717273450711e-06
  94    3.1142215954511e-06
  95    -8.4567276226743e-09
  96    -6.7570650682489e-07
  97    1.0259449042492e-05
  98    1.9773355980312e-05
  99    -1.9631427100421e-06
 100    -1.6092143317084e-05
 101    -1.9448341459326e-06
 102    -2.1711734401426e-06
 103    7.7545688751948e-05
 104    -1.3570844145799e-05
 105    -1.9276038291857e-05
 106    -3.0880095166228e-06
 107    -0.00014018235183165
 108    0.00012306779053725
 109    0.0001618005749061
 110    -7.7433398812665e-06
 111    -3.4972940046741e-06
 112    1.3043168030698e-06
 113    7.5059650699039e-07
 114    -3.6125992898877e-06
 115    -5.7149002912586e-06
 116    -2.8031864140393e-05
 117    0.00022845259481576
 118    -4.2911832902455e-06
 119    4.7286596456623e-06
 120    1.1282131315746e-05
 121    -6.323138531181e-05
 122    4.4419979642902e-05
 123    2.8478699435206e-05
 124    2.3557266584558e-07
 125    -3.2846790294428e-06
 126    -1.4944940599549e-06
 127    2.1948500192901e-06
 128    -1.9590346935702e-06
 129    8.2853049005185e-06
 130    -6.8724051930354e-05
 131    5.1858749085288e-05
 132    1.4819056947307e-05
 133    -1.41753520885e-07
 134    9.9133973180228e-05
 135    -0.00016380504927598
 136    -1.4722955994952e-05
 137    -0.0003173755746706
 138    8.3051474066557e-06
 139    7.4158051824946e-06
 140    1.3622532515507e-06
 141    3.6499637091526e-06
 142    3.9532039058126e-06
 143    -1.090367129033e-05
 144    -1.2980075044432e-05
 145    0.00015054129990545
 146    2.007773527094e-05
 147    -1.0436102504342e-05
 148    -2.3443310259422e-05
 149    6.275102116253e-05
 150    -3.4659508475857e-05
 151    -7.6339903264456e-05
 152    -6.5983222772178e-06
 153    -5.6318372512975e-06
 154    -1.3623739102257e-06
 155    4.1669254270544e-06
 156    -4.5944018944672e-06
 157     3.20971754509e-07
 158    1.1171685676235e-05
 159    -1.8820686814562e-05
 160    5.4547348115843e-06
 161    -2.8390765457133e-06
 162    9.8445839269761e-07
 163    -4.1955011002622e-05
 164    1.6435843199214e-05
 165    1.4975851605238e-05
 166    2.9525196190021e-06
 167    -1.859808352924e-06
 168    1.2481202353094e-07
 169    6.0242769870011e-07
 170    7.4479360558956e-07
 171    -1.6786751219029e-06
 172    -1.2285336453746e-05
 173    2.9541914642841e-05
 174    -2.1946849649313e-06
 175    1.691769581575e-06
 176    8.6377949867051e-06
 177    -1.3548592296579e-05
 178    -1.9519692379166e-06
 179    -3.208357662621e-05
 180    1.1601448395802e-06
 181    2.5883375277795e-06
 182    7.2678849800563e-07
 183    -6.6244712992263e-07
 184    7.9030848713663e-07
 185    1.2301410674083e-06
 186    -2.5878823305123e-05
 187    1.8680077843248e-05
 188    4.1368343576992e-06
 189    3.9632599938368e-06
 190    2.227133710528e-05
 191    5.5286998579064e-07
 192    -1.5920396749176e-06
 193    -2.8923541801713e-05
 194    2.3015748656902e-06
 195    -1.0666263841851e-07
 196    2.3287632109028e-06
 197    -3.63527361369e-09
 198    1.774498375109e-07
 199    -4.4347791387086e-06
 200    1.9344612777544e-06
 201    4.4079039739316e-06
 202    2.8993291855613e-05
 203    -9.7362575583718e-06
 204    6.9618391035933e-06
 205    8.0991360568058e-07
 206    -2.1918861116256e-05
 207    2.276637768038e-06
 208    -4.6764333891601e-05
 209    5.7395032246933e-06
 210    -2.7089735232469e-05
 211    4.6537117035532e-06
 212    1.1099203820569e-05
 213    1.9505792210973e-06
 214    -1.262040182146e-05
 215    -3.4741672270614e-06
 216    -5.3313187809898e-05
 217    3.0984544832238e-06
 218    1.4501751951539e-05
 219    -1.068463541551e-06
 220    3.9464987792565e-07
 221    -8.5247522989267e-05
 222    9.6021734617218e-05
 223    0.00077499752526906
 224    9.8391615558097e-05
 225    5.1606161945204e-05
 226    -0.00021378035114675
 227    0.00057775234453897
 228    0.0002653963164908
 229    -0.00069232301532172
 230    -3.2532620060473e-06
 231    -3.7622741294271e-05
 232    -1.2886750621154e-05
 233    2.1326019852921e-05
 234    1.900965391822e-05
 235    0.00013896847955916
 236    -0.00033246563061608
 237    -4.9360336797109e-05
 238    -0.00020088631056214
 239    -0.00016661168971362
 240    0.00053594968308547
 241    6.8982754017052e-05
 242    0.00027715956492343
 243    -0.0012505953009428
 244    9.8622558160818e-06
 245    4.9428376627982e-05
 246    7.2841153379918e-07
 247    1.1956579175291e-05
 248    -8.7152881688249e-06
 249    -7.4069166683032e-06
 250    0.00028585214793459
 251    -0.00033488701523262
 252    -0.0003847362989897
 253    0.0011347408697194
 254    -0.00049101286603899
 255    -8.799283680289e-05
 256    -0.00017548586556439
 257    -0.00055764932176265
 258    2.3201267765798e-05
 259    -0.0016975904552543
 260    -8.957202137175e-05
 261    -1.7279528379259e-05
 262    8.0774498371035e-06
 263    0.00014478453736393
 264    6.4946977109514e-05
 265    -0.00024458498849534
 266    0.00012440424955415
 267    0.0002064694330663
 268    -0.00028489742013569
 269    -1.0838539735258e-05
 270    -0.00041498212877422
 271    0.0056246124162473
 272    3.4954168808327e-05
 273    -0.00015957153196206
 274    8.8754411972832e-05
 275    -0.00076316687531648
 276    -0.001771294495871
 277    0.0028763168229383
 278    0.00010129659797553
 279    -0.00012735964849784
 280    -8.847255012684e-05
 281    2.5295498489106e-05