[Molden Format]
made by pyscf v[2.0.1]
[Atoms] (AU)
C   1   6     0.69100024066471     0.64692934207205    -3.48223131169301
H   2   1     2.68052439830868     1.13355088658700    -3.25784032593313
C   3   6    -0.36286361513219     0.85440132524594    -5.97030179418974
H   4   1    -2.35448549047279     0.36322488579172    -6.17995817793143
C   5   6     0.93697958957450     1.61209284601821    -8.05828437677121
H   6   1     2.28684852848462     3.15852966115860    -7.89296704602693
C   7   6     0.63106041134958     0.47904579632082   -10.50346361691732
H   8   1    -0.72718870892227    -1.06897620367389   -10.63951300078030
H   9   1     1.55630230933075    -1.92953025305990    12.99630010416247
C   10   6     0.75233899775814    -2.21270439606481    11.10705728102219
H   11   1    -0.43433408177274    -3.90944857546550    11.22216085340412
C   12   6     2.86362581178706    -2.63237380607947     9.17926416456045
H   13   1     4.39038949912609    -1.24955421540245     9.49899813497433
H   14   1     3.74629220191363    -4.48798724300892     9.47414880959024
C   15   6     2.02478325613682    -2.42177285709634     6.44560829588644
C   16   6     3.88048732735477    -3.58795445234514     4.61402886975252
C   17   6    -0.18412382258602    -1.30464291234259     5.76021113872346
C   18   6    -2.10044360464350    -0.26837831858460     7.71610340967100
C   19   6    -3.08956938670431     2.35282328359417     6.88693925039594
C   20   6    -4.37372924086464    -2.09766595989678     7.93610724222001
C   21   6    -0.83850430601230     0.06372213486173    10.33002307638377
H   22   1     0.38411922151109     1.74281358582432    10.27380136542181
H   23   1    -2.30980003007874     0.45460143924521    11.73986301809809
H   24   1     4.58527064644668    -5.38706904487420     5.36778158031719
H   25   1     5.54944938085014    -2.37631462192748     4.35398898413318
H   26   1     3.06633019150423    -3.94118377050688     2.75255466040884
H   27   1    -4.17727778763735     2.26573369139522     5.12914900961283
H   28   1    -1.52662344944051     3.68001877445626     6.59540397144508
H   29   1    -4.32916174397830     3.13643051467482     8.35225460090378
H   30   1    -5.32329548508442    -2.36691813602939     6.11583672749896
H   31   1    -5.77989366602257    -1.33896741843465     9.25748940450990
H   32   1    -3.79310905208926    -3.96389819310853     8.61386170102686
C   33   6    -1.01100794811226    -1.06331657314144     3.11929490449947
C   34   6     0.37686231036534    -0.33275864505552     1.09165013605873
H   35   1    -3.01671213906703    -1.40297922279997     2.77827895090944
C   36   6    -0.64382707979370    -0.11591880174385    -1.42063131251064
H   37   1     2.35569259782137     0.17174499283897     1.33641070251401
H   38   1    -2.63317482980319    -0.60229203511219    -1.66119700387645
C   39   6     1.88057107480096     1.17167710004378   -12.63318625924474
C   40   6     1.43424299107759    -0.10242214041261   -15.03828188134704
H   41   1     3.25774949416826     2.69847908646217   -12.62832443574420
O   42   8     2.48751113017790     0.42264932688836   -17.02215443525925
H   43   1     0.01015752982003    -1.65333508727432   -14.95564685399208
[GTO]
1 0
 s    6 1.00
             3047.5249  0.0018347001629433
             457.36951    0.01403730124668
             103.94869   0.068842606114048
             29.210155    0.23218442062076
              9.286663    0.46794134155879
              3.163927    0.36231203217765
 s    3 1.00
             7.8682724   -0.11933240861517
             1.8812885   -0.16085421161283
             0.5442493     1.1434564825515
 s    1 1.00
             0.1687144                   1
 p    3 1.00
             7.8682724   0.068999095584993
             1.8812885    0.31642397975315
             0.5442493    0.74430825237435
 p    1 1.00
             0.1687144                   1
 d    1 1.00
                   0.8                   1

2 0
 s    3 1.00
             18.731137    0.03349459952309
             2.8253937    0.23472694665786
             0.6401217    0.81375731841339
 s    1 1.00
             0.1612778                   1

3 0
 s    6 1.00
             3047.5249  0.0018347001629433
             457.36951    0.01403730124668
             103.94869   0.068842606114048
             29.210155    0.23218442062076
              9.286663    0.46794134155879
              3.163927    0.36231203217765
 s    3 1.00
             7.8682724   -0.11933240861517
             1.8812885   -0.16085421161283
             0.5442493     1.1434564825515
 s    1 1.00
             0.1687144                   1
 p    3 1.00
             7.8682724   0.068999095584993
             1.8812885    0.31642397975315
             0.5442493    0.74430825237435
 p    1 1.00
             0.1687144                   1
 d    1 1.00
                   0.8                   1

4 0
 s    3 1.00
             18.731137    0.03349459952309
             2.8253937    0.23472694665786
             0.6401217    0.81375731841339
 s    1 1.00
             0.1612778                   1

5 0
 s    6 1.00
             3047.5249  0.0018347001629433
             457.36951    0.01403730124668
             103.94869   0.068842606114048
             29.210155    0.23218442062076
              9.286663    0.46794134155879
              3.163927    0.36231203217765
 s    3 1.00
             7.8682724   -0.11933240861517
             1.8812885   -0.16085421161283
             0.5442493     1.1434564825515
 s    1 1.00
             0.1687144                   1
 p    3 1.00
             7.8682724   0.068999095584993
             1.8812885    0.31642397975315
             0.5442493    0.74430825237435
 p    1 1.00
             0.1687144                   1
 d    1 1.00
                   0.8                   1

6 0
 s    3 1.00
             18.731137    0.03349459952309
             2.8253937    0.23472694665786
             0.6401217    0.81375731841339
 s    1 1.00
             0.1612778                   1

7 0
 s    6 1.00
             3047.5249  0.0018347001629433
             457.36951    0.01403730124668
             103.94869   0.068842606114048
             29.210155    0.23218442062076
              9.286663    0.46794134155879
              3.163927    0.36231203217765
 s    3 1.00
             7.8682724   -0.11933240861517
             1.8812885   -0.16085421161283
             0.5442493     1.1434564825515
 s    1 1.00
             0.1687144                   1
 p    3 1.00
             7.8682724   0.068999095584993
             1.8812885    0.31642397975315
             0.5442493    0.74430825237435
 p    1 1.00
             0.1687144                   1
 d    1 1.00
                   0.8                   1

8 0
 s    3 1.00
             18.731137    0.03349459952309
             2.8253937    0.23472694665786
             0.6401217    0.81375731841339
 s    1 1.00
             0.1612778                   1

9 0
 s    3 1.00
             18.731137    0.03349459952309
             2.8253937    0.23472694665786
             0.6401217    0.81375731841339
 s    1 1.00
             0.1612778                   1

10 0
 s    6 1.00
             3047.5249  0.0018347001629433
             457.36951    0.01403730124668
             103.94869   0.068842606114048
             29.210155    0.23218442062076
              9.286663    0.46794134155879
              3.163927    0.36231203217765
 s    3 1.00
             7.8682724   -0.11933240861517
             1.8812885   -0.16085421161283
             0.5442493     1.1434564825515
 s    1 1.00
             0.1687144                   1
 p    3 1.00
             7.8682724   0.068999095584993
             1.8812885    0.31642397975315
             0.5442493    0.74430825237435
 p    1 1.00
             0.1687144                   1
 d    1 1.00
                   0.8                   1

11 0
 s    3 1.00
             18.731137    0.03349459952309
             2.8253937    0.23472694665786
             0.6401217    0.81375731841339
 s    1 1.00
             0.1612778                   1

12 0
 s    6 1.00
             3047.5249  0.0018347001629433
             457.36951    0.01403730124668
             103.94869   0.068842606114048
             29.210155    0.23218442062076
              9.286663    0.46794134155879
              3.163927    0.36231203217765
 s    3 1.00
             7.8682724   -0.11933240861517
             1.8812885   -0.16085421161283
             0.5442493     1.1434564825515
 s    1 1.00
             0.1687144                   1
 p    3 1.00
             7.8682724   0.068999095584993
             1.8812885    0.31642397975315
             0.5442493    0.74430825237435
 p    1 1.00
             0.1687144                   1
 d    1 1.00
                   0.8                   1

13 0
 s    3 1.00
             18.731137    0.03349459952309
             2.8253937    0.23472694665786
             0.6401217    0.81375731841339
 s    1 1.00
             0.1612778                   1

14 0
 s    3 1.00
             18.731137    0.03349459952309
             2.8253937    0.23472694665786
             0.6401217    0.81375731841339
 s    1 1.00
             0.1612778                   1

15 0
 s    6 1.00
             3047.5249  0.0018347001629433
             457.36951    0.01403730124668
             103.94869   0.068842606114048
             29.210155    0.23218442062076
              9.286663    0.46794134155879
              3.163927    0.36231203217765
 s    3 1.00
             7.8682724   -0.11933240861517
             1.8812885   -0.16085421161283
             0.5442493     1.1434564825515
 s    1 1.00
             0.1687144                   1
 p    3 1.00
             7.8682724   0.068999095584993
             1.8812885    0.31642397975315
             0.5442493    0.74430825237435
 p    1 1.00
             0.1687144                   1
 d    1 1.00
                   0.8                   1

16 0
 s    6 1.00
             3047.5249  0.0018347001629433
             457.36951    0.01403730124668
             103.94869   0.068842606114048
             29.210155    0.23218442062076
              9.286663    0.46794134155879
              3.163927    0.36231203217765
 s    3 1.00
             7.8682724   -0.11933240861517
             1.8812885   -0.16085421161283
             0.5442493     1.1434564825515
 s    1 1.00
             0.1687144                   1
 p    3 1.00
             7.8682724   0.068999095584993
             1.8812885    0.31642397975315
             0.5442493    0.74430825237435
 p    1 1.00
             0.1687144                   1
 d    1 1.00
                   0.8                   1

17 0
 s    6 1.00
             3047.5249  0.0018347001629433
             457.36951    0.01403730124668
             103.94869   0.068842606114048
             29.210155    0.23218442062076
              9.286663    0.46794134155879
              3.163927    0.36231203217765
 s    3 1.00
             7.8682724   -0.11933240861517
             1.8812885   -0.16085421161283
             0.5442493     1.1434564825515
 s    1 1.00
             0.1687144                   1
 p    3 1.00
             7.8682724   0.068999095584993
             1.8812885    0.31642397975315
             0.5442493    0.74430825237435
 p    1 1.00
             0.1687144                   1
 d    1 1.00
                   0.8                   1

18 0
 s    6 1.00
             3047.5249  0.0018347001629433
             457.36951    0.01403730124668
             103.94869   0.068842606114048
             29.210155    0.23218442062076
              9.286663    0.46794134155879
              3.163927    0.36231203217765
 s    3 1.00
             7.8682724   -0.11933240861517
             1.8812885   -0.16085421161283
             0.5442493     1.1434564825515
 s    1 1.00
             0.1687144                   1
 p    3 1.00
             7.8682724   0.068999095584993
             1.8812885    0.31642397975315
             0.5442493    0.74430825237435
 p    1 1.00
             0.1687144                   1
 d    1 1.00
                   0.8                   1

19 0
 s    6 1.00
             3047.5249  0.0018347001629433
             457.36951    0.01403730124668
             103.94869   0.068842606114048
             29.210155    0.23218442062076
              9.286663    0.46794134155879
              3.163927    0.36231203217765
 s    3 1.00
             7.8682724   -0.11933240861517
             1.8812885   -0.16085421161283
             0.5442493     1.1434564825515
 s    1 1.00
             0.1687144                   1
 p    3 1.00
             7.8682724   0.068999095584993
             1.8812885    0.31642397975315
             0.5442493    0.74430825237435
 p    1 1.00
             0.1687144                   1
 d    1 1.00
                   0.8                   1

20 0
 s    6 1.00
             3047.5249  0.0018347001629433
             457.36951    0.01403730124668
             103.94869   0.068842606114048
             29.210155    0.23218442062076
              9.286663    0.46794134155879
              3.163927    0.36231203217765
 s    3 1.00
             7.8682724   -0.11933240861517
             1.8812885   -0.16085421161283
             0.5442493     1.1434564825515
 s    1 1.00
             0.1687144                   1
 p    3 1.00
             7.8682724   0.068999095584993
             1.8812885    0.31642397975315
             0.5442493    0.74430825237435
 p    1 1.00
             0.1687144                   1
 d    1 1.00
                   0.8                   1

21 0
 s    6 1.00
             3047.5249  0.0018347001629433
             457.36951    0.01403730124668
             103.94869   0.068842606114048
             29.210155    0.23218442062076
              9.286663    0.46794134155879
              3.163927    0.36231203217765
 s    3 1.00
             7.8682724   -0.11933240861517
             1.8812885   -0.16085421161283
             0.5442493     1.1434564825515
 s    1 1.00
             0.1687144                   1
 p    3 1.00
             7.8682724   0.068999095584993
             1.8812885    0.31642397975315
             0.5442493    0.74430825237435
 p    1 1.00
             0.1687144                   1
 d    1 1.00
                   0.8                   1

22 0
 s    3 1.00
             18.731137    0.03349459952309
             2.8253937    0.23472694665786
             0.6401217    0.81375731841339
 s    1 1.00
             0.1612778                   1

23 0
 s    3 1.00
             18.731137    0.03349459952309
             2.8253937    0.23472694665786
             0.6401217    0.81375731841339
 s    1 1.00
             0.1612778                   1

24 0
 s    3 1.00
             18.731137    0.03349459952309
             2.8253937    0.23472694665786
             0.6401217    0.81375731841339
 s    1 1.00
             0.1612778                   1

25 0
 s    3 1.00
             18.731137    0.03349459952309
             2.8253937    0.23472694665786
             0.6401217    0.81375731841339
 s    1 1.00
             0.1612778                   1

26 0
 s    3 1.00
             18.731137    0.03349459952309
             2.8253937    0.23472694665786
             0.6401217    0.81375731841339
 s    1 1.00
             0.1612778                   1

27 0
 s    3 1.00
             18.731137    0.03349459952309
             2.8253937    0.23472694665786
             0.6401217    0.81375731841339
 s    1 1.00
             0.1612778                   1

28 0
 s    3 1.00
             18.731137    0.03349459952309
             2.8253937    0.23472694665786
             0.6401217    0.81375731841339
 s    1 1.00
             0.1612778                   1

29 0
 s    3 1.00
             18.731137    0.03349459952309
             2.8253937    0.23472694665786
             0.6401217    0.81375731841339
 s    1 1.00
             0.1612778                   1

30 0
 s    3 1.00
             18.731137    0.03349459952309
             2.8253937    0.23472694665786
             0.6401217    0.81375731841339
 s    1 1.00
             0.1612778                   1

31 0
 s    3 1.00
             18.731137    0.03349459952309
             2.8253937    0.23472694665786
             0.6401217    0.81375731841339
 s    1 1.00
             0.1612778                   1

32 0
 s    3 1.00
             18.731137    0.03349459952309
             2.8253937    0.23472694665786
             0.6401217    0.81375731841339
 s    1 1.00
             0.1612778                   1

33 0
 s    6 1.00
             3047.5249  0.0018347001629433
             457.36951    0.01403730124668
             103.94869   0.068842606114048
             29.210155    0.23218442062076
              9.286663    0.46794134155879
              3.163927    0.36231203217765
 s    3 1.00
             7.8682724   -0.11933240861517
             1.8812885   -0.16085421161283
             0.5442493     1.1434564825515
 s    1 1.00
             0.1687144                   1
 p    3 1.00
             7.8682724   0.068999095584993
             1.8812885    0.31642397975315
             0.5442493    0.74430825237435
 p    1 1.00
             0.1687144                   1
 d    1 1.00
                   0.8                   1

34 0
 s    6 1.00
             3047.5249  0.0018347001629433
             457.36951    0.01403730124668
             103.94869   0.068842606114048
             29.210155    0.23218442062076
              9.286663    0.46794134155879
              3.163927    0.36231203217765
 s    3 1.00
             7.8682724   -0.11933240861517
             1.8812885   -0.16085421161283
             0.5442493     1.1434564825515
 s    1 1.00
             0.1687144                   1
 p    3 1.00
             7.8682724   0.068999095584993
             1.8812885    0.31642397975315
             0.5442493    0.74430825237435
 p    1 1.00
             0.1687144                   1
 d    1 1.00
                   0.8                   1

35 0
 s    3 1.00
             18.731137    0.03349459952309
             2.8253937    0.23472694665786
             0.6401217    0.81375731841339
 s    1 1.00
             0.1612778                   1

36 0
 s    6 1.00
             3047.5249  0.0018347001629433
             457.36951    0.01403730124668
             103.94869   0.068842606114048
             29.210155    0.23218442062076
              9.286663    0.46794134155879
              3.163927    0.36231203217765
 s    3 1.00
             7.8682724   -0.11933240861517
             1.8812885   -0.16085421161283
             0.5442493     1.1434564825515
 s    1 1.00
             0.1687144                   1
 p    3 1.00
             7.8682724   0.068999095584993
             1.8812885    0.31642397975315
             0.5442493    0.74430825237435
 p    1 1.00
             0.1687144                   1
 d    1 1.00
                   0.8                   1

37 0
 s    3 1.00
             18.731137    0.03349459952309
             2.8253937    0.23472694665786
             0.6401217    0.81375731841339
 s    1 1.00
             0.1612778                   1

38 0
 s    3 1.00
             18.731137    0.03349459952309
             2.8253937    0.23472694665786
             0.6401217    0.81375731841339
 s    1 1.00
             0.1612778                   1

39 0
 s    6 1.00
             3047.5249  0.0018347001629433
             457.36951    0.01403730124668
             103.94869   0.068842606114048
             29.210155    0.23218442062076
              9.286663    0.46794134155879
              3.163927    0.36231203217765
 s    3 1.00
             7.8682724   -0.11933240861517
             1.8812885   -0.16085421161283
             0.5442493     1.1434564825515
 s    1 1.00
             0.1687144                   1
 p    3 1.00
             7.8682724   0.068999095584993
             1.8812885    0.31642397975315
             0.5442493    0.74430825237435
 p    1 1.00
             0.1687144                   1
 d    1 1.00
                   0.8                   1

40 0
 s    6 1.00
             3047.5249  0.0018347001629433
             457.36951    0.01403730124668
             103.94869   0.068842606114048
             29.210155    0.23218442062076
              9.286663    0.46794134155879
              3.163927    0.36231203217765
 s    3 1.00
             7.8682724   -0.11933240861517
             1.8812885   -0.16085421161283
             0.5442493     1.1434564825515
 s    1 1.00
             0.1687144                   1
 p    3 1.00
             7.8682724   0.068999095584993
             1.8812885    0.31642397975315
             0.5442493    0.74430825237435
 p    1 1.00
             0.1687144                   1
 d    1 1.00
                   0.8                   1

41 0
 s    3 1.00
             18.731137    0.03349459952309
             2.8253937    0.23472694665786
             0.6401217    0.81375731841339
 s    1 1.00
             0.1612778                   1

42 0
 s    6 1.00
             5484.6717   0.001831099805527
             825.23495   0.013950098518422
             188.04696    0.06844509273075
               52.9645    0.23271427528445
              16.89757    0.47019295006289
             5.7996353    0.35852086192309
 s    3 1.00
             15.539616   -0.11077750382508
             3.5999336   -0.14802630511126
             1.0137618     1.1307670390447
 s    1 1.00
             0.2700058                   1
 p    3 1.00
             15.539616   0.070874299543311
             3.5999336    0.33975279781076
             1.0137618    0.72715859531445
 p    1 1.00
             0.2700058                   1
 d    1 1.00
                   0.8                   1

43 0
 s    3 1.00
             18.731137    0.03349459952309
             2.8253937    0.23472694665786
             0.6401217    0.81375731841339
 s    1 1.00
             0.1612778                   1

[5d]
[7f]
[9g]

[MO]
 Sym= A
 Ene=               0
 Spin= Alpha
 Occup=    1.00000
   1      0.01642120596895
   2    -0.00088990840124616
   3    0.0064520076699253
   4    0.00038435441653774
   5    -7.094496892783e-05
   6    0.0011402892136667
   7    0.00062076917860845
   8    0.00075938711608758
   9    -0.0036831457769092
  10    -0.00097259397647009
  11    -0.00092219608114383
  12    0.00013211687424239
  13    -0.0002283204603595
  14    5.0385498878017e-05
  15    -0.00038177424162676
  16    -0.00078485949712326
  17      0.99442185062554
  18     0.036089219838805
  19    -0.026996955749764
  20    0.00069502163741858
  21    0.00017275184715041
  22    -0.00026507469518612
  23    -0.0030261940847659
  24    -0.00093810434152084
  25    -0.00014850901152778
  26    0.00080110758064901
  27    -0.00023569790515481
  28    -0.00038202605480894
  29    0.00024940977994631
  30    0.00014141189475092
  31    -0.0010774538413202
  32    0.0037961960500991
  33     0.031326489158785
  34    -0.00038306312682613
  35    0.0048363606374111
  36    0.00080550253345192
  37    0.00036381462316858
  38    -0.0012708632248842
  39    -0.00029548952680134
  40    0.00094057176085412
  41     0.004571034689452
  42    -0.00064678357736469
  43    0.00097534549580386
  44    0.00050228779239982
  45    -0.00035379840585658
  46    -0.00041619437568391
  47    -0.00047130494023659
  48    -0.00056683780128938
  49     0.010871805306101
  50    -9.452402586666e-06
  51    0.00018161817646066
  52    9.6606529364767e-06
  53    0.00010552917799673
  54    -0.0003209729698372
  55    -0.00099270419202185
  56    -0.00039529415933923
  57    0.0040210402118128
  58    -1.713909580462e-05
  59    6.7997799609359e-05
  60    0.00011008156276713
  61    -4.1843117826684e-05
  62    0.0001132901379406
  63    -0.00028099091995982
  64    -0.00019947194927637
  65    -3.2144989739354e-06
  66    -5.9084303932511e-06
  67    9.7809257911294e-07
  68    -2.1028600196907e-06
  69    4.252225248907e-06
  70    9.6534839385388e-07
  71    -3.7145389776977e-06
  72    8.7599630415415e-07
  73    4.2170015873925e-06
  74    1.9107006243252e-05
  75    6.3461948258237e-06
  76    -7.2784747334479e-07
  77    -5.0880468996084e-07
  78    4.0037533315319e-07
  79    3.5822108315629e-07
  80    -1.2117748264909e-07
  81    2.2029806537084e-06
  82    1.1190832628269e-05
  83    1.5309964715808e-06
  84    -3.5995153902067e-06
  85    -6.1203378700942e-05
  86    8.4421383585366e-06
  87    2.180792725076e-06
  88    1.4044408644151e-05
  89    1.9895663937383e-05
  90    -4.2061498607931e-05
  91    1.9851414088147e-05
  92    8.6791415453682e-07
  93    -1.2890328685026e-06
  94    2.6553292102132e-06
  95    3.3727931731543e-08
  96    -4.5513194023813e-07
  97    9.5366160428686e-06
  98    1.7678457699648e-05
  99    -1.7434799717525e-06
 100    -1.3686748258536e-05
 101    -2.318624736754e-06
 102    -5.044912898111e-06
 103    0.00010216712381819
 104    -1.4483547806285e-05
 105    -1.9156942323338e-05
 106    -2.4966589448795e-06
 107    -0.00013667865691878
 108    0.00010211907691757
 109    0.0001364000390722
 110    -6.5421371923223e-06
 111    -3.5783916267609e-06
 112    1.4573079366794e-06
 113    2.5266271342512e-06
 114    -3.1796178875325e-06
 115    -5.4454749087632e-06
 116    -2.5041209519976e-05
 117    0.00021105194114723
 118    -4.5499467120048e-06
 119    6.8113045896027e-06
 120    9.0079593597378e-06
 121    -5.2035290479661e-05
 122    2.9531753066934e-05
 123    1.7999791819643e-05
 124    3.0742861375105e-07
 125    -2.0636157874769e-06
 126    -1.5040627882773e-06
 127    1.2310174867669e-06
 128    -1.266849525135e-06
 129    7.8534696912005e-06
 130    -6.7111977182418e-05
 131    4.4135355781022e-05
 132    1.3486314499134e-05
 133    -5.7970030996262e-06
 134     9.48723432854e-05
 135    -0.00015839684803733
 136    2.1392211933552e-05
 137    -0.00029197378454185
 138    9.8415310940086e-06
 139    4.8179912577406e-06
 140    5.622822815699e-07
 141    2.5104383641134e-06
 142    2.5997712794621e-06
 143    -9.5971122020913e-06
 144    -2.539741265336e-06
 145    0.00010906411712063
 146    1.8956250167698e-05
 147    -8.4033756376532e-06
 148    -2.5733886450328e-05
 149    5.6189170258072e-05
 150    -6.2150554321351e-05
 151    -2.5951754086732e-05
 152    -7.0883303819578e-06
 153    -3.8374852555248e-06
 154    -2.7503904216144e-07
 155    4.0963273840877e-06
 156    -3.4160128458805e-06
 157    -4.5030744091728e-07
 158    5.5871242395118e-06
 159    2.1301297887891e-05
 160    5.2117393387479e-06
 161    -4.3836681706722e-06
 162    3.502666798114e-06
 163    -2.7858890593387e-05
 164    -1.8234736194985e-06
 165    7.1668394239394e-06
 166    1.395822452021e-06
 167    -5.4082454404547e-07
 168    1.7072155419365e-07
 169    -3.669695806756e-07
 170    2.1169643729278e-07
 171    -1.3671453637836e-06
 172    -9.4317675696831e-06
 173    2.1927024240937e-05
 174    -1.128730638578e-06
 175    1.8601758408844e-06
 176    6.1937401206479e-06
 177    -2.6579463409869e-05
 178    -2.8454137020348e-06
 179    -3.5112987962958e-05
 180    1.3458316522029e-06
 181    1.2986581439466e-06
 182    3.1502435749498e-08
 183    -1.2273183218116e-06
 184    3.3439706372547e-08
 185    1.5153771911206e-06
 186    -2.2233818465486e-05
 187    -2.1267972736331e-06
 188    4.2607603787101e-06
 189    4.1108053186243e-06
 190    2.1202663096226e-05
 191    9.8649645628018e-06
 192    7.3259284072627e-06
 193    -2.154443440888e-05
 194    2.5205814636878e-06
 195    -7.6029257786484e-07
 196    9.8182429728577e-07
 197    -1.5308404574843e-07
 198    -1.2014396960062e-07
 199    -4.0043627464166e-06
 200    -1.9610915842276e-06
 201    4.9931481281266e-06
 202    2.9123043472282e-05
 203    -1.0269369311208e-05
 204    -6.1394947082435e-07
 205    9.3517896536406e-07
 206    -1.5362477545107e-05
 207    5.5001786184006e-06
 208    -6.4913261561026e-05
 209    2.073494413772e-06
 210    -2.7234803752703e-05
 211    1.7726713124936e-06
 212    7.804971079564e-06
 213    1.8016342179101e-06
 214    -7.7327567781575e-06
 215    -9.4887793616387e-07
 216    -6.3708930484382e-05
 217    2.7133081288522e-06
 218    1.0439786152198e-05
 219    -1.1704174000935e-06
 220    4.5160438746306e-06
 221    -8.040431788949e-05
 222    0.00011809746059813
 223    0.00048886112673252
 224    9.342003173463e-05
 225    5.8353203659152e-05
 226    -0.00020608716062547
 227    0.00048293921793095
 228    0.00019859208605711
 229    -0.00052367408365459
 230    -8.6347189601106e-06
 231    -2.7836346654773e-05
 232    -9.9705311775802e-06
 233    1.5682699167252e-05
 234    1.6093327767885e-05
 235    0.00013559208507446
 236    -0.00034075793329156
 237    0.00029246690082139
 238    -0.00019833700722629
 239    -0.00014797917986659
 240    0.00051363883581267
 241    -3.6299108728176e-05
 242    0.0001627098466224
 243    -0.0010968794051272
 244    1.945261873023e-05
 245    3.6448762191408e-05
 246    5.2980505743814e-06
 247    7.3294325191056e-06
 248    5.5129001886372e-07
 249    -2.8763386874191e-06
 250    0.00027415939517598
 251    -0.00032758910553374
 252    -0.00034367562545858
 253    0.00071097594717436
 254    -0.00046855706149712
 255    -0.00010290904367534
 256    -0.00017991099227329
 257    -0.00084105182150598
 258    0.00018765984815336
 259    -0.0015826087946522
 260    -9.3784238749086e-05
 261    -1.0515456135888e-05
 262    -7.1715843269294e-06
 263    0.00012610624365963
 264    8.474294823822e-05
 265    -0.00022995196223382
 266    0.00010196374407016
 267    0.00020102456095011
 268    -0.00035097586450032
 269    7.2299519145332e-06
 270    -0.00022988519155686
 271    0.0031425954302028
 272    -7.1475263661514e-05
 273    -0.0001772418182354
 274    -8.9810077479709e-05
 275    -0.0014310901563213
 276    -0.00076028699898887
 277    0.0013849675304631
 278    3.7764658919015e-05
 279    -7.2414144337442e-05
 280    -7.7463087704254e-06