[Molden Format]
made by pyscf v[2.0.1]
[Atoms] (AU)
C   1   6     0.69100024066471     0.64692934207205    -3.48223131169301
H   2   1     2.68052439830868     1.13355088658700    -3.25784032593313
C   3   6    -0.36286361513219     0.85440132524594    -5.97030179418974
H   4   1    -2.35448549047279     0.36322488579172    -6.17995817793143
C   5   6     0.93697958957450     1.61209284601821    -8.05828437677121
H   6   1     2.82520634269342     2.40231158819155    -7.83223822317356
C   7   6    -0.04591716574067     1.43050675384137   -10.57963800872440
H   8   1    -1.93966227025444     0.63380613673234   -10.77641154630544
H   9   1     1.55630230933075    -1.92953025305990    12.99630010416247
C   10   6     0.75233899775814    -2.21270439606481    11.10705728102219
H   11   1    -0.43433408177274    -3.90944857546550    11.22216085340412
C   12   6     2.86362581178706    -2.63237380607947     9.17926416456045
H   13   1     4.39038949912609    -1.24955421540245     9.49899813497433
H   14   1     3.74629220191363    -4.48798724300892     9.47414880959024
C   15   6     2.02478325613682    -2.42177285709634     6.44560829588644
C   16   6     3.88048732735477    -3.58795445234514     4.61402886975252
C   17   6    -0.18412382258602    -1.30464291234259     5.76021113872346
C   18   6    -2.10044360464350    -0.26837831858460     7.71610340967100
C   19   6    -3.08956938670431     2.35282328359417     6.88693925039594
C   20   6    -4.37372924086464    -2.09766595989678     7.93610724222001
C   21   6    -0.83850430601230     0.06372213486173    10.33002307638377
H   22   1     0.38411922151109     1.74281358582432    10.27380136542181
H   23   1    -2.30980003007874     0.45460143924521    11.73986301809809
H   24   1     4.58527064644668    -5.38706904487420     5.36778158031719
H   25   1     5.54944938085014    -2.37631462192748     4.35398898413318
H   26   1     3.06633019150423    -3.94118377050688     2.75255466040884
H   27   1    -4.17727778763735     2.26573369139522     5.12914900961283
H   28   1    -1.52662344944051     3.68001877445626     6.59540397144508
H   29   1    -4.32916174397830     3.13643051467482     8.35225460090378
H   30   1    -5.32329548508442    -2.36691813602939     6.11583672749896
H   31   1    -5.77989366602257    -1.33896741843465     9.25748940450990
H   32   1    -3.79310905208926    -3.96389819310853     8.61386170102686
C   33   6    -1.01100794811226    -1.06331657314144     3.11929490449947
C   34   6     0.37686231036534    -0.33275864505552     1.09165013605873
H   35   1    -3.01671213906703    -1.40297922279997     2.77827895090944
C   36   6    -0.64382707979370    -0.11591880174385    -1.42063131251064
H   37   1     2.35569259782137     0.17174499283897     1.33641070251401
H   38   1    -2.63317482980319    -0.60229203511219    -1.66119700387645
C   39   6     1.17709071185639     2.16235266520763   -12.71162929579923
C   40   6     0.01149368127442     1.89967079998079   -15.19747007607967
H   41   1     3.06674924318564     2.97042403350516   -12.64854490967844
O   42   8     1.00001917973751     2.51860460578581   -17.18758625638360
H   43   1    -1.92257659968242     1.06364005135718   -15.17290072571517
[GTO]
1 0
 s    6 1.00
             3047.5249  0.0018347001629433
             457.36951    0.01403730124668
             103.94869   0.068842606114048
             29.210155    0.23218442062076
              9.286663    0.46794134155879
              3.163927    0.36231203217765
 s    3 1.00
             7.8682724   -0.11933240861517
             1.8812885   -0.16085421161283
             0.5442493     1.1434564825515
 s    1 1.00
             0.1687144                   1
 p    3 1.00
             7.8682724   0.068999095584993
             1.8812885    0.31642397975315
             0.5442493    0.74430825237435
 p    1 1.00
             0.1687144                   1
 d    1 1.00
                   0.8                   1

2 0
 s    3 1.00
             18.731137    0.03349459952309
             2.8253937    0.23472694665786
             0.6401217    0.81375731841339
 s    1 1.00
             0.1612778                   1

3 0
 s    6 1.00
             3047.5249  0.0018347001629433
             457.36951    0.01403730124668
             103.94869   0.068842606114048
             29.210155    0.23218442062076
              9.286663    0.46794134155879
              3.163927    0.36231203217765
 s    3 1.00
             7.8682724   -0.11933240861517
             1.8812885   -0.16085421161283
             0.5442493     1.1434564825515
 s    1 1.00
             0.1687144                   1
 p    3 1.00
             7.8682724   0.068999095584993
             1.8812885    0.31642397975315
             0.5442493    0.74430825237435
 p    1 1.00
             0.1687144                   1
 d    1 1.00
                   0.8                   1

4 0
 s    3 1.00
             18.731137    0.03349459952309
             2.8253937    0.23472694665786
             0.6401217    0.81375731841339
 s    1 1.00
             0.1612778                   1

5 0
 s    6 1.00
             3047.5249  0.0018347001629433
             457.36951    0.01403730124668
             103.94869   0.068842606114048
             29.210155    0.23218442062076
              9.286663    0.46794134155879
              3.163927    0.36231203217765
 s    3 1.00
             7.8682724   -0.11933240861517
             1.8812885   -0.16085421161283
             0.5442493     1.1434564825515
 s    1 1.00
             0.1687144                   1
 p    3 1.00
             7.8682724   0.068999095584993
             1.8812885    0.31642397975315
             0.5442493    0.74430825237435
 p    1 1.00
             0.1687144                   1
 d    1 1.00
                   0.8                   1

6 0
 s    3 1.00
             18.731137    0.03349459952309
             2.8253937    0.23472694665786
             0.6401217    0.81375731841339
 s    1 1.00
             0.1612778                   1

7 0
 s    6 1.00
             3047.5249  0.0018347001629433
             457.36951    0.01403730124668
             103.94869   0.068842606114048
             29.210155    0.23218442062076
              9.286663    0.46794134155879
              3.163927    0.36231203217765
 s    3 1.00
             7.8682724   -0.11933240861517
             1.8812885   -0.16085421161283
             0.5442493     1.1434564825515
 s    1 1.00
             0.1687144                   1
 p    3 1.00
             7.8682724   0.068999095584993
             1.8812885    0.31642397975315
             0.5442493    0.74430825237435
 p    1 1.00
             0.1687144                   1
 d    1 1.00
                   0.8                   1

8 0
 s    3 1.00
             18.731137    0.03349459952309
             2.8253937    0.23472694665786
             0.6401217    0.81375731841339
 s    1 1.00
             0.1612778                   1

9 0
 s    3 1.00
             18.731137    0.03349459952309
             2.8253937    0.23472694665786
             0.6401217    0.81375731841339
 s    1 1.00
             0.1612778                   1

10 0
 s    6 1.00
             3047.5249  0.0018347001629433
             457.36951    0.01403730124668
             103.94869   0.068842606114048
             29.210155    0.23218442062076
              9.286663    0.46794134155879
              3.163927    0.36231203217765
 s    3 1.00
             7.8682724   -0.11933240861517
             1.8812885   -0.16085421161283
             0.5442493     1.1434564825515
 s    1 1.00
             0.1687144                   1
 p    3 1.00
             7.8682724   0.068999095584993
             1.8812885    0.31642397975315
             0.5442493    0.74430825237435
 p    1 1.00
             0.1687144                   1
 d    1 1.00
                   0.8                   1

11 0
 s    3 1.00
             18.731137    0.03349459952309
             2.8253937    0.23472694665786
             0.6401217    0.81375731841339
 s    1 1.00
             0.1612778                   1

12 0
 s    6 1.00
             3047.5249  0.0018347001629433
             457.36951    0.01403730124668
             103.94869   0.068842606114048
             29.210155    0.23218442062076
              9.286663    0.46794134155879
              3.163927    0.36231203217765
 s    3 1.00
             7.8682724   -0.11933240861517
             1.8812885   -0.16085421161283
             0.5442493     1.1434564825515
 s    1 1.00
             0.1687144                   1
 p    3 1.00
             7.8682724   0.068999095584993
             1.8812885    0.31642397975315
             0.5442493    0.74430825237435
 p    1 1.00
             0.1687144                   1
 d    1 1.00
                   0.8                   1

13 0
 s    3 1.00
             18.731137    0.03349459952309
             2.8253937    0.23472694665786
             0.6401217    0.81375731841339
 s    1 1.00
             0.1612778                   1

14 0
 s    3 1.00
             18.731137    0.03349459952309
             2.8253937    0.23472694665786
             0.6401217    0.81375731841339
 s    1 1.00
             0.1612778                   1

15 0
 s    6 1.00
             3047.5249  0.0018347001629433
             457.36951    0.01403730124668
             103.94869   0.068842606114048
             29.210155    0.23218442062076
              9.286663    0.46794134155879
              3.163927    0.36231203217765
 s    3 1.00
             7.8682724   -0.11933240861517
             1.8812885   -0.16085421161283
             0.5442493     1.1434564825515
 s    1 1.00
             0.1687144                   1
 p    3 1.00
             7.8682724   0.068999095584993
             1.8812885    0.31642397975315
             0.5442493    0.74430825237435
 p    1 1.00
             0.1687144                   1
 d    1 1.00
                   0.8                   1

16 0
 s    6 1.00
             3047.5249  0.0018347001629433
             457.36951    0.01403730124668
             103.94869   0.068842606114048
             29.210155    0.23218442062076
              9.286663    0.46794134155879
              3.163927    0.36231203217765
 s    3 1.00
             7.8682724   -0.11933240861517
             1.8812885   -0.16085421161283
             0.5442493     1.1434564825515
 s    1 1.00
             0.1687144                   1
 p    3 1.00
             7.8682724   0.068999095584993
             1.8812885    0.31642397975315
             0.5442493    0.74430825237435
 p    1 1.00
             0.1687144                   1
 d    1 1.00
                   0.8                   1

17 0
 s    6 1.00
             3047.5249  0.0018347001629433
             457.36951    0.01403730124668
             103.94869   0.068842606114048
             29.210155    0.23218442062076
              9.286663    0.46794134155879
              3.163927    0.36231203217765
 s    3 1.00
             7.8682724   -0.11933240861517
             1.8812885   -0.16085421161283
             0.5442493     1.1434564825515
 s    1 1.00
             0.1687144                   1
 p    3 1.00
             7.8682724   0.068999095584993
             1.8812885    0.31642397975315
             0.5442493    0.74430825237435
 p    1 1.00
             0.1687144                   1
 d    1 1.00
                   0.8                   1

18 0
 s    6 1.00
             3047.5249  0.0018347001629433
             457.36951    0.01403730124668
             103.94869   0.068842606114048
             29.210155    0.23218442062076
              9.286663    0.46794134155879
              3.163927    0.36231203217765
 s    3 1.00
             7.8682724   -0.11933240861517
             1.8812885   -0.16085421161283
             0.5442493     1.1434564825515
 s    1 1.00
             0.1687144                   1
 p    3 1.00
             7.8682724   0.068999095584993
             1.8812885    0.31642397975315
             0.5442493    0.74430825237435
 p    1 1.00
             0.1687144                   1
 d    1 1.00
                   0.8                   1

19 0
 s    6 1.00
             3047.5249  0.0018347001629433
             457.36951    0.01403730124668
             103.94869   0.068842606114048
             29.210155    0.23218442062076
              9.286663    0.46794134155879
              3.163927    0.36231203217765
 s    3 1.00
             7.8682724   -0.11933240861517
             1.8812885   -0.16085421161283
             0.5442493     1.1434564825515
 s    1 1.00
             0.1687144                   1
 p    3 1.00
             7.8682724   0.068999095584993
             1.8812885    0.31642397975315
             0.5442493    0.74430825237435
 p    1 1.00
             0.1687144                   1
 d    1 1.00
                   0.8                   1

20 0
 s    6 1.00
             3047.5249  0.0018347001629433
             457.36951    0.01403730124668
             103.94869   0.068842606114048
             29.210155    0.23218442062076
              9.286663    0.46794134155879
              3.163927    0.36231203217765
 s    3 1.00
             7.8682724   -0.11933240861517
             1.8812885   -0.16085421161283
             0.5442493     1.1434564825515
 s    1 1.00
             0.1687144                   1
 p    3 1.00
             7.8682724   0.068999095584993
             1.8812885    0.31642397975315
             0.5442493    0.74430825237435
 p    1 1.00
             0.1687144                   1
 d    1 1.00
                   0.8                   1

21 0
 s    6 1.00
             3047.5249  0.0018347001629433
             457.36951    0.01403730124668
             103.94869   0.068842606114048
             29.210155    0.23218442062076
              9.286663    0.46794134155879
              3.163927    0.36231203217765
 s    3 1.00
             7.8682724   -0.11933240861517
             1.8812885   -0.16085421161283
             0.5442493     1.1434564825515
 s    1 1.00
             0.1687144                   1
 p    3 1.00
             7.8682724   0.068999095584993
             1.8812885    0.31642397975315
             0.5442493    0.74430825237435
 p    1 1.00
             0.1687144                   1
 d    1 1.00
                   0.8                   1

22 0
 s    3 1.00
             18.731137    0.03349459952309
             2.8253937    0.23472694665786
             0.6401217    0.81375731841339
 s    1 1.00
             0.1612778                   1

23 0
 s    3 1.00
             18.731137    0.03349459952309
             2.8253937    0.23472694665786
             0.6401217    0.81375731841339
 s    1 1.00
             0.1612778                   1

24 0
 s    3 1.00
             18.731137    0.03349459952309
             2.8253937    0.23472694665786
             0.6401217    0.81375731841339
 s    1 1.00
             0.1612778                   1

25 0
 s    3 1.00
             18.731137    0.03349459952309
             2.8253937    0.23472694665786
             0.6401217    0.81375731841339
 s    1 1.00
             0.1612778                   1

26 0
 s    3 1.00
             18.731137    0.03349459952309
             2.8253937    0.23472694665786
             0.6401217    0.81375731841339
 s    1 1.00
             0.1612778                   1

27 0
 s    3 1.00
             18.731137    0.03349459952309
             2.8253937    0.23472694665786
             0.6401217    0.81375731841339
 s    1 1.00
             0.1612778                   1

28 0
 s    3 1.00
             18.731137    0.03349459952309
             2.8253937    0.23472694665786
             0.6401217    0.81375731841339
 s    1 1.00
             0.1612778                   1

29 0
 s    3 1.00
             18.731137    0.03349459952309
             2.8253937    0.23472694665786
             0.6401217    0.81375731841339
 s    1 1.00
             0.1612778                   1

30 0
 s    3 1.00
             18.731137    0.03349459952309
             2.8253937    0.23472694665786
             0.6401217    0.81375731841339
 s    1 1.00
             0.1612778                   1

31 0
 s    3 1.00
             18.731137    0.03349459952309
             2.8253937    0.23472694665786
             0.6401217    0.81375731841339
 s    1 1.00
             0.1612778                   1

32 0
 s    3 1.00
             18.731137    0.03349459952309
             2.8253937    0.23472694665786
             0.6401217    0.81375731841339
 s    1 1.00
             0.1612778                   1

33 0
 s    6 1.00
             3047.5249  0.0018347001629433
             457.36951    0.01403730124668
             103.94869   0.068842606114048
             29.210155    0.23218442062076
              9.286663    0.46794134155879
              3.163927    0.36231203217765
 s    3 1.00
             7.8682724   -0.11933240861517
             1.8812885   -0.16085421161283
             0.5442493     1.1434564825515
 s    1 1.00
             0.1687144                   1
 p    3 1.00
             7.8682724   0.068999095584993
             1.8812885    0.31642397975315
             0.5442493    0.74430825237435
 p    1 1.00
             0.1687144                   1
 d    1 1.00
                   0.8                   1

34 0
 s    6 1.00
             3047.5249  0.0018347001629433
             457.36951    0.01403730124668
             103.94869   0.068842606114048
             29.210155    0.23218442062076
              9.286663    0.46794134155879
              3.163927    0.36231203217765
 s    3 1.00
             7.8682724   -0.11933240861517
             1.8812885   -0.16085421161283
             0.5442493     1.1434564825515
 s    1 1.00
             0.1687144                   1
 p    3 1.00
             7.8682724   0.068999095584993
             1.8812885    0.31642397975315
             0.5442493    0.74430825237435
 p    1 1.00
             0.1687144                   1
 d    1 1.00
                   0.8                   1

35 0
 s    3 1.00
             18.731137    0.03349459952309
             2.8253937    0.23472694665786
             0.6401217    0.81375731841339
 s    1 1.00
             0.1612778                   1

36 0
 s    6 1.00
             3047.5249  0.0018347001629433
             457.36951    0.01403730124668
             103.94869   0.068842606114048
             29.210155    0.23218442062076
              9.286663    0.46794134155879
              3.163927    0.36231203217765
 s    3 1.00
             7.8682724   -0.11933240861517
             1.8812885   -0.16085421161283
             0.5442493     1.1434564825515
 s    1 1.00
             0.1687144                   1
 p    3 1.00
             7.8682724   0.068999095584993
             1.8812885    0.31642397975315
             0.5442493    0.74430825237435
 p    1 1.00
             0.1687144                   1
 d    1 1.00
                   0.8                   1

37 0
 s    3 1.00
             18.731137    0.03349459952309
             2.8253937    0.23472694665786
             0.6401217    0.81375731841339
 s    1 1.00
             0.1612778                   1

38 0
 s    3 1.00
             18.731137    0.03349459952309
             2.8253937    0.23472694665786
             0.6401217    0.81375731841339
 s    1 1.00
             0.1612778                   1

39 0
 s    6 1.00
             3047.5249  0.0018347001629433
             457.36951    0.01403730124668
             103.94869   0.068842606114048
             29.210155    0.23218442062076
              9.286663    0.46794134155879
              3.163927    0.36231203217765
 s    3 1.00
             7.8682724   -0.11933240861517
             1.8812885   -0.16085421161283
             0.5442493     1.1434564825515
 s    1 1.00
             0.1687144                   1
 p    3 1.00
             7.8682724   0.068999095584993
             1.8812885    0.31642397975315
             0.5442493    0.74430825237435
 p    1 1.00
             0.1687144                   1
 d    1 1.00
                   0.8                   1

40 0
 s    6 1.00
             3047.5249  0.0018347001629433
             457.36951    0.01403730124668
             103.94869   0.068842606114048
             29.210155    0.23218442062076
              9.286663    0.46794134155879
              3.163927    0.36231203217765
 s    3 1.00
             7.8682724   -0.11933240861517
             1.8812885   -0.16085421161283
             0.5442493     1.1434564825515
 s    1 1.00
             0.1687144                   1
 p    3 1.00
             7.8682724   0.068999095584993
             1.8812885    0.31642397975315
             0.5442493    0.74430825237435
 p    1 1.00
             0.1687144                   1
 d    1 1.00
                   0.8                   1

41 0
 s    3 1.00
             18.731137    0.03349459952309
             2.8253937    0.23472694665786
             0.6401217    0.81375731841339
 s    1 1.00
             0.1612778                   1

42 0
 s    6 1.00
             5484.6717   0.001831099805527
             825.23495   0.013950098518422
             188.04696    0.06844509273075
               52.9645    0.23271427528445
              16.89757    0.47019295006289
             5.7996353    0.35852086192309
 s    3 1.00
             15.539616   -0.11077750382508
             3.5999336   -0.14802630511126
             1.0137618     1.1307670390447
 s    1 1.00
             0.2700058                   1
 p    3 1.00
             15.539616   0.070874299543311
             3.5999336    0.33975279781076
             1.0137618    0.72715859531445
 p    1 1.00
             0.2700058                   1
 d    1 1.00
                   0.8                   1

43 0
 s    3 1.00
             18.731137    0.03349459952309
             2.8253937    0.23472694665786
             0.6401217    0.81375731841339
 s    1 1.00
             0.1612778                   1

[5d]
[7f]
[9g]

[MO]
 Sym= A
 Ene=               0
 Spin= Alpha
 Occup=    1.00000
   1    -0.0027382799494226
   2    -4.3411756809955e-05
   3    -0.00050169768258277
   4    1.8600628256315e-05
   5    2.5407860629741e-05
   6    -1.6112612642552e-05
   7    -2.5285373503757e-05
   8    -0.00033796340857532
   9    0.0013331340262514
  10    -1.9153136101283e-05
  11    -4.4407649152144e-05
  12    -3.9348880937663e-06
  13    -1.4008806990163e-05
  14    1.4114808994324e-06
  15    6.6549409857155e-05
  16    -0.00011266922240603
  17    -0.0058910824658601
  18    0.00010128375295726
  19    -0.00031676781329515
  20    -6.5703309956048e-05
  21    3.5967672134997e-06
  22    -0.00020061034487065
  23    0.00059491505315647
  24    -8.8360904327594e-05
  25    0.0013289186494228
  26    6.3287975788232e-05
  27    -7.9492634600288e-07
  28    -1.0574434927653e-05
  29    -9.8716701373763e-05
  30    -9.9749612631742e-05
  31    0.00015469984298671
  32    0.00053497941164076
  33     -0.01542048956107
  34    0.00099209033346377
  35    -0.0070842934032959
  36    -0.00033382373501553
  37    -3.5725817349114e-05
  38    -0.0011508769048436
  39    -0.00016707294775351
  40    -0.00042488585805896
  41    0.0039792868061082
  42    0.00098461965191712
  43    0.00085411573642622
  44    0.0001862321174093
  45    0.00020279283057085
  46    9.4581688047153e-05
  47    0.00042704234480194
  48    0.00057432591742506
  49     -0.99509338272407
  50    -0.035655481621533
  51     0.028445230874307
  52    -0.00045723089866208
  53    -0.00014866802332101
  54    -0.00033452733621672
  55    0.0031692281267607
  56    0.0013335027028969
  57    0.00030064476403249
  58    -0.00084995806399328
  59    0.00032281619517239
  60    0.00031434444083601
  61    -0.00020802094536095
  62    -0.00027379959702185
  63    0.0010546403315538
  64    -0.0041545328009349
  65    7.2917741101251e-07
  66    1.0521770077134e-06
  67    -5.1573271082014e-08
  68    7.6187779194003e-07
  69    -2.7570964653907e-06
  70    -4.5397483543954e-07
  71    8.7279699377951e-07
  72    -4.1962796936846e-08
  73    -2.2706743094988e-06
  74    -3.460319993459e-06
  75    -1.2999314448216e-06
  76    6.6066130129666e-08
  77    1.3342447939981e-07
  78    -1.3197758211059e-07
  79    -1.4173154670189e-07
  80    1.3275911113318e-07
  81    -4.6850553100684e-07
  82    -9.573138189274e-07
  83    -3.1841436615524e-07
  84    1.2025046458354e-06
  85    2.2790696197476e-05
  86    -1.434362736044e-06
  87    3.547683749531e-07
  88    -2.9302304499431e-06
  89    -5.901647986333e-06
  90    1.0373082399036e-05
  91    -5.4115643883526e-06
  92    -3.9815774501809e-07
  93    5.1666485297725e-07
  94    -5.1956671849915e-07
  95    1.1273399944339e-08
  96    3.5347926125962e-07
  97    -8.9246935256589e-07
  98    -1.6763470264242e-06
  99    -4.7114670285288e-07
 100    2.145434344289e-06
 101    6.3462877625893e-07
 102    -7.4362863783145e-07
 103    -1.4533550952597e-05
 104    5.7586620085055e-07
 105    -9.4650161070939e-07
 106    2.1159013084697e-06
 107    3.7549798756261e-05
 108    -3.4598984064931e-05
 109    -5.6340908558968e-05
 110    1.5504219145068e-06
 111    7.1314692051538e-07
 112    -3.9225526639137e-07
 113    -1.1182708757528e-07
 114    1.0505808268921e-06
 115    1.3296965705232e-06
 116    8.2749271922351e-06
 117    -6.5429685580518e-05
 118    8.2162167424321e-07
 119    -4.4356941357449e-07
 120    -2.0269659323552e-06
 121    1.8142893751943e-05
 122    -1.3238488893497e-05
 123    -6.7559415397716e-06
 124    1.1378514239676e-07
 125    8.0702352304876e-07
 126    -2.594681554024e-07
 127    -6.7041017814983e-07
 128    6.5611752698672e-07
 129    -1.418361581491e-08
 130    1.5815686337094e-05
 131    -7.9058174967011e-05
 132    -5.0619047524228e-06
 133    -1.4749005527166e-06
 134    -1.1866816660111e-05
 135    3.7384429175186e-05
 136    1.6591031305819e-06
 137    0.0001345760597521
 138    -3.4076145942815e-06
 139    -2.7231736075284e-06
 140    -2.2419038722482e-07
 141    -7.6042677979326e-07
 142    -5.3074114820861e-07
 143    1.0367908495703e-06
 144    8.904785570355e-06
 145    -4.0555884921346e-05
 146    -1.252751174586e-06
 147    -3.4575567376457e-07
 148    -2.2393371735841e-06
 149    -1.6738942588128e-05
 150    7.6485219316585e-06
 151    2.4349614619879e-05
 152    1.7924477304443e-06
 153    1.2679074812377e-06
 154    4.6397350858624e-07
 155    -1.2196269284254e-06
 156    1.5277163275653e-06
 157    -4.6617899818897e-07
 158    -2.4440912719092e-06
 159    9.2669875776695e-06
 160    -1.1422518978658e-06
 161    -4.6936370961376e-07
 162    3.1864412926965e-07
 163    1.1338007179269e-05
 164    -4.5665748117741e-06
 165    -5.6026229105369e-06
 166    -1.1758673763502e-06
 167    6.0740763138116e-07
 168    1.7936553313099e-07
 169    -1.4912393595583e-07
 170    -4.4254106492136e-07
 171    9.633731330118e-08
 172    2.7304963336446e-07
 173    8.9366307683673e-06
 174    1.3809173947502e-06
 175    2.5697212443617e-07
 176    -2.5872896016435e-06
 177    -5.8994921659387e-06
 178    -2.6467182943235e-06
 179    -8.548998188815e-07
 180    2.284504624086e-09
 181    -7.3808257165175e-07
 182    -3.1579826466089e-07
 183    5.0114023013752e-07
 184    -4.9976647315064e-07
 185    3.9125210023598e-07
 186    6.3880148871211e-06
 187    -1.4470541125366e-05
 188    3.6048057068262e-07
 189    8.1564816449718e-08
 190    -2.0903779946777e-06
 191    -8.6313449210462e-07
 192    1.0843018002937e-06
 193     1.26623141775e-05
 194    -6.3730364768739e-07
 195    -1.876418806628e-07
 196    -5.9678143326816e-07
 197    -1.6935933948906e-07
 198    1.2857977907953e-07
 199    1.5791718155528e-06
 200    1.5554976175266e-06
 201    8.7332336040106e-08
 202    -5.2640974073481e-06
 203    2.0811940784339e-06
 204    -2.5399555944317e-06
 205    1.0240939020183e-06
 206    6.8353868033662e-06
 207    -1.4457136099252e-07
 208    9.819747628529e-06
 209    -2.0015748067918e-06
 210    3.5020423187078e-06
 211    -1.6382767787929e-06
 212    -4.3331521822467e-06
 213    6.1002973155637e-08
 214    4.3705990915972e-06
 215    2.6457621097476e-06
 216    -1.1250717102492e-05
 217    -1.0317249307569e-06
 218    -3.6485559392699e-06
 219    -7.9005354207717e-07
 220    -8.1815952387613e-07
 221    7.8482951658307e-06
 222    1.284604415589e-05
 223    -0.000107360793841
 224    -2.7431736459752e-06
 225    -2.7857821568258e-06
 226    9.1138820146349e-06
 227    -3.0865484419266e-05
 228    -5.2569440089213e-05
 229    0.00021983675434406
 230    -1.5307574222139e-07
 231     9.24691582748e-06
 232    3.5715799265431e-06
 233    -5.3707601707726e-06
 234    -4.5297618027595e-06
 235    -5.3581645976189e-06
 236    3.9649797243968e-05
 237    0.00011688878632572
 238    1.062280765322e-05
 239    1.1465326397548e-05
 240    -4.1270270806734e-05
 241    -4.1953423503526e-06
 242    -3.6558685234749e-05
 243    0.00015940011249757
 244    3.3836484380339e-07
 245    -1.2756160949727e-05
 246    -7.2002757534244e-07
 247    -6.1489097945562e-06
 248    2.2275470541766e-07
 249    1.5817771471724e-06
 250    3.9094768711481e-06
 251    3.3668142102097e-05
 252    9.3576648870104e-05
 253    -0.00065048688336677
 254    -3.2372362458112e-05
 255    -1.5354648830658e-05
 256    1.6229184745285e-05
 257    -0.00045480260103485
 258    -0.00016746156041082
 259    0.00041618074003466
 260    -3.075620571494e-06
 261    2.6691667453173e-05
 262    8.1073619169806e-06
 263    -1.2127506435952e-05
 264    -8.7683298005712e-06
 265    2.1385772242528e-05
 266    -2.7762951040599e-05
 267    5.9799268981128e-05
 268    -0.00017622424631172
 269    0.00019214543639864
 270    -0.00045570173082088
 271    -0.010403345356386
 272    -0.0025417197877943
 273    -0.001368479632406
 274    0.0029337241670045
 275    -0.00040699927559327
 276    0.00014749927110459
 277    -0.0033347862965869
 278    0.00066657625429778
 279    -0.0010453378286583
 280    -0.00059511809026514