[Molden Format]
made by pyscf v[2.0.1]
[Atoms] (AU)
C   1   6     0.69100024066471     0.64692934207205    -3.48223131169301
H   2   1     2.68052439830868     1.13355088658700    -3.25784032593313
C   3   6    -0.36286361513219     0.85440132524594    -5.97030179418974
H   4   1    -2.35448549047279     0.36322488579172    -6.17995817793143
C   5   6     0.93697958957450     1.61209284601821    -8.05828437677121
H   6   1     1.06549067678056     3.62267689696451    -8.48487489511106
C   7   6     2.16736557798100    -0.10534186648568    -9.75912299477448
H   8   1     2.02320928491733    -2.11383137749881    -9.30645195914250
H   9   1     1.55630230933075    -1.92953025305990    12.99630010416247
C   10   6     0.75233899775814    -2.21270439606481    11.10705728102219
H   11   1    -0.43433408177274    -3.90944857546550    11.22216085340412
C   12   6     2.86362581178706    -2.63237380607947     9.17926416456045
H   13   1     4.39038949912609    -1.24955421540245     9.49899813497433
H   14   1     3.74629220191363    -4.48798724300892     9.47414880959024
C   15   6     2.02478325613682    -2.42177285709634     6.44560829588644
C   16   6     3.88048732735477    -3.58795445234514     4.61402886975252
C   17   6    -0.18412382258602    -1.30464291234259     5.76021113872346
C   18   6    -2.10044360464350    -0.26837831858460     7.71610340967100
C   19   6    -3.08956938670431     2.35282328359417     6.88693925039594
C   20   6    -4.37372924086464    -2.09766595989678     7.93610724222001
C   21   6    -0.83850430601230     0.06372213486173    10.33002307638377
H   22   1     0.38411922151109     1.74281358582432    10.27380136542181
H   23   1    -2.30980003007874     0.45460143924521    11.73986301809809
H   24   1     4.58527064644668    -5.38706904487420     5.36778158031719
H   25   1     5.54944938085014    -2.37631462192748     4.35398898413318
H   26   1     3.06633019150423    -3.94118377050688     2.75255466040884
H   27   1    -4.17727778763735     2.26573369139522     5.12914900961283
H   28   1    -1.52662344944051     3.68001877445626     6.59540397144508
H   29   1    -4.32916174397830     3.13643051467482     8.35225460090378
H   30   1    -5.32329548508442    -2.36691813602939     6.11583672749896
H   31   1    -5.77989366602257    -1.33896741843465     9.25748940450990
H   32   1    -3.79310905208926    -3.96389819310853     8.61386170102686
C   33   6    -1.01100794811226    -1.06331657314144     3.11929490449947
C   34   6     0.37686231036534    -0.33275864505552     1.09165013605873
H   35   1    -3.01671213906703    -1.40297922279997     2.77827895090944
C   36   6    -0.64382707979370    -0.11591880174385    -1.42063131251064
H   37   1     2.35569259782137     0.17174499283897     1.33641070251401
H   38   1    -2.63317482980319    -0.60229203511219    -1.66119700387645
C   39   6     3.47875288242203     0.56169257871714   -11.85961387583028
C   40   6     4.66516051155728    -1.33401759756945   -13.47384510134906
H   41   1     3.69428385946791     2.52875803282145   -12.41815504578381
O   42   8     5.86788117255002    -0.86880199432758   -15.38639878207248
H   43   1     4.39675898316744    -3.32256790318547   -12.83056660829343
[GTO]
1 0
 s    6 1.00
             3047.5249  0.0018347001629433
             457.36951    0.01403730124668
             103.94869   0.068842606114048
             29.210155    0.23218442062076
              9.286663    0.46794134155879
              3.163927    0.36231203217765
 s    3 1.00
             7.8682724   -0.11933240861517
             1.8812885   -0.16085421161283
             0.5442493     1.1434564825515
 s    1 1.00
             0.1687144                   1
 p    3 1.00
             7.8682724   0.068999095584993
             1.8812885    0.31642397975315
             0.5442493    0.74430825237435
 p    1 1.00
             0.1687144                   1
 d    1 1.00
                   0.8                   1

2 0
 s    3 1.00
             18.731137    0.03349459952309
             2.8253937    0.23472694665786
             0.6401217    0.81375731841339
 s    1 1.00
             0.1612778                   1

3 0
 s    6 1.00
             3047.5249  0.0018347001629433
             457.36951    0.01403730124668
             103.94869   0.068842606114048
             29.210155    0.23218442062076
              9.286663    0.46794134155879
              3.163927    0.36231203217765
 s    3 1.00
             7.8682724   -0.11933240861517
             1.8812885   -0.16085421161283
             0.5442493     1.1434564825515
 s    1 1.00
             0.1687144                   1
 p    3 1.00
             7.8682724   0.068999095584993
             1.8812885    0.31642397975315
             0.5442493    0.74430825237435
 p    1 1.00
             0.1687144                   1
 d    1 1.00
                   0.8                   1

4 0
 s    3 1.00
             18.731137    0.03349459952309
             2.8253937    0.23472694665786
             0.6401217    0.81375731841339
 s    1 1.00
             0.1612778                   1

5 0
 s    6 1.00
             3047.5249  0.0018347001629433
             457.36951    0.01403730124668
             103.94869   0.068842606114048
             29.210155    0.23218442062076
              9.286663    0.46794134155879
              3.163927    0.36231203217765
 s    3 1.00
             7.8682724   -0.11933240861517
             1.8812885   -0.16085421161283
             0.5442493     1.1434564825515
 s    1 1.00
             0.1687144                   1
 p    3 1.00
             7.8682724   0.068999095584993
             1.8812885    0.31642397975315
             0.5442493    0.74430825237435
 p    1 1.00
             0.1687144                   1
 d    1 1.00
                   0.8                   1

6 0
 s    3 1.00
             18.731137    0.03349459952309
             2.8253937    0.23472694665786
             0.6401217    0.81375731841339
 s    1 1.00
             0.1612778                   1

7 0
 s    6 1.00
             3047.5249  0.0018347001629433
             457.36951    0.01403730124668
             103.94869   0.068842606114048
             29.210155    0.23218442062076
              9.286663    0.46794134155879
              3.163927    0.36231203217765
 s    3 1.00
             7.8682724   -0.11933240861517
             1.8812885   -0.16085421161283
             0.5442493     1.1434564825515
 s    1 1.00
             0.1687144                   1
 p    3 1.00
             7.8682724   0.068999095584993
             1.8812885    0.31642397975315
             0.5442493    0.74430825237435
 p    1 1.00
             0.1687144                   1
 d    1 1.00
                   0.8                   1

8 0
 s    3 1.00
             18.731137    0.03349459952309
             2.8253937    0.23472694665786
             0.6401217    0.81375731841339
 s    1 1.00
             0.1612778                   1

9 0
 s    3 1.00
             18.731137    0.03349459952309
             2.8253937    0.23472694665786
             0.6401217    0.81375731841339
 s    1 1.00
             0.1612778                   1

10 0
 s    6 1.00
             3047.5249  0.0018347001629433
             457.36951    0.01403730124668
             103.94869   0.068842606114048
             29.210155    0.23218442062076
              9.286663    0.46794134155879
              3.163927    0.36231203217765
 s    3 1.00
             7.8682724   -0.11933240861517
             1.8812885   -0.16085421161283
             0.5442493     1.1434564825515
 s    1 1.00
             0.1687144                   1
 p    3 1.00
             7.8682724   0.068999095584993
             1.8812885    0.31642397975315
             0.5442493    0.74430825237435
 p    1 1.00
             0.1687144                   1
 d    1 1.00
                   0.8                   1

11 0
 s    3 1.00
             18.731137    0.03349459952309
             2.8253937    0.23472694665786
             0.6401217    0.81375731841339
 s    1 1.00
             0.1612778                   1

12 0
 s    6 1.00
             3047.5249  0.0018347001629433
             457.36951    0.01403730124668
             103.94869   0.068842606114048
             29.210155    0.23218442062076
              9.286663    0.46794134155879
              3.163927    0.36231203217765
 s    3 1.00
             7.8682724   -0.11933240861517
             1.8812885   -0.16085421161283
             0.5442493     1.1434564825515
 s    1 1.00
             0.1687144                   1
 p    3 1.00
             7.8682724   0.068999095584993
             1.8812885    0.31642397975315
             0.5442493    0.74430825237435
 p    1 1.00
             0.1687144                   1
 d    1 1.00
                   0.8                   1

13 0
 s    3 1.00
             18.731137    0.03349459952309
             2.8253937    0.23472694665786
             0.6401217    0.81375731841339
 s    1 1.00
             0.1612778                   1

14 0
 s    3 1.00
             18.731137    0.03349459952309
             2.8253937    0.23472694665786
             0.6401217    0.81375731841339
 s    1 1.00
             0.1612778                   1

15 0
 s    6 1.00
             3047.5249  0.0018347001629433
             457.36951    0.01403730124668
             103.94869   0.068842606114048
             29.210155    0.23218442062076
              9.286663    0.46794134155879
              3.163927    0.36231203217765
 s    3 1.00
             7.8682724   -0.11933240861517
             1.8812885   -0.16085421161283
             0.5442493     1.1434564825515
 s    1 1.00
             0.1687144                   1
 p    3 1.00
             7.8682724   0.068999095584993
             1.8812885    0.31642397975315
             0.5442493    0.74430825237435
 p    1 1.00
             0.1687144                   1
 d    1 1.00
                   0.8                   1

16 0
 s    6 1.00
             3047.5249  0.0018347001629433
             457.36951    0.01403730124668
             103.94869   0.068842606114048
             29.210155    0.23218442062076
              9.286663    0.46794134155879
              3.163927    0.36231203217765
 s    3 1.00
             7.8682724   -0.11933240861517
             1.8812885   -0.16085421161283
             0.5442493     1.1434564825515
 s    1 1.00
             0.1687144                   1
 p    3 1.00
             7.8682724   0.068999095584993
             1.8812885    0.31642397975315
             0.5442493    0.74430825237435
 p    1 1.00
             0.1687144                   1
 d    1 1.00
                   0.8                   1

17 0
 s    6 1.00
             3047.5249  0.0018347001629433
             457.36951    0.01403730124668
             103.94869   0.068842606114048
             29.210155    0.23218442062076
              9.286663    0.46794134155879
              3.163927    0.36231203217765
 s    3 1.00
             7.8682724   -0.11933240861517
             1.8812885   -0.16085421161283
             0.5442493     1.1434564825515
 s    1 1.00
             0.1687144                   1
 p    3 1.00
             7.8682724   0.068999095584993
             1.8812885    0.31642397975315
             0.5442493    0.74430825237435
 p    1 1.00
             0.1687144                   1
 d    1 1.00
                   0.8                   1

18 0
 s    6 1.00
             3047.5249  0.0018347001629433
             457.36951    0.01403730124668
             103.94869   0.068842606114048
             29.210155    0.23218442062076
              9.286663    0.46794134155879
              3.163927    0.36231203217765
 s    3 1.00
             7.8682724   -0.11933240861517
             1.8812885   -0.16085421161283
             0.5442493     1.1434564825515
 s    1 1.00
             0.1687144                   1
 p    3 1.00
             7.8682724   0.068999095584993
             1.8812885    0.31642397975315
             0.5442493    0.74430825237435
 p    1 1.00
             0.1687144                   1
 d    1 1.00
                   0.8                   1

19 0
 s    6 1.00
             3047.5249  0.0018347001629433
             457.36951    0.01403730124668
             103.94869   0.068842606114048
             29.210155    0.23218442062076
              9.286663    0.46794134155879
              3.163927    0.36231203217765
 s    3 1.00
             7.8682724   -0.11933240861517
             1.8812885   -0.16085421161283
             0.5442493     1.1434564825515
 s    1 1.00
             0.1687144                   1
 p    3 1.00
             7.8682724   0.068999095584993
             1.8812885    0.31642397975315
             0.5442493    0.74430825237435
 p    1 1.00
             0.1687144                   1
 d    1 1.00
                   0.8                   1

20 0
 s    6 1.00
             3047.5249  0.0018347001629433
             457.36951    0.01403730124668
             103.94869   0.068842606114048
             29.210155    0.23218442062076
              9.286663    0.46794134155879
              3.163927    0.36231203217765
 s    3 1.00
             7.8682724   -0.11933240861517
             1.8812885   -0.16085421161283
             0.5442493     1.1434564825515
 s    1 1.00
             0.1687144                   1
 p    3 1.00
             7.8682724   0.068999095584993
             1.8812885    0.31642397975315
             0.5442493    0.74430825237435
 p    1 1.00
             0.1687144                   1
 d    1 1.00
                   0.8                   1

21 0
 s    6 1.00
             3047.5249  0.0018347001629433
             457.36951    0.01403730124668
             103.94869   0.068842606114048
             29.210155    0.23218442062076
              9.286663    0.46794134155879
              3.163927    0.36231203217765
 s    3 1.00
             7.8682724   -0.11933240861517
             1.8812885   -0.16085421161283
             0.5442493     1.1434564825515
 s    1 1.00
             0.1687144                   1
 p    3 1.00
             7.8682724   0.068999095584993
             1.8812885    0.31642397975315
             0.5442493    0.74430825237435
 p    1 1.00
             0.1687144                   1
 d    1 1.00
                   0.8                   1

22 0
 s    3 1.00
             18.731137    0.03349459952309
             2.8253937    0.23472694665786
             0.6401217    0.81375731841339
 s    1 1.00
             0.1612778                   1

23 0
 s    3 1.00
             18.731137    0.03349459952309
             2.8253937    0.23472694665786
             0.6401217    0.81375731841339
 s    1 1.00
             0.1612778                   1

24 0
 s    3 1.00
             18.731137    0.03349459952309
             2.8253937    0.23472694665786
             0.6401217    0.81375731841339
 s    1 1.00
             0.1612778                   1

25 0
 s    3 1.00
             18.731137    0.03349459952309
             2.8253937    0.23472694665786
             0.6401217    0.81375731841339
 s    1 1.00
             0.1612778                   1

26 0
 s    3 1.00
             18.731137    0.03349459952309
             2.8253937    0.23472694665786
             0.6401217    0.81375731841339
 s    1 1.00
             0.1612778                   1

27 0
 s    3 1.00
             18.731137    0.03349459952309
             2.8253937    0.23472694665786
             0.6401217    0.81375731841339
 s    1 1.00
             0.1612778                   1

28 0
 s    3 1.00
             18.731137    0.03349459952309
             2.8253937    0.23472694665786
             0.6401217    0.81375731841339
 s    1 1.00
             0.1612778                   1

29 0
 s    3 1.00
             18.731137    0.03349459952309
             2.8253937    0.23472694665786
             0.6401217    0.81375731841339
 s    1 1.00
             0.1612778                   1

30 0
 s    3 1.00
             18.731137    0.03349459952309
             2.8253937    0.23472694665786
             0.6401217    0.81375731841339
 s    1 1.00
             0.1612778                   1

31 0
 s    3 1.00
             18.731137    0.03349459952309
             2.8253937    0.23472694665786
             0.6401217    0.81375731841339
 s    1 1.00
             0.1612778                   1

32 0
 s    3 1.00
             18.731137    0.03349459952309
             2.8253937    0.23472694665786
             0.6401217    0.81375731841339
 s    1 1.00
             0.1612778                   1

33 0
 s    6 1.00
             3047.5249  0.0018347001629433
             457.36951    0.01403730124668
             103.94869   0.068842606114048
             29.210155    0.23218442062076
              9.286663    0.46794134155879
              3.163927    0.36231203217765
 s    3 1.00
             7.8682724   -0.11933240861517
             1.8812885   -0.16085421161283
             0.5442493     1.1434564825515
 s    1 1.00
             0.1687144                   1
 p    3 1.00
             7.8682724   0.068999095584993
             1.8812885    0.31642397975315
             0.5442493    0.74430825237435
 p    1 1.00
             0.1687144                   1
 d    1 1.00
                   0.8                   1

34 0
 s    6 1.00
             3047.5249  0.0018347001629433
             457.36951    0.01403730124668
             103.94869   0.068842606114048
             29.210155    0.23218442062076
              9.286663    0.46794134155879
              3.163927    0.36231203217765
 s    3 1.00
             7.8682724   -0.11933240861517
             1.8812885   -0.16085421161283
             0.5442493     1.1434564825515
 s    1 1.00
             0.1687144                   1
 p    3 1.00
             7.8682724   0.068999095584993
             1.8812885    0.31642397975315
             0.5442493    0.74430825237435
 p    1 1.00
             0.1687144                   1
 d    1 1.00
                   0.8                   1

35 0
 s    3 1.00
             18.731137    0.03349459952309
             2.8253937    0.23472694665786
             0.6401217    0.81375731841339
 s    1 1.00
             0.1612778                   1

36 0
 s    6 1.00
             3047.5249  0.0018347001629433
             457.36951    0.01403730124668
             103.94869   0.068842606114048
             29.210155    0.23218442062076
              9.286663    0.46794134155879
              3.163927    0.36231203217765
 s    3 1.00
             7.8682724   -0.11933240861517
             1.8812885   -0.16085421161283
             0.5442493     1.1434564825515
 s    1 1.00
             0.1687144                   1
 p    3 1.00
             7.8682724   0.068999095584993
             1.8812885    0.31642397975315
             0.5442493    0.74430825237435
 p    1 1.00
             0.1687144                   1
 d    1 1.00
                   0.8                   1

37 0
 s    3 1.00
             18.731137    0.03349459952309
             2.8253937    0.23472694665786
             0.6401217    0.81375731841339
 s    1 1.00
             0.1612778                   1

38 0
 s    3 1.00
             18.731137    0.03349459952309
             2.8253937    0.23472694665786
             0.6401217    0.81375731841339
 s    1 1.00
             0.1612778                   1

39 0
 s    6 1.00
             3047.5249  0.0018347001629433
             457.36951    0.01403730124668
             103.94869   0.068842606114048
             29.210155    0.23218442062076
              9.286663    0.46794134155879
              3.163927    0.36231203217765
 s    3 1.00
             7.8682724   -0.11933240861517
             1.8812885   -0.16085421161283
             0.5442493     1.1434564825515
 s    1 1.00
             0.1687144                   1
 p    3 1.00
             7.8682724   0.068999095584993
             1.8812885    0.31642397975315
             0.5442493    0.74430825237435
 p    1 1.00
             0.1687144                   1
 d    1 1.00
                   0.8                   1

40 0
 s    6 1.00
             3047.5249  0.0018347001629433
             457.36951    0.01403730124668
             103.94869   0.068842606114048
             29.210155    0.23218442062076
              9.286663    0.46794134155879
              3.163927    0.36231203217765
 s    3 1.00
             7.8682724   -0.11933240861517
             1.8812885   -0.16085421161283
             0.5442493     1.1434564825515
 s    1 1.00
             0.1687144                   1
 p    3 1.00
             7.8682724   0.068999095584993
             1.8812885    0.31642397975315
             0.5442493    0.74430825237435
 p    1 1.00
             0.1687144                   1
 d    1 1.00
                   0.8                   1

41 0
 s    3 1.00
             18.731137    0.03349459952309
             2.8253937    0.23472694665786
             0.6401217    0.81375731841339
 s    1 1.00
             0.1612778                   1

42 0
 s    6 1.00
             5484.6717   0.001831099805527
             825.23495   0.013950098518422
             188.04696    0.06844509273075
               52.9645    0.23271427528445
              16.89757    0.47019295006289
             5.7996353    0.35852086192309
 s    3 1.00
             15.539616   -0.11077750382508
             3.5999336   -0.14802630511126
             1.0137618     1.1307670390447
 s    1 1.00
             0.2700058                   1
 p    3 1.00
             15.539616   0.070874299543311
             3.5999336    0.33975279781076
             1.0137618    0.72715859531445
 p    1 1.00
             0.2700058                   1
 d    1 1.00
                   0.8                   1

43 0
 s    3 1.00
             18.731137    0.03349459952309
             2.8253937    0.23472694665786
             0.6401217    0.81375731841339
 s    1 1.00
             0.1612778                   1

[5d]
[7f]
[9g]

[MO]
 Sym= A
 Ene=               0
 Spin= Alpha
 Occup=    1.00000
   1     0.018050033365209
   2    -0.00092618234427927
   3    0.0069225740766017
   4    0.00035137272903157
   5    -0.00012112300759498
   6    0.0011608663331383
   7    0.00081910579120022
   8    0.0012419389073802
   9    -0.0055149532060357
  10    -0.00091185803478234
  11    -0.00086330074840127
  12    0.00014570084076707
  13    -0.00019636352883561
  14    4.5304287993085e-05
  15    -0.00044951656045387
  16    -0.00081884994090996
  17      0.99491043620691
  18     0.036812516146076
  19    -0.028623010729522
  20    0.00091501246309391
  21    0.00015767109000797
  22    -0.00060855988685464
  23    -0.0035865256773825
  24    -0.0010715322431385
  25    -0.00079066498238436
  26    0.00077433192076449
  27    -0.00029890555723439
  28    -0.00034320833292081
  29    0.00029923042897787
  30    0.00019905670978656
  31    -0.0011176581212016
  32    0.0038811624153597
  33     0.013348681690818
  34    -0.00022517243388947
  35    0.0010358197360266
  36    0.00082715783430131
  37    0.00030666758287384
  38    -0.0011185278146874
  39    -0.0022606760086143
  40    0.0035210339242757
  41     0.004181852304977
  42    -0.00060833934920743
  43    0.0011722082819839
  44    0.00044812574999089
  45    -0.00033525892344425
  46    -0.00038377797528602
  47    -0.00054818591819751
  48    -0.00061044071937979
  49    0.00022232933746601
  50    -0.00053096330778037
  51    0.0003501642991206
  52    0.0002490033261547
  53     7.99228746066e-06
  54    -0.00041374532244564
  55    -0.0046770620684277
  56    0.0011398994196939
  57    0.0070648323123106
  58    -0.00013858694100761
  59    -1.8636141939703e-05
  60    0.00017784227476112
  61    -0.00023834412133603
  62    -0.00017518119343259
  63    -0.00049264442981507
  64    0.00020983537900507
  65    -4.0084401499489e-06
  66    -5.2515458505227e-06
  67    8.1461551993354e-07
  68    -3.7647865829867e-06
  69    6.1428565694888e-06
  70    2.2575742602438e-06
  71    -5.5810675941514e-06
  72    1.1442105981889e-06
  73    8.9364956692181e-06
  74    2.4067579405464e-05
  75    5.7036345198152e-06
  76    -5.2636932091276e-07
  77    -5.577047127745e-07
  78    6.3646250586888e-07
  79     6.04044139241e-07
  80    -7.6271256655045e-08
  81    2.8584191020566e-06
  82    1.365631726777e-05
  83    1.8261729677594e-06
  84    -1.7514664258163e-06
  85    -8.6682523923898e-05
  86    9.6046422992202e-06
  87    2.7022181846636e-06
  88    1.6069160651634e-05
  89    2.982066851839e-05
  90    -6.2404026759322e-05
  91    2.232834714049e-05
  92    1.1259676621276e-06
  93    -2.3077858870084e-06
  94    4.1509940082971e-06
  95    -3.8726898421042e-07
  96    -7.1705208580039e-07
  97    1.1828356953865e-05
  98    2.013477194853e-05
  99    -2.3862509899541e-06
 100    -1.8406741175291e-05
 101    -2.950436890633e-06
 102    -9.4228721918807e-06
 103    0.00021364381382403
 104    -1.4522326230678e-05
 105    -1.9401551792163e-05
 106    -5.463120212314e-06
 107    -0.00020521195740486
 108    0.0001717416231358
 109    0.00016837228706835
 110    -7.2193593033974e-06
 111    -2.7525890571929e-06
 112    1.1316758383216e-06
 113    2.3257705794535e-06
 114    -5.6899540440377e-06
 115    -5.9336954713281e-06
 116    -2.9260367123082e-05
 117    0.00026067807931136
 118    -5.673487070838e-06
 119    8.9668555479315e-06
 120    9.5523095058857e-06
 121    -6.1146998560578e-05
 122    2.4173826688919e-05
 123    3.9141787973134e-05
 124    9.5238184168341e-07
 125    -3.1909223739885e-06
 126    -2.410528071348e-06
 127    1.3462787108752e-06
 128    -1.9815707790005e-06
 129    7.3213362859104e-06
 130    -7.6561953866554e-05
 131    0.00013408500410829
 132    1.9417598433151e-05
 133    -5.0928649084332e-06
 134    9.8601507913396e-05
 135    -0.00032276639843704
 136    3.4417574151843e-05
 137    -0.00042012734419455
 138    1.3077441766397e-05
 139    8.2520503146735e-06
 140    4.023862781208e-06
 141    3.1165150830408e-06
 142    5.4626331274725e-06
 143    -1.0398061439916e-05
 144    -1.0331792150901e-05
 145    9.2256618881541e-05
 146    2.0151987987371e-05
 147    -8.7403392267281e-06
 148    -1.9737457863535e-05
 149    5.2108165322586e-05
 150    -3.0087581641258e-05
 151    -6.1193472062534e-05
 152    -9.5100949008139e-06
 153    -4.7000399586099e-06
 154    -2.6804258232595e-06
 155    4.9271836039492e-06
 156    -5.3914826368499e-06
 157    4.0967168240919e-07
 158    1.353287519205e-05
 159    -1.6850979796561e-05
 160    6.9155075171909e-06
 161    -3.6061422063249e-06
 162    1.7271189786706e-06
 163    -4.8927221172049e-05
 164    1.4788250673102e-05
 165    1.3299782749662e-05
 166    3.3082535643315e-06
 167    -1.1098612278508e-06
 168    2.2977922526833e-07
 169    2.6423669033989e-07
 170    1.2803266181132e-06
 171    -1.3013282138246e-06
 172    -1.0708349303205e-05
 173    2.2243112149932e-05
 174    -3.0337068660558e-06
 175    1.3527925259434e-06
 176    9.8711260584864e-06
 177    -1.1090708334665e-05
 178    1.4764804189452e-06
 179    -3.2431852478368e-05
 180    1.2148713292121e-06
 181    3.4125806919601e-06
 182    2.3040268252932e-07
 183    -8.4228453518139e-07
 184    1.4403982156093e-06
 185    3.022746363783e-07
 186    -3.3854182670767e-05
 187    4.1738807368219e-05
 188    2.7337388778635e-06
 189    4.2091773960875e-06
 190    2.2905831291052e-05
 191    9.4698912241047e-06
 192    -3.7553779682535e-06
 193    -4.8461026864023e-05
 194    3.758425180785e-06
 195    2.3708734795876e-07
 196    2.9126339957551e-06
 197    -5.6512223642318e-07
 198    2.1215273115118e-07
 199    -7.1935865604191e-06
 200    -1.4783044969836e-06
 201    4.6038347106554e-06
 202    3.5475297778111e-05
 203    -1.3337084065175e-05
 204    -6.779914283094e-06
 205    2.8968626502087e-06
 206    -2.2073354908881e-05
 207    7.1152230587139e-06
 208    -6.4545353194956e-05
 209    6.6951351222794e-06
 210    -3.1170935809549e-05
 211    4.9961578065695e-06
 212    1.5263732282167e-05
 213    1.9880711685196e-06
 214    -1.6293677520259e-05
 215    -5.2990940736194e-06
 216    -4.2862491281515e-05
 217    4.3370533674735e-06
 218    1.4274464206796e-05
 219    -2.2885146556836e-07
 220    2.138489484337e-06
 221    -8.7127801603452e-05
 222    7.4903425357524e-05
 223    0.00088091846274082
 224    0.00010129173560535
 225    5.4868982891317e-05
 226    -0.00020602577712022
 227    0.00061629399443288
 228    0.00030315523677443
 229    -0.00097093811679064
 230    -2.3039993830732e-06
 231    -4.5211506050407e-05
 232    -2.044150491478e-05
 233    2.3505421907203e-05
 234    2.3380986532011e-05
 235    0.00014302489407103
 236    -0.00032128677988549
 237    -0.00048730981715205
 238    -0.00020609065562104
 239    -0.00015778038851272
 240    0.0005509558602668
 241    0.00020226132313159
 242    0.00026045908323217
 243    -0.0012482246131508
 244    2.5987628414764e-06
 245    5.5260307647527e-05
 246    1.3270531791565e-05
 247    1.139558528429e-05
 248    -2.2136889808846e-06
 249    -1.7712821122735e-05
 250    0.00028365307890159
 251    -0.00034270978228068
 252    -0.00044377860222778
 253    0.0021001123663953
 254    -0.00049607107603624
 255    -9.6626139897306e-05
 256    -0.00019766342772459
 257    -0.0001878110802328
 258    0.00038203594566194
 259    -0.0018278243011995
 260    -7.6241329506697e-05
 261    -3.1243507041766e-05
 262    -1.7542920065176e-05
 263    0.00014421720639393
 264    9.319427142838e-05
 265    -0.0002537133245333
 266    0.00014774980374196
 267    0.00022134382312263
 268    -0.00020176408960827
 269    -1.930484819956e-05
 270    -0.00049485208335868
 271    0.0066495046827115
 272    -1.3137255713803e-05
 273    -0.00015457638393988
 274    8.3823587034385e-05
 275    -0.0015372008636189
 276    -0.0028316438934775
 277    0.0025698200252342
 278    8.1764737546844e-05
 279    -0.00017536770316451
 280    -7.9907605086142e-05
 281    -2.3929456539701e-05