[Molden Format]
made by pyscf v[2.0.1]
[Atoms] (AU)
C   1   6     0.69100024066471     0.64692934207205    -3.48223131169301
H   2   1     2.68052439830868     1.13355088658700    -3.25784032593313
C   3   6    -0.36286361513219     0.85440132524594    -5.97030179418974
H   4   1    -2.35448549047279     0.36322488579172    -6.17995817793143
C   5   6     0.93697958957450     1.61209284601821    -8.05828437677121
H   6   1     0.91018176739439     3.60165715372829    -8.58918788754706
C   7   6     2.36275315943078    -0.07897264779665    -9.62791837868890
H   8   1     2.37293254336653    -2.06644965927173    -9.07154285055885
H   9   1     1.55630230933075    -1.92953025305990    12.99630010416247
C   10   6     0.75233899775814    -2.21270439606481    11.10705728102219
H   11   1    -0.43433408177274    -3.90944857546550    11.22216085340412
C   12   6     2.86362581178706    -2.63237380607947     9.17926416456045
H   13   1     4.39038949912609    -1.24955421540245     9.49899813497433
H   14   1     3.74629220191363    -4.48798724300892     9.47414880959024
C   15   6     2.02478325613682    -2.42177285709634     6.44560829588644
C   16   6     3.88048732735477    -3.58795445234514     4.61402886975252
C   17   6    -0.18412382258602    -1.30464291234259     5.76021113872346
C   18   6    -2.10044360464350    -0.26837831858460     7.71610340967100
C   19   6    -3.08956938670431     2.35282328359417     6.88693925039594
C   20   6    -4.37372924086464    -2.09766595989678     7.93610724222001
C   21   6    -0.83850430601230     0.06372213486173    10.33002307638377
H   22   1     0.38411922151109     1.74281358582432    10.27380136542181
H   23   1    -2.30980003007874     0.45460143924521    11.73986301809809
H   24   1     4.58527064644668    -5.38706904487420     5.36778158031719
H   25   1     5.54944938085014    -2.37631462192748     4.35398898413318
H   26   1     3.06633019150423    -3.94118377050688     2.75255466040884
H   27   1    -4.17727778763735     2.26573369139522     5.12914900961283
H   28   1    -1.52662344944051     3.68001877445626     6.59540397144508
H   29   1    -4.32916174397830     3.13643051467482     8.35225460090378
H   30   1    -5.32329548508442    -2.36691813602939     6.11583672749896
H   31   1    -5.77989366602257    -1.33896741843465     9.25748940450990
H   32   1    -3.79310905208926    -3.96389819310853     8.61386170102686
C   33   6    -1.01100794811226    -1.06331657314144     3.11929490449947
C   34   6     0.37686231036534    -0.33275864505552     1.09165013605873
H   35   1    -3.01671213906703    -1.40297922279997     2.77827895090944
C   36   6    -0.64382707979370    -0.11591880174385    -1.42063131251064
H   37   1     2.35569259782137     0.17174499283897     1.33641070251401
H   38   1    -2.63317482980319    -0.60229203511219    -1.66119700387645
C   39   6     3.68212070775393     0.58885978377309   -11.72315169981470
C   40   6     5.07620914500435    -1.27889558400184   -13.19794995736473
H   41   1     3.74999971153331     2.53578027550937   -12.38092170581109
O   42   8     6.29809885748056    -0.81150016580158   -15.09777920785750
H   43   1     4.95468191731404    -3.24735743289555   -12.45594726186437
[GTO]
1 0
 s    6 1.00
             3047.5249  0.0018347001629433
             457.36951    0.01403730124668
             103.94869   0.068842606114048
             29.210155    0.23218442062076
              9.286663    0.46794134155879
              3.163927    0.36231203217765
 s    3 1.00
             7.8682724   -0.11933240861517
             1.8812885   -0.16085421161283
             0.5442493     1.1434564825515
 s    1 1.00
             0.1687144                   1
 p    3 1.00
             7.8682724   0.068999095584993
             1.8812885    0.31642397975315
             0.5442493    0.74430825237435
 p    1 1.00
             0.1687144                   1
 d    1 1.00
                   0.8                   1

2 0
 s    3 1.00
             18.731137    0.03349459952309
             2.8253937    0.23472694665786
             0.6401217    0.81375731841339
 s    1 1.00
             0.1612778                   1

3 0
 s    6 1.00
             3047.5249  0.0018347001629433
             457.36951    0.01403730124668
             103.94869   0.068842606114048
             29.210155    0.23218442062076
              9.286663    0.46794134155879
              3.163927    0.36231203217765
 s    3 1.00
             7.8682724   -0.11933240861517
             1.8812885   -0.16085421161283
             0.5442493     1.1434564825515
 s    1 1.00
             0.1687144                   1
 p    3 1.00
             7.8682724   0.068999095584993
             1.8812885    0.31642397975315
             0.5442493    0.74430825237435
 p    1 1.00
             0.1687144                   1
 d    1 1.00
                   0.8                   1

4 0
 s    3 1.00
             18.731137    0.03349459952309
             2.8253937    0.23472694665786
             0.6401217    0.81375731841339
 s    1 1.00
             0.1612778                   1

5 0
 s    6 1.00
             3047.5249  0.0018347001629433
             457.36951    0.01403730124668
             103.94869   0.068842606114048
             29.210155    0.23218442062076
              9.286663    0.46794134155879
              3.163927    0.36231203217765
 s    3 1.00
             7.8682724   -0.11933240861517
             1.8812885   -0.16085421161283
             0.5442493     1.1434564825515
 s    1 1.00
             0.1687144                   1
 p    3 1.00
             7.8682724   0.068999095584993
             1.8812885    0.31642397975315
             0.5442493    0.74430825237435
 p    1 1.00
             0.1687144                   1
 d    1 1.00
                   0.8                   1

6 0
 s    3 1.00
             18.731137    0.03349459952309
             2.8253937    0.23472694665786
             0.6401217    0.81375731841339
 s    1 1.00
             0.1612778                   1

7 0
 s    6 1.00
             3047.5249  0.0018347001629433
             457.36951    0.01403730124668
             103.94869   0.068842606114048
             29.210155    0.23218442062076
              9.286663    0.46794134155879
              3.163927    0.36231203217765
 s    3 1.00
             7.8682724   -0.11933240861517
             1.8812885   -0.16085421161283
             0.5442493     1.1434564825515
 s    1 1.00
             0.1687144                   1
 p    3 1.00
             7.8682724   0.068999095584993
             1.8812885    0.31642397975315
             0.5442493    0.74430825237435
 p    1 1.00
             0.1687144                   1
 d    1 1.00
                   0.8                   1

8 0
 s    3 1.00
             18.731137    0.03349459952309
             2.8253937    0.23472694665786
             0.6401217    0.81375731841339
 s    1 1.00
             0.1612778                   1

9 0
 s    3 1.00
             18.731137    0.03349459952309
             2.8253937    0.23472694665786
             0.6401217    0.81375731841339
 s    1 1.00
             0.1612778                   1

10 0
 s    6 1.00
             3047.5249  0.0018347001629433
             457.36951    0.01403730124668
             103.94869   0.068842606114048
             29.210155    0.23218442062076
              9.286663    0.46794134155879
              3.163927    0.36231203217765
 s    3 1.00
             7.8682724   -0.11933240861517
             1.8812885   -0.16085421161283
             0.5442493     1.1434564825515
 s    1 1.00
             0.1687144                   1
 p    3 1.00
             7.8682724   0.068999095584993
             1.8812885    0.31642397975315
             0.5442493    0.74430825237435
 p    1 1.00
             0.1687144                   1
 d    1 1.00
                   0.8                   1

11 0
 s    3 1.00
             18.731137    0.03349459952309
             2.8253937    0.23472694665786
             0.6401217    0.81375731841339
 s    1 1.00
             0.1612778                   1

12 0
 s    6 1.00
             3047.5249  0.0018347001629433
             457.36951    0.01403730124668
             103.94869   0.068842606114048
             29.210155    0.23218442062076
              9.286663    0.46794134155879
              3.163927    0.36231203217765
 s    3 1.00
             7.8682724   -0.11933240861517
             1.8812885   -0.16085421161283
             0.5442493     1.1434564825515
 s    1 1.00
             0.1687144                   1
 p    3 1.00
             7.8682724   0.068999095584993
             1.8812885    0.31642397975315
             0.5442493    0.74430825237435
 p    1 1.00
             0.1687144                   1
 d    1 1.00
                   0.8                   1

13 0
 s    3 1.00
             18.731137    0.03349459952309
             2.8253937    0.23472694665786
             0.6401217    0.81375731841339
 s    1 1.00
             0.1612778                   1

14 0
 s    3 1.00
             18.731137    0.03349459952309
             2.8253937    0.23472694665786
             0.6401217    0.81375731841339
 s    1 1.00
             0.1612778                   1

15 0
 s    6 1.00
             3047.5249  0.0018347001629433
             457.36951    0.01403730124668
             103.94869   0.068842606114048
             29.210155    0.23218442062076
              9.286663    0.46794134155879
              3.163927    0.36231203217765
 s    3 1.00
             7.8682724   -0.11933240861517
             1.8812885   -0.16085421161283
             0.5442493     1.1434564825515
 s    1 1.00
             0.1687144                   1
 p    3 1.00
             7.8682724   0.068999095584993
             1.8812885    0.31642397975315
             0.5442493    0.74430825237435
 p    1 1.00
             0.1687144                   1
 d    1 1.00
                   0.8                   1

16 0
 s    6 1.00
             3047.5249  0.0018347001629433
             457.36951    0.01403730124668
             103.94869   0.068842606114048
             29.210155    0.23218442062076
              9.286663    0.46794134155879
              3.163927    0.36231203217765
 s    3 1.00
             7.8682724   -0.11933240861517
             1.8812885   -0.16085421161283
             0.5442493     1.1434564825515
 s    1 1.00
             0.1687144                   1
 p    3 1.00
             7.8682724   0.068999095584993
             1.8812885    0.31642397975315
             0.5442493    0.74430825237435
 p    1 1.00
             0.1687144                   1
 d    1 1.00
                   0.8                   1

17 0
 s    6 1.00
             3047.5249  0.0018347001629433
             457.36951    0.01403730124668
             103.94869   0.068842606114048
             29.210155    0.23218442062076
              9.286663    0.46794134155879
              3.163927    0.36231203217765
 s    3 1.00
             7.8682724   -0.11933240861517
             1.8812885   -0.16085421161283
             0.5442493     1.1434564825515
 s    1 1.00
             0.1687144                   1
 p    3 1.00
             7.8682724   0.068999095584993
             1.8812885    0.31642397975315
             0.5442493    0.74430825237435
 p    1 1.00
             0.1687144                   1
 d    1 1.00
                   0.8                   1

18 0
 s    6 1.00
             3047.5249  0.0018347001629433
             457.36951    0.01403730124668
             103.94869   0.068842606114048
             29.210155    0.23218442062076
              9.286663    0.46794134155879
              3.163927    0.36231203217765
 s    3 1.00
             7.8682724   -0.11933240861517
             1.8812885   -0.16085421161283
             0.5442493     1.1434564825515
 s    1 1.00
             0.1687144                   1
 p    3 1.00
             7.8682724   0.068999095584993
             1.8812885    0.31642397975315
             0.5442493    0.74430825237435
 p    1 1.00
             0.1687144                   1
 d    1 1.00
                   0.8                   1

19 0
 s    6 1.00
             3047.5249  0.0018347001629433
             457.36951    0.01403730124668
             103.94869   0.068842606114048
             29.210155    0.23218442062076
              9.286663    0.46794134155879
              3.163927    0.36231203217765
 s    3 1.00
             7.8682724   -0.11933240861517
             1.8812885   -0.16085421161283
             0.5442493     1.1434564825515
 s    1 1.00
             0.1687144                   1
 p    3 1.00
             7.8682724   0.068999095584993
             1.8812885    0.31642397975315
             0.5442493    0.74430825237435
 p    1 1.00
             0.1687144                   1
 d    1 1.00
                   0.8                   1

20 0
 s    6 1.00
             3047.5249  0.0018347001629433
             457.36951    0.01403730124668
             103.94869   0.068842606114048
             29.210155    0.23218442062076
              9.286663    0.46794134155879
              3.163927    0.36231203217765
 s    3 1.00
             7.8682724   -0.11933240861517
             1.8812885   -0.16085421161283
             0.5442493     1.1434564825515
 s    1 1.00
             0.1687144                   1
 p    3 1.00
             7.8682724   0.068999095584993
             1.8812885    0.31642397975315
             0.5442493    0.74430825237435
 p    1 1.00
             0.1687144                   1
 d    1 1.00
                   0.8                   1

21 0
 s    6 1.00
             3047.5249  0.0018347001629433
             457.36951    0.01403730124668
             103.94869   0.068842606114048
             29.210155    0.23218442062076
              9.286663    0.46794134155879
              3.163927    0.36231203217765
 s    3 1.00
             7.8682724   -0.11933240861517
             1.8812885   -0.16085421161283
             0.5442493     1.1434564825515
 s    1 1.00
             0.1687144                   1
 p    3 1.00
             7.8682724   0.068999095584993
             1.8812885    0.31642397975315
             0.5442493    0.74430825237435
 p    1 1.00
             0.1687144                   1
 d    1 1.00
                   0.8                   1

22 0
 s    3 1.00
             18.731137    0.03349459952309
             2.8253937    0.23472694665786
             0.6401217    0.81375731841339
 s    1 1.00
             0.1612778                   1

23 0
 s    3 1.00
             18.731137    0.03349459952309
             2.8253937    0.23472694665786
             0.6401217    0.81375731841339
 s    1 1.00
             0.1612778                   1

24 0
 s    3 1.00
             18.731137    0.03349459952309
             2.8253937    0.23472694665786
             0.6401217    0.81375731841339
 s    1 1.00
             0.1612778                   1

25 0
 s    3 1.00
             18.731137    0.03349459952309
             2.8253937    0.23472694665786
             0.6401217    0.81375731841339
 s    1 1.00
             0.1612778                   1

26 0
 s    3 1.00
             18.731137    0.03349459952309
             2.8253937    0.23472694665786
             0.6401217    0.81375731841339
 s    1 1.00
             0.1612778                   1

27 0
 s    3 1.00
             18.731137    0.03349459952309
             2.8253937    0.23472694665786
             0.6401217    0.81375731841339
 s    1 1.00
             0.1612778                   1

28 0
 s    3 1.00
             18.731137    0.03349459952309
             2.8253937    0.23472694665786
             0.6401217    0.81375731841339
 s    1 1.00
             0.1612778                   1

29 0
 s    3 1.00
             18.731137    0.03349459952309
             2.8253937    0.23472694665786
             0.6401217    0.81375731841339
 s    1 1.00
             0.1612778                   1

30 0
 s    3 1.00
             18.731137    0.03349459952309
             2.8253937    0.23472694665786
             0.6401217    0.81375731841339
 s    1 1.00
             0.1612778                   1

31 0
 s    3 1.00
             18.731137    0.03349459952309
             2.8253937    0.23472694665786
             0.6401217    0.81375731841339
 s    1 1.00
             0.1612778                   1

32 0
 s    3 1.00
             18.731137    0.03349459952309
             2.8253937    0.23472694665786
             0.6401217    0.81375731841339
 s    1 1.00
             0.1612778                   1

33 0
 s    6 1.00
             3047.5249  0.0018347001629433
             457.36951    0.01403730124668
             103.94869   0.068842606114048
             29.210155    0.23218442062076
              9.286663    0.46794134155879
              3.163927    0.36231203217765
 s    3 1.00
             7.8682724   -0.11933240861517
             1.8812885   -0.16085421161283
             0.5442493     1.1434564825515
 s    1 1.00
             0.1687144                   1
 p    3 1.00
             7.8682724   0.068999095584993
             1.8812885    0.31642397975315
             0.5442493    0.74430825237435
 p    1 1.00
             0.1687144                   1
 d    1 1.00
                   0.8                   1

34 0
 s    6 1.00
             3047.5249  0.0018347001629433
             457.36951    0.01403730124668
             103.94869   0.068842606114048
             29.210155    0.23218442062076
              9.286663    0.46794134155879
              3.163927    0.36231203217765
 s    3 1.00
             7.8682724   -0.11933240861517
             1.8812885   -0.16085421161283
             0.5442493     1.1434564825515
 s    1 1.00
             0.1687144                   1
 p    3 1.00
             7.8682724   0.068999095584993
             1.8812885    0.31642397975315
             0.5442493    0.74430825237435
 p    1 1.00
             0.1687144                   1
 d    1 1.00
                   0.8                   1

35 0
 s    3 1.00
             18.731137    0.03349459952309
             2.8253937    0.23472694665786
             0.6401217    0.81375731841339
 s    1 1.00
             0.1612778                   1

36 0
 s    6 1.00
             3047.5249  0.0018347001629433
             457.36951    0.01403730124668
             103.94869   0.068842606114048
             29.210155    0.23218442062076
              9.286663    0.46794134155879
              3.163927    0.36231203217765
 s    3 1.00
             7.8682724   -0.11933240861517
             1.8812885   -0.16085421161283
             0.5442493     1.1434564825515
 s    1 1.00
             0.1687144                   1
 p    3 1.00
             7.8682724   0.068999095584993
             1.8812885    0.31642397975315
             0.5442493    0.74430825237435
 p    1 1.00
             0.1687144                   1
 d    1 1.00
                   0.8                   1

37 0
 s    3 1.00
             18.731137    0.03349459952309
             2.8253937    0.23472694665786
             0.6401217    0.81375731841339
 s    1 1.00
             0.1612778                   1

38 0
 s    3 1.00
             18.731137    0.03349459952309
             2.8253937    0.23472694665786
             0.6401217    0.81375731841339
 s    1 1.00
             0.1612778                   1

39 0
 s    6 1.00
             3047.5249  0.0018347001629433
             457.36951    0.01403730124668
             103.94869   0.068842606114048
             29.210155    0.23218442062076
              9.286663    0.46794134155879
              3.163927    0.36231203217765
 s    3 1.00
             7.8682724   -0.11933240861517
             1.8812885   -0.16085421161283
             0.5442493     1.1434564825515
 s    1 1.00
             0.1687144                   1
 p    3 1.00
             7.8682724   0.068999095584993
             1.8812885    0.31642397975315
             0.5442493    0.74430825237435
 p    1 1.00
             0.1687144                   1
 d    1 1.00
                   0.8                   1

40 0
 s    6 1.00
             3047.5249  0.0018347001629433
             457.36951    0.01403730124668
             103.94869   0.068842606114048
             29.210155    0.23218442062076
              9.286663    0.46794134155879
              3.163927    0.36231203217765
 s    3 1.00
             7.8682724   -0.11933240861517
             1.8812885   -0.16085421161283
             0.5442493     1.1434564825515
 s    1 1.00
             0.1687144                   1
 p    3 1.00
             7.8682724   0.068999095584993
             1.8812885    0.31642397975315
             0.5442493    0.74430825237435
 p    1 1.00
             0.1687144                   1
 d    1 1.00
                   0.8                   1

41 0
 s    3 1.00
             18.731137    0.03349459952309
             2.8253937    0.23472694665786
             0.6401217    0.81375731841339
 s    1 1.00
             0.1612778                   1

42 0
 s    6 1.00
             5484.6717   0.001831099805527
             825.23495   0.013950098518422
             188.04696    0.06844509273075
               52.9645    0.23271427528445
              16.89757    0.47019295006289
             5.7996353    0.35852086192309
 s    3 1.00
             15.539616   -0.11077750382508
             3.5999336   -0.14802630511126
             1.0137618     1.1307670390447
 s    1 1.00
             0.2700058                   1
 p    3 1.00
             15.539616   0.070874299543311
             3.5999336    0.33975279781076
             1.0137618    0.72715859531445
 p    1 1.00
             0.2700058                   1
 d    1 1.00
                   0.8                   1

43 0
 s    3 1.00
             18.731137    0.03349459952309
             2.8253937    0.23472694665786
             0.6401217    0.81375731841339
 s    1 1.00
             0.1612778                   1

[5d]
[7f]
[9g]

[MO]
 Sym= A
 Ene=               0
 Spin= Alpha
 Occup=    1.00000
   1     0.019059857792781
   2    -0.00088238422387127
   3    0.0069310386996134
   4    0.00036005059262834
   5    -0.00015345966220989
   6    0.0011480133712747
   7    0.00081759434851501
   8    0.0013288304703691
   9    -0.0055396961640886
  10    -0.00090429110761392
  11    -0.00086867708970543
  12    0.00014620896593723
  13    -0.00019607310570935
  14    4.7844572670919e-05
  15    -0.00044678161513259
  16    -0.00082817654035854
  17      0.99488942194294
  18     0.036819460135387
  19    -0.028651751524341
  20    0.00093259202336657
  21    0.00018751973080133
  22    -0.00059321835975539
  23    -0.0036446771801416
  24    -0.0011045366510639
  25    -0.00080926969878173
  26    0.00076415044555822
  27    -0.00030260556184026
  28    -0.00034256204684411
  29    0.00029728010643228
  30    0.00020879543233481
  31    -0.0011320484961681
  32    0.0038487764421885
  33     0.013580763923686
  34    -0.00022222647234753
  35    0.0010936961473989
  36    0.00082974590381673
  37    0.00030920960100716
  38    -0.0011119560603068
  39    -0.0025735327893767
  40    0.0034500578635902
  41    0.0039355817786752
  42    -0.00058380417218501
  43    0.0011787684785469
  44    0.00047407588119019
  45    -0.00035360718554441
  46    -0.00035696969298287
  47    -0.00055123241251756
  48    -0.00059145280166914
  49     0.000213351875117
  50    -0.00052212888496227
  51    0.00023557047904397
  52    0.00028424605428231
  53    1.6558983849292e-05
  54    -0.00038795573197974
  55    -0.0050937030437228
  56    0.0010303457189535
  57    0.0068073075431443
  58    -0.00015570978802451
  59    -2.0560770249491e-05
  60    0.00014324989900352
  61    -0.0002127074838097
  62    -0.00022276229304841
  63    -0.00049275642891097
  64    0.00020191863750343
  65    -4.060946101404e-06
  66    -5.2718245326603e-06
  67    8.4600761916287e-07
  68    -3.6418795005641e-06
  69    4.960602029882e-06
  70    2.2717193070792e-06
  71    -5.5984600127243e-06
  72    1.0382517805172e-06
  73    9.2118170115027e-06
  74    2.4762407368736e-05
  75    5.6651394846191e-06
  76    -5.4028569479703e-07
  77    -5.2874765359848e-07
  78    6.125026643831e-07
  79    5.8546119523996e-07
  80    -7.3572285503942e-08
  81    2.9259304084584e-06
  82    1.4161567621022e-05
  83      1.8964820287e-06
  84    -2.0990676131077e-06
  85    -8.8144546015086e-05
  86    9.6214553581995e-06
  87    2.4554833085989e-06
  88    1.6586747868979e-05
  89    2.8896559813318e-05
  90    -6.283189908091e-05
  91    2.3742523213485e-05
  92    1.1350552836753e-06
  93    -2.2411480915144e-06
  94    4.175456870249e-06
  95    -3.4768608289273e-07
  96    -7.3654180776044e-07
  97    1.1898080820872e-05
  98    2.0833190305803e-05
  99    -2.3462627922201e-06
 100    -1.857950134523e-05
 101    -3.0237192540917e-06
 102    -8.2263822090636e-06
 103    0.00020294874609563
 104    -1.4914481091408e-05
 105    -1.9784057947186e-05
 106    -5.7797669772902e-06
 107    -0.00020222566480874
 108     0.000170362937449
 109    0.00017340606261527
 110    -7.4055558739888e-06
 111    -2.8977741602013e-06
 112    1.1172080801824e-06
 113    1.9364768677168e-06
 114    -5.6817760416046e-06
 115    -5.9421180826718e-06
 116    -2.9403456393731e-05
 117    0.00026113213261785
 118    -5.6875688944846e-06
 119    8.3339551982014e-06
 120    1.039187433423e-05
 121    -6.2807005616349e-05
 122    2.7171790415131e-05
 123    4.0176798047996e-05
 124    8.5285608138252e-07
 125    -3.3961728129761e-06
 126    -2.3640747437177e-06
 127    1.5338820724622e-06
 128    -2.0817957826566e-06
 129    7.3400179037436e-06
 130    -7.6345831488875e-05
 131    0.00013571842291505
 132    2.0331902167387e-05
 133    -1.8107852313579e-06
 134    9.9359951679181e-05
 135    -0.00031238025852971
 136    2.8279174796641e-05
 137    -0.00042249653562416
 138    1.2716520623773e-05
 139    8.6037953637802e-06
 140    3.7020929420306e-06
 141    3.2683015989538e-06
 142    5.3479017746901e-06
 143    -1.0482683331099e-05
 144    -1.2262504981763e-05
 145    0.00010197067396246
 146    1.9851066207484e-05
 147    -9.5380798950339e-06
 148    -1.9511106964419e-05
 149    5.4516854951174e-05
 150    -2.8162321986951e-05
 151    -6.7452330584137e-05
 152    -9.2647461673574e-06
 153    -5.005754037622e-06
 154    -2.7479617291933e-06
 155    4.9790744046841e-06
 156    -5.465758693847e-06
 157    6.5463061947427e-07
 158    1.3509807689897e-05
 159    -2.1846055751527e-05
 160    6.6527567251067e-06
 161    -2.9330946313305e-06
 162    1.6013787756995e-06
 163    -5.0033562729998e-05
 164    1.6657235269723e-05
 165    1.4119226739916e-05
 166    3.5042598981026e-06
 167    -1.3893322219132e-06
 168    2.7185489433694e-07
 169    3.7351526204111e-07
 170    1.3265310275267e-06
 171    -1.4541743008544e-06
 172    -1.080211952502e-05
 173    2.3735870514506e-05
 174    -2.5829343016244e-06
 175    1.5645594197911e-06
 176    9.9800253107675e-06
 177    -9.8800352987339e-06
 178    1.9724283117567e-06
 179    -3.1734075309144e-05
 180    1.1850699674529e-06
 181    3.5180561549066e-06
 182    3.4411681718729e-07
 183    -8.0945031952691e-07
 184    1.4919800312707e-06
 185    3.2972932328282e-07
 186    -3.3795858392157e-05
 187    4.1960876460609e-05
 188    2.7487630168787e-06
 189    4.1949839207212e-06
 190    2.3195552257679e-05
 191    7.8334625130173e-06
 192    -4.4852523648654e-06
 193    -4.7930400390145e-05
 194    3.6043796038992e-06
 195    2.7122621037897e-07
 196    3.0442713899361e-06
 197    -4.9019415486555e-07
 198    2.4269654077225e-07
 199    -6.9931471111401e-06
 200    -6.3876643496043e-07
 201    4.5639892953889e-06
 202    3.5040341179237e-05
 203    -1.294729900662e-05
 204    -5.235069387721e-06
 205    2.7174525675621e-06
 206    -2.240803762503e-05
 207    6.023747952086e-06
 208    -6.1209221490306e-05
 209    6.9328346886268e-06
 210    -3.1135043134005e-05
 211    5.2561443038795e-06
 212    1.564067456722e-05
 213    2.2853287754616e-06
 214    -1.572426624362e-05
 215    -5.3978664128612e-06
 216    -4.2163605010197e-05
 217    4.0850987407308e-06
 218    1.4036565068154e-05
 219    -1.6118450043229e-07
 220    1.8052334094151e-06
 221    -8.763976364405e-05
 222    7.4567406392102e-05
 223    0.00089568652941495
 224    0.00010088886417251
 225    5.7652821550962e-05
 226    -0.0002069624583609
 227    0.00061712466376945
 228    0.00031329113242826
 229    -0.00097568108982899
 230    -1.7910900574184e-06
 231    -4.5954345522204e-05
 232    -1.9765618441773e-05
 233    2.412716008174e-05
 234    2.3281860141826e-05
 235    0.00014301111164973
 236    -0.00031987280563166
 237    -0.00049844707904497
 238    -0.00020456318858791
 239    -0.00016761457602385
 240    0.00055037392234157
 241    0.00020575414683627
 242    0.00026718973932245
 243    -0.0012573108418463
 244    2.0311606732941e-06
 245    5.5898239925201e-05
 246    1.2595111083602e-05
 247    1.2193208585436e-05
 248    -3.5660114157204e-06
 249    -1.7533496178925e-05
 250    0.00028408387737261
 251    -0.00034326680920035
 252    -0.00044516640310196
 253    0.0021267918133575
 254    -0.00049527473199309
 255    -0.00011206068892991
 256    -0.00019830713946269
 257    -0.00016377281524629
 258    0.00032811302823644
 259    -0.0018477506494911
 260    -7.6563915158528e-05
 261    -3.0820002903547e-05
 262    -1.4214665550691e-05
 263    0.0001470947661848
 264    8.7516729929164e-05
 265    -0.0002542126817237
 266    0.00014784273863083
 267    0.00022191797680172
 268    -0.00019746877588028
 269    -1.9320869341883e-05
 270    -0.00050089941610878
 271    0.0067133222320319
 272    -1.5588951223188e-05
 273    -0.0001511693745112
 274    8.3963794145348e-05
 275    -0.0013548355822559
 276    -0.0028121522434759
 277    0.0027342957143862
 278    8.7875215269175e-05
 279    -0.00017317529621836
 280    -8.9532072379829e-05
 281    -2.1607782330742e-05