[Molden Format]
made by pyscf v[2.0.1]
[Atoms] (AU)
C   1   6     0.69100024066471     0.64692934207205    -3.48223131169301
H   2   1     2.68052439830868     1.13355088658700    -3.25784032593313
C   3   6    -0.36286361513219     0.85440132524594    -5.97030179418974
H   4   1    -2.35448549047279     0.36322488579172    -6.17995817793143
C   5   6     0.93697958957450     1.61209284601821    -8.05828437677121
H   6   1     0.96138501035509     3.61074187827952    -8.55401536893531
C   7   6     2.29833572157337    -0.09037665740906    -9.67215882917863
H   8   1     2.25763405404964    -2.08692321364337    -9.15074973557782
H   9   1     1.55630230933075    -1.92953025305990    12.99630010416247
C   10   6     0.75233899775814    -2.21270439606481    11.10705728102219
H   11   1    -0.43433408177274    -3.90944857546550    11.22216085340412
C   12   6     2.86362581178706    -2.63237380607947     9.17926416456045
H   13   1     4.39038949912609    -1.24955421540245     9.49899813497433
H   14   1     3.74629220191363    -4.48798724300892     9.47414880959024
C   15   6     2.02478325613682    -2.42177285709634     6.44560829588644
C   16   6     3.88048732735477    -3.58795445234514     4.61402886975252
C   17   6    -0.18412382258602    -1.30464291234259     5.76021113872346
C   18   6    -2.10044360464350    -0.26837831858460     7.71610340967100
C   19   6    -3.08956938670431     2.35282328359417     6.88693925039594
C   20   6    -4.37372924086464    -2.09766595989678     7.93610724222001
C   21   6    -0.83850430601230     0.06372213486173    10.33002307638377
H   22   1     0.38411922151109     1.74281358582432    10.27380136542181
H   23   1    -2.30980003007874     0.45460143924521    11.73986301809809
H   24   1     4.58527064644668    -5.38706904487420     5.36778158031719
H   25   1     5.54944938085014    -2.37631462192748     4.35398898413318
H   26   1     3.06633019150423    -3.94118377050688     2.75255466040884
H   27   1    -4.17727778763735     2.26573369139522     5.12914900961283
H   28   1    -1.52662344944051     3.68001877445626     6.59540397144508
H   29   1    -4.32916174397830     3.13643051467482     8.35225460090378
H   30   1    -5.32329548508442    -2.36691813602939     6.11583672749896
H   31   1    -5.77989366602257    -1.33896741843465     9.25748940450990
H   32   1    -3.79310905208926    -3.96389819310853     8.61386170102686
C   33   6    -1.01100794811226    -1.06331657314144     3.11929490449947
C   34   6     0.37686231036534    -0.33275864505552     1.09165013605873
H   35   1    -3.01671213906703    -1.40297922279997     2.77827895090944
C   36   6    -0.64382707979370    -0.11591880174385    -1.42063131251064
H   37   1     2.35569259782137     0.17174499283897     1.33641070251401
H   38   1    -2.63317482980319    -0.60229203511219    -1.66119700387645
C   39   6     3.61506927759443     0.57708357993929   -11.76916696671870
C   40   6     4.94068653136927    -1.30276865816170   -13.29098070185656
H   41   1     3.73162541044975     2.53269508104841   -12.39347992177894
O   42   8     6.15625203764207    -0.83635548426311   -15.19510343410387
H   43   1     4.77073908343657    -3.27989237609552   -12.58226454806003
[GTO]
1 0
 s    6 1.00
             3047.5249  0.0018347001629433
             457.36951    0.01403730124668
             103.94869   0.068842606114048
             29.210155    0.23218442062076
              9.286663    0.46794134155879
              3.163927    0.36231203217765
 s    3 1.00
             7.8682724   -0.11933240861517
             1.8812885   -0.16085421161283
             0.5442493     1.1434564825515
 s    1 1.00
             0.1687144                   1
 p    3 1.00
             7.8682724   0.068999095584993
             1.8812885    0.31642397975315
             0.5442493    0.74430825237435
 p    1 1.00
             0.1687144                   1
 d    1 1.00
                   0.8                   1

2 0
 s    3 1.00
             18.731137    0.03349459952309
             2.8253937    0.23472694665786
             0.6401217    0.81375731841339
 s    1 1.00
             0.1612778                   1

3 0
 s    6 1.00
             3047.5249  0.0018347001629433
             457.36951    0.01403730124668
             103.94869   0.068842606114048
             29.210155    0.23218442062076
              9.286663    0.46794134155879
              3.163927    0.36231203217765
 s    3 1.00
             7.8682724   -0.11933240861517
             1.8812885   -0.16085421161283
             0.5442493     1.1434564825515
 s    1 1.00
             0.1687144                   1
 p    3 1.00
             7.8682724   0.068999095584993
             1.8812885    0.31642397975315
             0.5442493    0.74430825237435
 p    1 1.00
             0.1687144                   1
 d    1 1.00
                   0.8                   1

4 0
 s    3 1.00
             18.731137    0.03349459952309
             2.8253937    0.23472694665786
             0.6401217    0.81375731841339
 s    1 1.00
             0.1612778                   1

5 0
 s    6 1.00
             3047.5249  0.0018347001629433
             457.36951    0.01403730124668
             103.94869   0.068842606114048
             29.210155    0.23218442062076
              9.286663    0.46794134155879
              3.163927    0.36231203217765
 s    3 1.00
             7.8682724   -0.11933240861517
             1.8812885   -0.16085421161283
             0.5442493     1.1434564825515
 s    1 1.00
             0.1687144                   1
 p    3 1.00
             7.8682724   0.068999095584993
             1.8812885    0.31642397975315
             0.5442493    0.74430825237435
 p    1 1.00
             0.1687144                   1
 d    1 1.00
                   0.8                   1

6 0
 s    3 1.00
             18.731137    0.03349459952309
             2.8253937    0.23472694665786
             0.6401217    0.81375731841339
 s    1 1.00
             0.1612778                   1

7 0
 s    6 1.00
             3047.5249  0.0018347001629433
             457.36951    0.01403730124668
             103.94869   0.068842606114048
             29.210155    0.23218442062076
              9.286663    0.46794134155879
              3.163927    0.36231203217765
 s    3 1.00
             7.8682724   -0.11933240861517
             1.8812885   -0.16085421161283
             0.5442493     1.1434564825515
 s    1 1.00
             0.1687144                   1
 p    3 1.00
             7.8682724   0.068999095584993
             1.8812885    0.31642397975315
             0.5442493    0.74430825237435
 p    1 1.00
             0.1687144                   1
 d    1 1.00
                   0.8                   1

8 0
 s    3 1.00
             18.731137    0.03349459952309
             2.8253937    0.23472694665786
             0.6401217    0.81375731841339
 s    1 1.00
             0.1612778                   1

9 0
 s    3 1.00
             18.731137    0.03349459952309
             2.8253937    0.23472694665786
             0.6401217    0.81375731841339
 s    1 1.00
             0.1612778                   1

10 0
 s    6 1.00
             3047.5249  0.0018347001629433
             457.36951    0.01403730124668
             103.94869   0.068842606114048
             29.210155    0.23218442062076
              9.286663    0.46794134155879
              3.163927    0.36231203217765
 s    3 1.00
             7.8682724   -0.11933240861517
             1.8812885   -0.16085421161283
             0.5442493     1.1434564825515
 s    1 1.00
             0.1687144                   1
 p    3 1.00
             7.8682724   0.068999095584993
             1.8812885    0.31642397975315
             0.5442493    0.74430825237435
 p    1 1.00
             0.1687144                   1
 d    1 1.00
                   0.8                   1

11 0
 s    3 1.00
             18.731137    0.03349459952309
             2.8253937    0.23472694665786
             0.6401217    0.81375731841339
 s    1 1.00
             0.1612778                   1

12 0
 s    6 1.00
             3047.5249  0.0018347001629433
             457.36951    0.01403730124668
             103.94869   0.068842606114048
             29.210155    0.23218442062076
              9.286663    0.46794134155879
              3.163927    0.36231203217765
 s    3 1.00
             7.8682724   -0.11933240861517
             1.8812885   -0.16085421161283
             0.5442493     1.1434564825515
 s    1 1.00
             0.1687144                   1
 p    3 1.00
             7.8682724   0.068999095584993
             1.8812885    0.31642397975315
             0.5442493    0.74430825237435
 p    1 1.00
             0.1687144                   1
 d    1 1.00
                   0.8                   1

13 0
 s    3 1.00
             18.731137    0.03349459952309
             2.8253937    0.23472694665786
             0.6401217    0.81375731841339
 s    1 1.00
             0.1612778                   1

14 0
 s    3 1.00
             18.731137    0.03349459952309
             2.8253937    0.23472694665786
             0.6401217    0.81375731841339
 s    1 1.00
             0.1612778                   1

15 0
 s    6 1.00
             3047.5249  0.0018347001629433
             457.36951    0.01403730124668
             103.94869   0.068842606114048
             29.210155    0.23218442062076
              9.286663    0.46794134155879
              3.163927    0.36231203217765
 s    3 1.00
             7.8682724   -0.11933240861517
             1.8812885   -0.16085421161283
             0.5442493     1.1434564825515
 s    1 1.00
             0.1687144                   1
 p    3 1.00
             7.8682724   0.068999095584993
             1.8812885    0.31642397975315
             0.5442493    0.74430825237435
 p    1 1.00
             0.1687144                   1
 d    1 1.00
                   0.8                   1

16 0
 s    6 1.00
             3047.5249  0.0018347001629433
             457.36951    0.01403730124668
             103.94869   0.068842606114048
             29.210155    0.23218442062076
              9.286663    0.46794134155879
              3.163927    0.36231203217765
 s    3 1.00
             7.8682724   -0.11933240861517
             1.8812885   -0.16085421161283
             0.5442493     1.1434564825515
 s    1 1.00
             0.1687144                   1
 p    3 1.00
             7.8682724   0.068999095584993
             1.8812885    0.31642397975315
             0.5442493    0.74430825237435
 p    1 1.00
             0.1687144                   1
 d    1 1.00
                   0.8                   1

17 0
 s    6 1.00
             3047.5249  0.0018347001629433
             457.36951    0.01403730124668
             103.94869   0.068842606114048
             29.210155    0.23218442062076
              9.286663    0.46794134155879
              3.163927    0.36231203217765
 s    3 1.00
             7.8682724   -0.11933240861517
             1.8812885   -0.16085421161283
             0.5442493     1.1434564825515
 s    1 1.00
             0.1687144                   1
 p    3 1.00
             7.8682724   0.068999095584993
             1.8812885    0.31642397975315
             0.5442493    0.74430825237435
 p    1 1.00
             0.1687144                   1
 d    1 1.00
                   0.8                   1

18 0
 s    6 1.00
             3047.5249  0.0018347001629433
             457.36951    0.01403730124668
             103.94869   0.068842606114048
             29.210155    0.23218442062076
              9.286663    0.46794134155879
              3.163927    0.36231203217765
 s    3 1.00
             7.8682724   -0.11933240861517
             1.8812885   -0.16085421161283
             0.5442493     1.1434564825515
 s    1 1.00
             0.1687144                   1
 p    3 1.00
             7.8682724   0.068999095584993
             1.8812885    0.31642397975315
             0.5442493    0.74430825237435
 p    1 1.00
             0.1687144                   1
 d    1 1.00
                   0.8                   1

19 0
 s    6 1.00
             3047.5249  0.0018347001629433
             457.36951    0.01403730124668
             103.94869   0.068842606114048
             29.210155    0.23218442062076
              9.286663    0.46794134155879
              3.163927    0.36231203217765
 s    3 1.00
             7.8682724   -0.11933240861517
             1.8812885   -0.16085421161283
             0.5442493     1.1434564825515
 s    1 1.00
             0.1687144                   1
 p    3 1.00
             7.8682724   0.068999095584993
             1.8812885    0.31642397975315
             0.5442493    0.74430825237435
 p    1 1.00
             0.1687144                   1
 d    1 1.00
                   0.8                   1

20 0
 s    6 1.00
             3047.5249  0.0018347001629433
             457.36951    0.01403730124668
             103.94869   0.068842606114048
             29.210155    0.23218442062076
              9.286663    0.46794134155879
              3.163927    0.36231203217765
 s    3 1.00
             7.8682724   -0.11933240861517
             1.8812885   -0.16085421161283
             0.5442493     1.1434564825515
 s    1 1.00
             0.1687144                   1
 p    3 1.00
             7.8682724   0.068999095584993
             1.8812885    0.31642397975315
             0.5442493    0.74430825237435
 p    1 1.00
             0.1687144                   1
 d    1 1.00
                   0.8                   1

21 0
 s    6 1.00
             3047.5249  0.0018347001629433
             457.36951    0.01403730124668
             103.94869   0.068842606114048
             29.210155    0.23218442062076
              9.286663    0.46794134155879
              3.163927    0.36231203217765
 s    3 1.00
             7.8682724   -0.11933240861517
             1.8812885   -0.16085421161283
             0.5442493     1.1434564825515
 s    1 1.00
             0.1687144                   1
 p    3 1.00
             7.8682724   0.068999095584993
             1.8812885    0.31642397975315
             0.5442493    0.74430825237435
 p    1 1.00
             0.1687144                   1
 d    1 1.00
                   0.8                   1

22 0
 s    3 1.00
             18.731137    0.03349459952309
             2.8253937    0.23472694665786
             0.6401217    0.81375731841339
 s    1 1.00
             0.1612778                   1

23 0
 s    3 1.00
             18.731137    0.03349459952309
             2.8253937    0.23472694665786
             0.6401217    0.81375731841339
 s    1 1.00
             0.1612778                   1

24 0
 s    3 1.00
             18.731137    0.03349459952309
             2.8253937    0.23472694665786
             0.6401217    0.81375731841339
 s    1 1.00
             0.1612778                   1

25 0
 s    3 1.00
             18.731137    0.03349459952309
             2.8253937    0.23472694665786
             0.6401217    0.81375731841339
 s    1 1.00
             0.1612778                   1

26 0
 s    3 1.00
             18.731137    0.03349459952309
             2.8253937    0.23472694665786
             0.6401217    0.81375731841339
 s    1 1.00
             0.1612778                   1

27 0
 s    3 1.00
             18.731137    0.03349459952309
             2.8253937    0.23472694665786
             0.6401217    0.81375731841339
 s    1 1.00
             0.1612778                   1

28 0
 s    3 1.00
             18.731137    0.03349459952309
             2.8253937    0.23472694665786
             0.6401217    0.81375731841339
 s    1 1.00
             0.1612778                   1

29 0
 s    3 1.00
             18.731137    0.03349459952309
             2.8253937    0.23472694665786
             0.6401217    0.81375731841339
 s    1 1.00
             0.1612778                   1

30 0
 s    3 1.00
             18.731137    0.03349459952309
             2.8253937    0.23472694665786
             0.6401217    0.81375731841339
 s    1 1.00
             0.1612778                   1

31 0
 s    3 1.00
             18.731137    0.03349459952309
             2.8253937    0.23472694665786
             0.6401217    0.81375731841339
 s    1 1.00
             0.1612778                   1

32 0
 s    3 1.00
             18.731137    0.03349459952309
             2.8253937    0.23472694665786
             0.6401217    0.81375731841339
 s    1 1.00
             0.1612778                   1

33 0
 s    6 1.00
             3047.5249  0.0018347001629433
             457.36951    0.01403730124668
             103.94869   0.068842606114048
             29.210155    0.23218442062076
              9.286663    0.46794134155879
              3.163927    0.36231203217765
 s    3 1.00
             7.8682724   -0.11933240861517
             1.8812885   -0.16085421161283
             0.5442493     1.1434564825515
 s    1 1.00
             0.1687144                   1
 p    3 1.00
             7.8682724   0.068999095584993
             1.8812885    0.31642397975315
             0.5442493    0.74430825237435
 p    1 1.00
             0.1687144                   1
 d    1 1.00
                   0.8                   1

34 0
 s    6 1.00
             3047.5249  0.0018347001629433
             457.36951    0.01403730124668
             103.94869   0.068842606114048
             29.210155    0.23218442062076
              9.286663    0.46794134155879
              3.163927    0.36231203217765
 s    3 1.00
             7.8682724   -0.11933240861517
             1.8812885   -0.16085421161283
             0.5442493     1.1434564825515
 s    1 1.00
             0.1687144                   1
 p    3 1.00
             7.8682724   0.068999095584993
             1.8812885    0.31642397975315
             0.5442493    0.74430825237435
 p    1 1.00
             0.1687144                   1
 d    1 1.00
                   0.8                   1

35 0
 s    3 1.00
             18.731137    0.03349459952309
             2.8253937    0.23472694665786
             0.6401217    0.81375731841339
 s    1 1.00
             0.1612778                   1

36 0
 s    6 1.00
             3047.5249  0.0018347001629433
             457.36951    0.01403730124668
             103.94869   0.068842606114048
             29.210155    0.23218442062076
              9.286663    0.46794134155879
              3.163927    0.36231203217765
 s    3 1.00
             7.8682724   -0.11933240861517
             1.8812885   -0.16085421161283
             0.5442493     1.1434564825515
 s    1 1.00
             0.1687144                   1
 p    3 1.00
             7.8682724   0.068999095584993
             1.8812885    0.31642397975315
             0.5442493    0.74430825237435
 p    1 1.00
             0.1687144                   1
 d    1 1.00
                   0.8                   1

37 0
 s    3 1.00
             18.731137    0.03349459952309
             2.8253937    0.23472694665786
             0.6401217    0.81375731841339
 s    1 1.00
             0.1612778                   1

38 0
 s    3 1.00
             18.731137    0.03349459952309
             2.8253937    0.23472694665786
             0.6401217    0.81375731841339
 s    1 1.00
             0.1612778                   1

39 0
 s    6 1.00
             3047.5249  0.0018347001629433
             457.36951    0.01403730124668
             103.94869   0.068842606114048
             29.210155    0.23218442062076
              9.286663    0.46794134155879
              3.163927    0.36231203217765
 s    3 1.00
             7.8682724   -0.11933240861517
             1.8812885   -0.16085421161283
             0.5442493     1.1434564825515
 s    1 1.00
             0.1687144                   1
 p    3 1.00
             7.8682724   0.068999095584993
             1.8812885    0.31642397975315
             0.5442493    0.74430825237435
 p    1 1.00
             0.1687144                   1
 d    1 1.00
                   0.8                   1

40 0
 s    6 1.00
             3047.5249  0.0018347001629433
             457.36951    0.01403730124668
             103.94869   0.068842606114048
             29.210155    0.23218442062076
              9.286663    0.46794134155879
              3.163927    0.36231203217765
 s    3 1.00
             7.8682724   -0.11933240861517
             1.8812885   -0.16085421161283
             0.5442493     1.1434564825515
 s    1 1.00
             0.1687144                   1
 p    3 1.00
             7.8682724   0.068999095584993
             1.8812885    0.31642397975315
             0.5442493    0.74430825237435
 p    1 1.00
             0.1687144                   1
 d    1 1.00
                   0.8                   1

41 0
 s    3 1.00
             18.731137    0.03349459952309
             2.8253937    0.23472694665786
             0.6401217    0.81375731841339
 s    1 1.00
             0.1612778                   1

42 0
 s    6 1.00
             5484.6717   0.001831099805527
             825.23495   0.013950098518422
             188.04696    0.06844509273075
               52.9645    0.23271427528445
              16.89757    0.47019295006289
             5.7996353    0.35852086192309
 s    3 1.00
             15.539616   -0.11077750382508
             3.5999336   -0.14802630511126
             1.0137618     1.1307670390447
 s    1 1.00
             0.2700058                   1
 p    3 1.00
             15.539616   0.070874299543311
             3.5999336    0.33975279781076
             1.0137618    0.72715859531445
 p    1 1.00
             0.2700058                   1
 d    1 1.00
                   0.8                   1

43 0
 s    3 1.00
             18.731137    0.03349459952309
             2.8253937    0.23472694665786
             0.6401217    0.81375731841339
 s    1 1.00
             0.1612778                   1

[5d]
[7f]
[9g]

[MO]
 Sym= A
 Ene=               0
 Spin= Alpha
 Occup=    1.00000
   1     0.018630598145125
   2    -0.00090101724565274
   3    0.0069374495198859
   4    0.00035753413130831
   5    -0.0001461884912816
   6    0.0011519365620877
   7    0.00081853283227951
   8    0.0013001101374832
   9    -0.0055454340842646
  10    -0.00090524662849048
  11    -0.00086634264610069
  12    0.00014805711097594
  13    -0.00019608007377583
  14    4.7705148986235e-05
  15    -0.00044804315828938
  16    -0.00082507845511524
  17       0.9949072593485
  18     0.036821868331117
  19     -0.02866236476808
  20    0.00092904630448679
  21    0.00018639864971102
  22    -0.00060626842259516
  23    -0.0036363398340284
  24    -0.0010934164705973
  25    -0.00080153723036726
  26    0.00076722651454316
  27    -0.00030284299275369
  28    -0.00034545181115132
  29    0.00029902002899364
  30    0.00020404304307075
  31    -0.0011266654410636
  32    0.0038584776712244
  33     0.012869445426004
  34    -0.00024279027404004
  35    0.0010746039980543
  36    0.00083077256908885
  37    0.0003086900362774
  38    -0.0011140085129174
  39    -0.0024727761774983
  40    0.0034861107601261
  41    0.0040235927353823
  42    -0.00059172113949621
  43    0.0011794002608534
  44    0.00046827432184937
  45    -0.00034898657314334
  46    -0.00036130563583689
  47    -0.00055106163631841
  48    -0.00060158491235196
  49    0.00019077217145199
  50    -0.00052569715721329
  51    0.00027547541026409
  52    0.00027178520597371
  53    1.3673646086585e-05
  54    -0.00039663972934365
  55    -0.0049701820745199
  56    0.0010777153874002
  57    0.0069078313582189
  58    -0.00015079207667279
  59    -2.1157430155527e-05
  60    0.0001562220301364
  61    -0.00022315594307985
  62    -0.00020833841382589
  63    -0.00049351265050164
  64    0.00020589515694598
  65    -4.063817436029e-06
  66    -5.2119088785753e-06
  67    8.3908070968019e-07
  68    -3.7107621780772e-06
  69    5.2845903538157e-06
  70    2.3075869812095e-06
  71    -5.6048666892886e-06
  72    1.0401381316648e-06
  73    9.1350121307973e-06
  74    2.4650298792203e-05
  75    5.5817308858573e-06
  76    -5.3536586989958e-07
  77    -5.3688706653674e-07
  78    6.245085545967e-07
  79    5.9594137872286e-07
  80    -7.4066721964992e-08
  81    2.894452124747e-06
  82    1.4065142817608e-05
  83    1.9070161182723e-06
  84    -1.9860506918654e-06
  85    -8.7992205106029e-05
  86    9.5846017879493e-06
  87    2.482214981419e-06
  88    1.6576043079551e-05
  89    2.9214375300235e-05
  90    -6.2939578633219e-05
  91    2.3494573532879e-05
  92    1.1228864646812e-06
  93    -2.2593109738662e-06
  94    4.1899383987167e-06
  95    -3.641483803269e-07
  96    -7.2560366837925e-07
  97    1.1912987814747e-05
  98    2.0825614171974e-05
  99    -2.3791187254471e-06
 100    -1.8607505631253e-05
 101    -3.0661331342774e-06
 102    -8.5640843223045e-06
 103    0.00020837865095829
 104    -1.5001224309204e-05
 105    -1.9785103759351e-05
 106    -5.7995926141807e-06
 107    -0.00020365842391366
 108    0.00017083589917369
 109    0.00017128547791418
 110    -7.3401891974282e-06
 111    -2.8515265502357e-06
 112    1.1028367112261e-06
 113    2.0355420748627e-06
 114    -5.7249402337634e-06
 115    -5.9219349811741e-06
 116    -2.9261940270625e-05
 117    0.0002605298270137
 118    -5.7191846801698e-06
 119    8.5031796494438e-06
 120    1.027636390501e-05
 121    -6.1983556216887e-05
 122    2.5808609885196e-05
 123    3.9968248767162e-05
 124    8.8648393310021e-07
 125     -3.3453185324e-06
 126    -2.4102964150619e-06
 127    1.4627176672112e-06
 128    -2.0474280835481e-06
 129    7.3480310567725e-06
 130    -7.6346599756741e-05
 131    0.00013503065161607
 132    2.049789295955e-05
 133    -2.0446933165324e-06
 134    9.9173935209176e-05
 135    -0.00031710542554798
 136    3.1297941603598e-05
 137    -0.00042104758131555
 138    1.2788923378157e-05
 139    8.5020612628035e-06
 140    3.7670416880961e-06
 141    3.2107112746861e-06
 142    5.3831302223906e-06
 143    -1.03868329694e-05
 144    -1.169615244021e-05
 145    9.7307407276535e-05
 146    1.9802858004017e-05
 147    -9.4249376731337e-06
 148    -1.9410433383591e-05
 149    5.3051056855487e-05
 150    -2.8507033852904e-05
 151    -6.5504738008347e-05
 152    -9.3408534247204e-06
 153    -4.9156193900281e-06
 154    -2.766083261624e-06
 155    4.9760556478947e-06
 156    -5.416547719653e-06
 157    6.467651901421e-07
 158    1.3422969125587e-05
 159    -2.082021071359e-05
 160    6.6768815532232e-06
 161    -2.9800212425674e-06
 162    1.6980443722513e-06
 163    -4.965806572879e-05
 164    1.6141442895894e-05
 165    1.3863618470477e-05
 166    3.4572152018664e-06
 167    -1.3176408408413e-06
 168    2.750974959201e-07
 169    3.4691849690119e-07
 170    1.3130213493934e-06
 171    -1.4394190069671e-06
 172    -1.0671069919958e-05
 173    2.3298625052916e-05
 174    -2.5535847829487e-06
 175    1.5782266939482e-06
 176    9.9446636240681e-06
 177    -1.0024896271251e-05
 178    1.9397412671764e-06
 179    -3.182265329592e-05
 180    1.1920675528542e-06
 181    3.5161078466569e-06
 182    3.0175585512208e-07
 183    -8.1348506119214e-07
 184    1.4934152420212e-06
 185    3.1042752125359e-07
 186    -3.388138813665e-05
 187    4.2419686025335e-05
 188    2.6974937106577e-06
 189    4.1996876348591e-06
 190    2.3129232704867e-05
 191    8.2348826032638e-06
 192    -4.3332210376097e-06
 193    -4.8366670646612e-05
 194    3.6580942294106e-06
 195    2.7301075845181e-07
 196    3.0195688118542e-06
 197    -5.2027133728595e-07
 198    2.4504843226816e-07
 199    -7.0576329581464e-06
 200    -8.1341623755905e-07
 201    4.5785484213087e-06
 202    3.5108852411938e-05
 203    -1.3043126557496e-05
 204    -5.9208341224081e-06
 205    2.8106068010257e-06
 206    -2.2213840127331e-05
 207    6.3148872648748e-06
 208    -6.2388279733591e-05
 209    6.8485891648384e-06
 210    -3.1102917151907e-05
 211    5.1710841660983e-06
 212    1.5632212954845e-05
 213    2.3062864791894e-06
 214    -1.5648499840506e-05
 215    -5.3902500460534e-06
 216    -4.2057326431102e-05
 217    4.1033105069574e-06
 218    1.3922357053792e-05
 219    -1.5224572488409e-07
 220    1.8991026358739e-06
 221    -8.7525785008668e-05
 222    7.4316294473856e-05
 223    0.00089594289268756
 224    0.00010066777728862
 225    5.8197441853464e-05
 226    -0.00020657905214231
 227    0.00061770914485231
 228    0.00031244645357243
 229    -0.00097676658918859
 230    -1.8351852788341e-06
 231    -4.5839051982122e-05
 232    -1.990690346233e-05
 233    2.4030226074613e-05
 234     2.33129558402e-05
 235    0.00014325570224042
 236    -0.00032024061324749
 237    -0.00050505910291527
 238    -0.00020417082641506
 239    -0.00016739292230175
 240    0.00055060109298719
 241    0.00020885613329825
 242    0.00026358950689955
 243    -0.0012544705313803
 244    2.1513463997177e-06
 245    5.5625665625856e-05
 246    1.3231442708574e-05
 247    1.1942114535551e-05
 248    -3.0660669688422e-06
 249    -1.7460789098088e-05
 250    0.00028387472195843
 251    -0.00034317679206153
 252    -0.00044502226821744
 253    0.0021265666986923
 254    -0.000493851050975
 255    -0.0001134711078259
 256    -0.00020063340839161
 257    -0.00016520445031455
 258    0.00034207802279906
 259    -0.001838399955151
 260    -7.6317743026045e-05
 261    -3.1046975476945e-05
 262    -1.5695118591311e-05
 263    0.00014629140256325
 264    8.9102077308449e-05
 265    -0.00025426672869026
 266    0.00014778483979276
 267    0.00022204068393458
 268    -0.00019769707955309
 269    -1.9125340141125e-05
 270    -0.00050051010614993
 271    0.0067063966979438
 272    -1.7026352107515e-05
 273    -0.00015209207111502
 274    8.2954584700455e-05
 275    -0.0014172114949521
 276    -0.0028301499826954
 277    0.0026817848863534
 278    8.6088169329693e-05
 279    -0.0001743425366673
 280    -8.6659432726907e-05
 281    -2.2835275903758e-05