[Molden Format]
made by pyscf v[2.0.1]
[Atoms] (AU)
C   1   6     0.69100024066471     0.64692934207205    -3.48223131169301
H   2   1     2.68052439830868     1.13355088658700    -3.25784032593313
C   3   6    -0.36286361513219     0.85440132524594    -5.97030179418974
H   4   1    -2.35448549047279     0.36322488579172    -6.17995817793143
C   5   6     0.93697958957450     1.61209284601821    -8.05828437677121
H   6   1    -0.04002876534153     1.70579051152009    -9.86870372539436
C   7   6     3.55882871340184     2.30532870411993    -8.01809862923490
H   8   1     4.51217335653741     2.20318273111775    -6.19041637810672
H   9   1     1.55630230933075    -1.92953025305990    12.99630010416247
C   10   6     0.75233899775814    -2.21270439606481    11.10705728102219
H   11   1    -0.43433408177274    -3.90944857546550    11.22216085340412
C   12   6     2.86362581178706    -2.63237380607947     9.17926416456045
H   13   1     4.39038949912609    -1.24955421540245     9.49899813497433
H   14   1     3.74629220191363    -4.48798724300892     9.47414880959024
C   15   6     2.02478325613682    -2.42177285709634     6.44560829588644
C   16   6     3.88048732735477    -3.58795445234514     4.61402886975252
C   17   6    -0.18412382258602    -1.30464291234259     5.76021113872346
C   18   6    -2.10044360464350    -0.26837831858460     7.71610340967100
C   19   6    -3.08956938670431     2.35282328359417     6.88693925039594
C   20   6    -4.37372924086464    -2.09766595989678     7.93610724222001
C   21   6    -0.83850430601230     0.06372213486173    10.33002307638377
H   22   1     0.38411922151109     1.74281358582432    10.27380136542181
H   23   1    -2.30980003007874     0.45460143924521    11.73986301809809
H   24   1     4.58527064644668    -5.38706904487420     5.36778158031719
H   25   1     5.54944938085014    -2.37631462192748     4.35398898413318
H   26   1     3.06633019150423    -3.94118377050688     2.75255466040884
H   27   1    -4.17727778763735     2.26573369139522     5.12914900961283
H   28   1    -1.52662344944051     3.68001877445626     6.59540397144508
H   29   1    -4.32916174397830     3.13643051467482     8.35225460090378
H   30   1    -5.32329548508442    -2.36691813602939     6.11583672749896
H   31   1    -5.77989366602257    -1.33896741843465     9.25748940450990
H   32   1    -3.79310905208926    -3.96389819310853     8.61386170102686
C   33   6    -1.01100794811226    -1.06331657314144     3.11929490449947
C   34   6     0.37686231036534    -0.33275864505552     1.09165013605873
H   35   1    -3.01671213906703    -1.40297922279997     2.77827895090944
C   36   6    -0.64382707979370    -0.11591880174385    -1.42063131251064
H   37   1     2.35569259782137     0.17174499283897     1.33641070251401
H   38   1    -2.63317482980319    -0.60229203511219    -1.66119700387645
C   39   6     4.92949292707610     3.06752929189425   -10.04715344157890
C   40   6     7.59555456141448     3.73329481661799    -9.81073387339210
H   41   1     4.09542353861424     3.21030697797155   -11.92110945203513
O   42   8     8.93835728030826     4.43020973545744   -11.55200196938216
H   43   1     8.37079058468688     3.56000927179912    -7.85902689076443
[GTO]
1 0
 s    6 1.00
             3047.5249  0.0018347001629433
             457.36951    0.01403730124668
             103.94869   0.068842606114048
             29.210155    0.23218442062076
              9.286663    0.46794134155879
              3.163927    0.36231203217765
 s    3 1.00
             7.8682724   -0.11933240861517
             1.8812885   -0.16085421161283
             0.5442493     1.1434564825515
 s    1 1.00
             0.1687144                   1
 p    3 1.00
             7.8682724   0.068999095584993
             1.8812885    0.31642397975315
             0.5442493    0.74430825237435
 p    1 1.00
             0.1687144                   1
 d    1 1.00
                   0.8                   1

2 0
 s    3 1.00
             18.731137    0.03349459952309
             2.8253937    0.23472694665786
             0.6401217    0.81375731841339
 s    1 1.00
             0.1612778                   1

3 0
 s    6 1.00
             3047.5249  0.0018347001629433
             457.36951    0.01403730124668
             103.94869   0.068842606114048
             29.210155    0.23218442062076
              9.286663    0.46794134155879
              3.163927    0.36231203217765
 s    3 1.00
             7.8682724   -0.11933240861517
             1.8812885   -0.16085421161283
             0.5442493     1.1434564825515
 s    1 1.00
             0.1687144                   1
 p    3 1.00
             7.8682724   0.068999095584993
             1.8812885    0.31642397975315
             0.5442493    0.74430825237435
 p    1 1.00
             0.1687144                   1
 d    1 1.00
                   0.8                   1

4 0
 s    3 1.00
             18.731137    0.03349459952309
             2.8253937    0.23472694665786
             0.6401217    0.81375731841339
 s    1 1.00
             0.1612778                   1

5 0
 s    6 1.00
             3047.5249  0.0018347001629433
             457.36951    0.01403730124668
             103.94869   0.068842606114048
             29.210155    0.23218442062076
              9.286663    0.46794134155879
              3.163927    0.36231203217765
 s    3 1.00
             7.8682724   -0.11933240861517
             1.8812885   -0.16085421161283
             0.5442493     1.1434564825515
 s    1 1.00
             0.1687144                   1
 p    3 1.00
             7.8682724   0.068999095584993
             1.8812885    0.31642397975315
             0.5442493    0.74430825237435
 p    1 1.00
             0.1687144                   1
 d    1 1.00
                   0.8                   1

6 0
 s    3 1.00
             18.731137    0.03349459952309
             2.8253937    0.23472694665786
             0.6401217    0.81375731841339
 s    1 1.00
             0.1612778                   1

7 0
 s    6 1.00
             3047.5249  0.0018347001629433
             457.36951    0.01403730124668
             103.94869   0.068842606114048
             29.210155    0.23218442062076
              9.286663    0.46794134155879
              3.163927    0.36231203217765
 s    3 1.00
             7.8682724   -0.11933240861517
             1.8812885   -0.16085421161283
             0.5442493     1.1434564825515
 s    1 1.00
             0.1687144                   1
 p    3 1.00
             7.8682724   0.068999095584993
             1.8812885    0.31642397975315
             0.5442493    0.74430825237435
 p    1 1.00
             0.1687144                   1
 d    1 1.00
                   0.8                   1

8 0
 s    3 1.00
             18.731137    0.03349459952309
             2.8253937    0.23472694665786
             0.6401217    0.81375731841339
 s    1 1.00
             0.1612778                   1

9 0
 s    3 1.00
             18.731137    0.03349459952309
             2.8253937    0.23472694665786
             0.6401217    0.81375731841339
 s    1 1.00
             0.1612778                   1

10 0
 s    6 1.00
             3047.5249  0.0018347001629433
             457.36951    0.01403730124668
             103.94869   0.068842606114048
             29.210155    0.23218442062076
              9.286663    0.46794134155879
              3.163927    0.36231203217765
 s    3 1.00
             7.8682724   -0.11933240861517
             1.8812885   -0.16085421161283
             0.5442493     1.1434564825515
 s    1 1.00
             0.1687144                   1
 p    3 1.00
             7.8682724   0.068999095584993
             1.8812885    0.31642397975315
             0.5442493    0.74430825237435
 p    1 1.00
             0.1687144                   1
 d    1 1.00
                   0.8                   1

11 0
 s    3 1.00
             18.731137    0.03349459952309
             2.8253937    0.23472694665786
             0.6401217    0.81375731841339
 s    1 1.00
             0.1612778                   1

12 0
 s    6 1.00
             3047.5249  0.0018347001629433
             457.36951    0.01403730124668
             103.94869   0.068842606114048
             29.210155    0.23218442062076
              9.286663    0.46794134155879
              3.163927    0.36231203217765
 s    3 1.00
             7.8682724   -0.11933240861517
             1.8812885   -0.16085421161283
             0.5442493     1.1434564825515
 s    1 1.00
             0.1687144                   1
 p    3 1.00
             7.8682724   0.068999095584993
             1.8812885    0.31642397975315
             0.5442493    0.74430825237435
 p    1 1.00
             0.1687144                   1
 d    1 1.00
                   0.8                   1

13 0
 s    3 1.00
             18.731137    0.03349459952309
             2.8253937    0.23472694665786
             0.6401217    0.81375731841339
 s    1 1.00
             0.1612778                   1

14 0
 s    3 1.00
             18.731137    0.03349459952309
             2.8253937    0.23472694665786
             0.6401217    0.81375731841339
 s    1 1.00
             0.1612778                   1

15 0
 s    6 1.00
             3047.5249  0.0018347001629433
             457.36951    0.01403730124668
             103.94869   0.068842606114048
             29.210155    0.23218442062076
              9.286663    0.46794134155879
              3.163927    0.36231203217765
 s    3 1.00
             7.8682724   -0.11933240861517
             1.8812885   -0.16085421161283
             0.5442493     1.1434564825515
 s    1 1.00
             0.1687144                   1
 p    3 1.00
             7.8682724   0.068999095584993
             1.8812885    0.31642397975315
             0.5442493    0.74430825237435
 p    1 1.00
             0.1687144                   1
 d    1 1.00
                   0.8                   1

16 0
 s    6 1.00
             3047.5249  0.0018347001629433
             457.36951    0.01403730124668
             103.94869   0.068842606114048
             29.210155    0.23218442062076
              9.286663    0.46794134155879
              3.163927    0.36231203217765
 s    3 1.00
             7.8682724   -0.11933240861517
             1.8812885   -0.16085421161283
             0.5442493     1.1434564825515
 s    1 1.00
             0.1687144                   1
 p    3 1.00
             7.8682724   0.068999095584993
             1.8812885    0.31642397975315
             0.5442493    0.74430825237435
 p    1 1.00
             0.1687144                   1
 d    1 1.00
                   0.8                   1

17 0
 s    6 1.00
             3047.5249  0.0018347001629433
             457.36951    0.01403730124668
             103.94869   0.068842606114048
             29.210155    0.23218442062076
              9.286663    0.46794134155879
              3.163927    0.36231203217765
 s    3 1.00
             7.8682724   -0.11933240861517
             1.8812885   -0.16085421161283
             0.5442493     1.1434564825515
 s    1 1.00
             0.1687144                   1
 p    3 1.00
             7.8682724   0.068999095584993
             1.8812885    0.31642397975315
             0.5442493    0.74430825237435
 p    1 1.00
             0.1687144                   1
 d    1 1.00
                   0.8                   1

18 0
 s    6 1.00
             3047.5249  0.0018347001629433
             457.36951    0.01403730124668
             103.94869   0.068842606114048
             29.210155    0.23218442062076
              9.286663    0.46794134155879
              3.163927    0.36231203217765
 s    3 1.00
             7.8682724   -0.11933240861517
             1.8812885   -0.16085421161283
             0.5442493     1.1434564825515
 s    1 1.00
             0.1687144                   1
 p    3 1.00
             7.8682724   0.068999095584993
             1.8812885    0.31642397975315
             0.5442493    0.74430825237435
 p    1 1.00
             0.1687144                   1
 d    1 1.00
                   0.8                   1

19 0
 s    6 1.00
             3047.5249  0.0018347001629433
             457.36951    0.01403730124668
             103.94869   0.068842606114048
             29.210155    0.23218442062076
              9.286663    0.46794134155879
              3.163927    0.36231203217765
 s    3 1.00
             7.8682724   -0.11933240861517
             1.8812885   -0.16085421161283
             0.5442493     1.1434564825515
 s    1 1.00
             0.1687144                   1
 p    3 1.00
             7.8682724   0.068999095584993
             1.8812885    0.31642397975315
             0.5442493    0.74430825237435
 p    1 1.00
             0.1687144                   1
 d    1 1.00
                   0.8                   1

20 0
 s    6 1.00
             3047.5249  0.0018347001629433
             457.36951    0.01403730124668
             103.94869   0.068842606114048
             29.210155    0.23218442062076
              9.286663    0.46794134155879
              3.163927    0.36231203217765
 s    3 1.00
             7.8682724   -0.11933240861517
             1.8812885   -0.16085421161283
             0.5442493     1.1434564825515
 s    1 1.00
             0.1687144                   1
 p    3 1.00
             7.8682724   0.068999095584993
             1.8812885    0.31642397975315
             0.5442493    0.74430825237435
 p    1 1.00
             0.1687144                   1
 d    1 1.00
                   0.8                   1

21 0
 s    6 1.00
             3047.5249  0.0018347001629433
             457.36951    0.01403730124668
             103.94869   0.068842606114048
             29.210155    0.23218442062076
              9.286663    0.46794134155879
              3.163927    0.36231203217765
 s    3 1.00
             7.8682724   -0.11933240861517
             1.8812885   -0.16085421161283
             0.5442493     1.1434564825515
 s    1 1.00
             0.1687144                   1
 p    3 1.00
             7.8682724   0.068999095584993
             1.8812885    0.31642397975315
             0.5442493    0.74430825237435
 p    1 1.00
             0.1687144                   1
 d    1 1.00
                   0.8                   1

22 0
 s    3 1.00
             18.731137    0.03349459952309
             2.8253937    0.23472694665786
             0.6401217    0.81375731841339
 s    1 1.00
             0.1612778                   1

23 0
 s    3 1.00
             18.731137    0.03349459952309
             2.8253937    0.23472694665786
             0.6401217    0.81375731841339
 s    1 1.00
             0.1612778                   1

24 0
 s    3 1.00
             18.731137    0.03349459952309
             2.8253937    0.23472694665786
             0.6401217    0.81375731841339
 s    1 1.00
             0.1612778                   1

25 0
 s    3 1.00
             18.731137    0.03349459952309
             2.8253937    0.23472694665786
             0.6401217    0.81375731841339
 s    1 1.00
             0.1612778                   1

26 0
 s    3 1.00
             18.731137    0.03349459952309
             2.8253937    0.23472694665786
             0.6401217    0.81375731841339
 s    1 1.00
             0.1612778                   1

27 0
 s    3 1.00
             18.731137    0.03349459952309
             2.8253937    0.23472694665786
             0.6401217    0.81375731841339
 s    1 1.00
             0.1612778                   1

28 0
 s    3 1.00
             18.731137    0.03349459952309
             2.8253937    0.23472694665786
             0.6401217    0.81375731841339
 s    1 1.00
             0.1612778                   1

29 0
 s    3 1.00
             18.731137    0.03349459952309
             2.8253937    0.23472694665786
             0.6401217    0.81375731841339
 s    1 1.00
             0.1612778                   1

30 0
 s    3 1.00
             18.731137    0.03349459952309
             2.8253937    0.23472694665786
             0.6401217    0.81375731841339
 s    1 1.00
             0.1612778                   1

31 0
 s    3 1.00
             18.731137    0.03349459952309
             2.8253937    0.23472694665786
             0.6401217    0.81375731841339
 s    1 1.00
             0.1612778                   1

32 0
 s    3 1.00
             18.731137    0.03349459952309
             2.8253937    0.23472694665786
             0.6401217    0.81375731841339
 s    1 1.00
             0.1612778                   1

33 0
 s    6 1.00
             3047.5249  0.0018347001629433
             457.36951    0.01403730124668
             103.94869   0.068842606114048
             29.210155    0.23218442062076
              9.286663    0.46794134155879
              3.163927    0.36231203217765
 s    3 1.00
             7.8682724   -0.11933240861517
             1.8812885   -0.16085421161283
             0.5442493     1.1434564825515
 s    1 1.00
             0.1687144                   1
 p    3 1.00
             7.8682724   0.068999095584993
             1.8812885    0.31642397975315
             0.5442493    0.74430825237435
 p    1 1.00
             0.1687144                   1
 d    1 1.00
                   0.8                   1

34 0
 s    6 1.00
             3047.5249  0.0018347001629433
             457.36951    0.01403730124668
             103.94869   0.068842606114048
             29.210155    0.23218442062076
              9.286663    0.46794134155879
              3.163927    0.36231203217765
 s    3 1.00
             7.8682724   -0.11933240861517
             1.8812885   -0.16085421161283
             0.5442493     1.1434564825515
 s    1 1.00
             0.1687144                   1
 p    3 1.00
             7.8682724   0.068999095584993
             1.8812885    0.31642397975315
             0.5442493    0.74430825237435
 p    1 1.00
             0.1687144                   1
 d    1 1.00
                   0.8                   1

35 0
 s    3 1.00
             18.731137    0.03349459952309
             2.8253937    0.23472694665786
             0.6401217    0.81375731841339
 s    1 1.00
             0.1612778                   1

36 0
 s    6 1.00
             3047.5249  0.0018347001629433
             457.36951    0.01403730124668
             103.94869   0.068842606114048
             29.210155    0.23218442062076
              9.286663    0.46794134155879
              3.163927    0.36231203217765
 s    3 1.00
             7.8682724   -0.11933240861517
             1.8812885   -0.16085421161283
             0.5442493     1.1434564825515
 s    1 1.00
             0.1687144                   1
 p    3 1.00
             7.8682724   0.068999095584993
             1.8812885    0.31642397975315
             0.5442493    0.74430825237435
 p    1 1.00
             0.1687144                   1
 d    1 1.00
                   0.8                   1

37 0
 s    3 1.00
             18.731137    0.03349459952309
             2.8253937    0.23472694665786
             0.6401217    0.81375731841339
 s    1 1.00
             0.1612778                   1

38 0
 s    3 1.00
             18.731137    0.03349459952309
             2.8253937    0.23472694665786
             0.6401217    0.81375731841339
 s    1 1.00
             0.1612778                   1

39 0
 s    6 1.00
             3047.5249  0.0018347001629433
             457.36951    0.01403730124668
             103.94869   0.068842606114048
             29.210155    0.23218442062076
              9.286663    0.46794134155879
              3.163927    0.36231203217765
 s    3 1.00
             7.8682724   -0.11933240861517
             1.8812885   -0.16085421161283
             0.5442493     1.1434564825515
 s    1 1.00
             0.1687144                   1
 p    3 1.00
             7.8682724   0.068999095584993
             1.8812885    0.31642397975315
             0.5442493    0.74430825237435
 p    1 1.00
             0.1687144                   1
 d    1 1.00
                   0.8                   1

40 0
 s    6 1.00
             3047.5249  0.0018347001629433
             457.36951    0.01403730124668
             103.94869   0.068842606114048
             29.210155    0.23218442062076
              9.286663    0.46794134155879
              3.163927    0.36231203217765
 s    3 1.00
             7.8682724   -0.11933240861517
             1.8812885   -0.16085421161283
             0.5442493     1.1434564825515
 s    1 1.00
             0.1687144                   1
 p    3 1.00
             7.8682724   0.068999095584993
             1.8812885    0.31642397975315
             0.5442493    0.74430825237435
 p    1 1.00
             0.1687144                   1
 d    1 1.00
                   0.8                   1

41 0
 s    3 1.00
             18.731137    0.03349459952309
             2.8253937    0.23472694665786
             0.6401217    0.81375731841339
 s    1 1.00
             0.1612778                   1

42 0
 s    6 1.00
             5484.6717   0.001831099805527
             825.23495   0.013950098518422
             188.04696    0.06844509273075
               52.9645    0.23271427528445
              16.89757    0.47019295006289
             5.7996353    0.35852086192309
 s    3 1.00
             15.539616   -0.11077750382508
             3.5999336   -0.14802630511126
             1.0137618     1.1307670390447
 s    1 1.00
             0.2700058                   1
 p    3 1.00
             15.539616   0.070874299543311
             3.5999336    0.33975279781076
             1.0137618    0.72715859531445
 p    1 1.00
             0.2700058                   1
 d    1 1.00
                   0.8                   1

43 0
 s    3 1.00
             18.731137    0.03349459952309
             2.8253937    0.23472694665786
             0.6401217    0.81375731841339
 s    1 1.00
             0.1612778                   1

[5d]
[7f]
[9g]

[MO]
 Sym= A
 Ene=               0
 Spin= Alpha
 Occup=    1.00000
   1    0.0018378886714778
   2    0.00028081052715159
   3    0.00034727295182922
   4    0.00017353732079692
   5    6.8733714355948e-05
   6    -0.0001165151001651
   7    -0.0018271622614236
   8    -0.00054710444804631
   9    0.00031261254951541
  10    6.4993921251643e-05
  11    -5.3348331440694e-05
  12    -3.086956482664e-05
  13    -3.2362525580164e-05
  14    -5.5453847352638e-06
  15    9.063670283426e-05
  16    0.0018383326085449
  17    -0.0038541915152554
  18    0.00023479358786251
  19    -0.001478952190093
  20    0.00016920305279424
  21    6.1352453630414e-05
  22    -8.2999519722968e-05
  23    -0.00024527169420961
  24    -9.1575160382028e-05
  25    0.00013054111618276
  26    -0.00012448470343018
  27    -7.3029436851602e-05
  28    3.7449415198948e-05
  29    -6.1535305333929e-05
  30    -2.2159476499167e-05
  31    3.4018291286363e-05
  32    -0.00020403922135143
  33    -0.015278188026977
  34    0.00090378503546086
  35    -0.0062161121349278
  36    0.0011358436675757
  37    0.00032521771925193
  38    -0.00010918723381793
  39    -0.0031086329851736
  40    -0.0011239425529909
  41    0.0014940930052547
  42    -0.00066042914610076
  43    0.00013908316897194
  44    2.5556646396939e-05
  45    0.0010551133744539
  46    0.00057714375604486
  47    0.00042477750338414
  48    0.00043685597388245
  49     -0.99510717341244
  50    -0.035728100915951
  51     0.028683669014349
  52    0.00042753900774166
  53    6.5561984310848e-05
  54    0.00025140808569403
  55    -0.00049749543441101
  56    0.00036124161729437
  57    -0.0025371493632059
  58    -0.00017270942121608
  59    0.00059735410101704
  60    0.00036532993136228
  61    -0.00055828193808548
  62    -0.00046753512034076
  63    0.0011110985261981
  64    -0.0052693881655932
  65    1.1351139875807e-06
  66    2.0308729154573e-06
  67    2.1418917102447e-08
  68    2.4313150125738e-07
  69    -1.0974917865305e-06
  70    -3.5945893302296e-07
  71    1.4994155915568e-06
  72    -1.5637327883319e-07
  73    -3.8432532245397e-06
  74    -8.1758023483559e-06
  75    -3.8632854695851e-06
  76    3.038519133199e-07
  77    1.6908173435508e-07
  78    -1.5698729268241e-07
  79    -1.8783321237898e-07
  80    4.3594088436144e-08
  81    -1.101338192707e-06
  82    -4.3751777170842e-06
  83    -1.4427742126849e-07
  84    3.3815819596146e-07
  85    2.4141928654069e-05
  86    -2.7071116047025e-06
  87    -4.856376487382e-07
  88    -2.9939584158734e-06
  89    -6.5759977668906e-06
  90    2.1017992712708e-05
  91    -3.0895678487302e-06
  92    -7.1415907563929e-07
  93    1.0345590673488e-06
  94    -1.4379698987659e-06
  95    1.4327232997762e-08
  96    2.958657287433e-07
  97    -2.4936016201013e-06
  98    -6.4340504646949e-06
  99    5.0233780986966e-07
 100    5.0847523769016e-06
 101    7.3789512762578e-07
 102    4.7508038714047e-06
 103    -9.8653627875069e-05
 104    9.3665958174886e-07
 105    2.9115120603096e-06
 106    1.9749525458406e-06
 107    8.7113705538333e-05
 108    -7.66949132109e-05
 109    -5.1876216516622e-05
 110    2.2443324203866e-06
 111    9.7725431279531e-07
 112    2.3180326499074e-08
 113    -1.0490960685964e-06
 114    1.9952042212612e-06
 115    1.1577052092467e-06
 116    9.8803515042262e-06
 117    -9.6705383593341e-05
 118    3.6202651694965e-06
 119    -5.1403893421676e-06
 120    9.0566004142289e-07
 121    3.5196380936987e-06
 122    7.934860112066e-06
 123    -3.2245695586598e-05
 124    -2.0409170396291e-07
 125    1.2718231379454e-06
 126    1.5255752652821e-06
 127    5.5270041776056e-07
 128    1.7007895859155e-06
 129    1.457414156379e-06
 130    2.3850630861847e-05
 131    -3.0765579871623e-05
 132    -3.1709346558888e-06
 133    1.3185167430755e-06
 134    -1.5198583259298e-05
 135    0.00013036024954063
 136    -1.4062736330108e-05
 137    0.00018750924064206
 138    -4.9512883054425e-06
 139    -5.6536391446429e-06
 140    -1.3816969506466e-06
 141    -1.7293778601152e-06
 142    -2.5425284672816e-06
 143    1.7284438835097e-06
 144    1.286877552244e-05
 145    -3.8719788341352e-05
 146    -3.505990645759e-07
 147    -1.699194219439e-06
 148    -1.5244450223354e-06
 149    -2.5504063005555e-05
 150    1.036880672459e-05
 151     1.69245523192e-05
 152    3.1918378653249e-06
 153    1.7980979701136e-06
 154    7.8444983913934e-07
 155    -2.1497740304308e-06
 156    1.9578133718168e-06
 157    -2.3127571172637e-07
 158    -3.828456424835e-06
 159    4.1667838020136e-06
 160    -2.5788702394584e-06
 161    6.8928828282032e-07
 162    4.7401887270388e-07
 163    2.0523313888966e-05
 164    -5.0481234491994e-06
 165    -3.6556557878955e-06
 166    -1.6467780351524e-06
 167    4.2884811368606e-07
 168    4.6960905855911e-08
 169    1.3663873819608e-07
 170    -9.2248235735227e-07
 171    3.834930287745e-07
 172     4.36722519181e-06
 173    -1.3287829623198e-05
 174    8.3471509776614e-07
 175    -2.9616479081213e-08
 176    -3.5264708685912e-06
 177    8.1407033400914e-06
 178    -1.5178041581507e-06
 179    1.2242497355318e-05
 180    -6.277565649267e-07
 181    -1.5277780947823e-06
 182    -4.1993910345588e-07
 183    9.3108568639507e-07
 184    -3.1326299213791e-07
 185    1.0839751128416e-06
 186    1.1114267147977e-05
 187    -1.801200826851e-05
 188    -3.8162630035654e-09
 189    -7.4552652823012e-07
 190    -4.5088180307523e-06
 191    -1.2773977048599e-06
 192    3.1143316198831e-06
 193    2.1038555852432e-05
 194    -9.4480755157372e-07
 195    -3.9190577246928e-07
 196    -8.0905497607786e-07
 197    -1.253187436846e-07
 198    2.3069503128457e-08
 199    2.3142576533858e-06
 200    5.6459671528949e-08
 201    3.4620206209544e-07
 202    -9.628405898277e-06
 203    7.2648886829127e-06
 204    1.5918277217862e-05
 205    -6.3581399004697e-06
 206    2.9474109356013e-05
 207    -5.9336020664367e-06
 208    9.3238611452422e-06
 209    -3.9188655704262e-06
 210    1.2890168816131e-05
 211    -2.5642576569846e-06
 212    -6.6662950744247e-06
 213    6.831846410029e-07
 214    8.0024779353562e-06
 215    -3.0362441805704e-07
 216    2.1536966394437e-05
 217    -8.9830668648436e-08
 218    -1.3438377389674e-06
 219    -3.3167089506953e-07
 220    -2.0558674626081e-06
 221    3.052426750486e-06
 222    3.8824063363041e-05
 223    -7.8886709176385e-05
 224    5.7471787039823e-06
 225    2.6431845885608e-06
 226    -9.1081385847485e-06
 227    -0.00023372685512538
 228    -9.8278329121727e-05
 229    0.00025012136353691
 230    3.2077137632002e-06
 231    1.5412220534313e-05
 232    6.8308756119954e-06
 233    -1.0724330686851e-05
 234    -9.8604418297065e-06
 235    -5.7740945422583e-06
 236    -6.3558797669609e-06
 237    -0.00022823123319041
 238    -1.1777791696844e-05
 239    -4.0784656897472e-06
 240    -4.464007426306e-06
 241    0.00028684271040791
 242    -2.750947919356e-05
 243    0.00058438887357213
 244    -3.6392457098037e-06
 245    -2.6111872198324e-05
 246    -5.0296228952878e-06
 247    -4.2921326900567e-06
 248    3.4664478100611e-06
 249    1.1414806103584e-05
 250    -0.00014800548970051
 251    -3.0599567331813e-05
 252    1.042189637993e-05
 253    -0.00089784061661994
 254    -4.1077496353373e-06
 255    -4.4132846248124e-06
 256    1.9069694965723e-05
 257    0.00015113600570681
 258    -0.0002240271039478
 259    0.0013280714866752
 260    -3.3391168653907e-05
 261    3.8249116406546e-05
 262    2.3598587827423e-05
 263    -2.9006464171582e-06
 264    -1.1577541984399e-05
 265    3.4333988703463e-05
 266    -0.00032855878683145
 267    2.1218325895409e-05
 268    0.00018781493520798
 269    0.00020677046693608
 270    -0.00039495621018869
 271     -0.01095590637503
 272    -0.0015088447046647
 273    -0.0011168439759856
 274    0.0036572996391265
 275    0.0025214022870621
 276    0.00091710998652889
 277    -0.0012464105534623
 278    0.00064792249407257
 279    -0.0010544207527689
 280    -0.00056507932684983