[Molden Format]
made by pyscf v[2.0.1]
[Atoms] (AU)
C   1   6     0.69100024066471     0.64692934207205    -3.48223131169301
H   2   1     2.68052439830868     1.13355088658700    -3.25784032593313
C   3   6    -0.36286361513219     0.85440132524594    -5.97030179418974
H   4   1    -2.35448549047279     0.36322488579172    -6.17995817793143
C   5   6     0.93697958957450     1.61209284601821    -8.05828437677121
H   6   1     1.25179717896080     3.62344259528190    -8.36861463213972
C   7   6     1.93299030663405    -0.10622024085708    -9.90534865945394
H   8   1     1.60367989661651    -2.11561190296467    -9.56827000221191
H   9   1     1.55630230933075    -1.92953025305990    12.99630010416247
C   10   6     0.75233899775814    -2.21270439606481    11.10705728102219
H   11   1    -0.43433408177274    -3.90944857546550    11.22216085340412
C   12   6     2.86362581178706    -2.63237380607947     9.17926416456045
H   13   1     4.39038949912609    -1.24955421540245     9.49899813497433
H   14   1     3.74629220191363    -4.48798724300892     9.47414880959024
C   15   6     2.02478325613682    -2.42177285709634     6.44560829588644
C   16   6     3.88048732735477    -3.58795445234514     4.61402886975252
C   17   6    -0.18412382258602    -1.30464291234259     5.76021113872346
C   18   6    -2.10044360464350    -0.26837831858460     7.71610340967100
C   19   6    -3.08956938670431     2.35282328359417     6.88693925039594
C   20   6    -4.37372924086464    -2.09766595989678     7.93610724222001
C   21   6    -0.83850430601230     0.06372213486173    10.33002307638377
H   22   1     0.38411922151109     1.74281358582432    10.27380136542181
H   23   1    -2.30980003007874     0.45460143924521    11.73986301809809
H   24   1     4.58527064644668    -5.38706904487420     5.36778158031719
H   25   1     5.54944938085014    -2.37631462192748     4.35398898413318
H   26   1     3.06633019150423    -3.94118377050688     2.75255466040884
H   27   1    -4.17727778763735     2.26573369139522     5.12914900961283
H   28   1    -1.52662344944051     3.68001877445626     6.59540397144508
H   29   1    -4.32916174397830     3.13643051467482     8.35225460090378
H   30   1    -5.32329548508442    -2.36691813602939     6.11583672749896
H   31   1    -5.77989366602257    -1.33896741843465     9.25748940450990
H   32   1    -3.79310905208926    -3.96389819310853     8.61386170102686
C   33   6    -1.01100794811226    -1.06331657314144     3.11929490449947
C   34   6     0.37686231036534    -0.33275864505552     1.09165013605873
H   35   1    -3.01671213906703    -1.40297922279997     2.77827895090944
C   36   6    -0.64382707979370    -0.11591880174385    -1.42063131251064
H   37   1     2.35569259782137     0.17174499283897     1.33641070251401
H   38   1    -2.63317482980319    -0.60229203511219    -1.66119700387645
C   39   6     3.23483881481583     0.56109494848388   -12.01167590238676
C   40   6     4.17213386166354    -1.33546547775814   -13.78129708499957
H   41   1     3.62751071831436     2.52907164005278   -12.45960989181140
O   42   8     5.35190984410731    -0.86987395658954   -15.70799822813352
H   43   1     3.72751838268070    -3.32497850208065   -13.24806737881206
[GTO]
1 0
 s    6 1.00
             3047.5249  0.0018347001629433
             457.36951    0.01403730124668
             103.94869   0.068842606114048
             29.210155    0.23218442062076
              9.286663    0.46794134155879
              3.163927    0.36231203217765
 s    3 1.00
             7.8682724   -0.11933240861517
             1.8812885   -0.16085421161283
             0.5442493     1.1434564825515
 s    1 1.00
             0.1687144                   1
 p    3 1.00
             7.8682724   0.068999095584993
             1.8812885    0.31642397975315
             0.5442493    0.74430825237435
 p    1 1.00
             0.1687144                   1
 d    1 1.00
                   0.8                   1

2 0
 s    3 1.00
             18.731137    0.03349459952309
             2.8253937    0.23472694665786
             0.6401217    0.81375731841339
 s    1 1.00
             0.1612778                   1

3 0
 s    6 1.00
             3047.5249  0.0018347001629433
             457.36951    0.01403730124668
             103.94869   0.068842606114048
             29.210155    0.23218442062076
              9.286663    0.46794134155879
              3.163927    0.36231203217765
 s    3 1.00
             7.8682724   -0.11933240861517
             1.8812885   -0.16085421161283
             0.5442493     1.1434564825515
 s    1 1.00
             0.1687144                   1
 p    3 1.00
             7.8682724   0.068999095584993
             1.8812885    0.31642397975315
             0.5442493    0.74430825237435
 p    1 1.00
             0.1687144                   1
 d    1 1.00
                   0.8                   1

4 0
 s    3 1.00
             18.731137    0.03349459952309
             2.8253937    0.23472694665786
             0.6401217    0.81375731841339
 s    1 1.00
             0.1612778                   1

5 0
 s    6 1.00
             3047.5249  0.0018347001629433
             457.36951    0.01403730124668
             103.94869   0.068842606114048
             29.210155    0.23218442062076
              9.286663    0.46794134155879
              3.163927    0.36231203217765
 s    3 1.00
             7.8682724   -0.11933240861517
             1.8812885   -0.16085421161283
             0.5442493     1.1434564825515
 s    1 1.00
             0.1687144                   1
 p    3 1.00
             7.8682724   0.068999095584993
             1.8812885    0.31642397975315
             0.5442493    0.74430825237435
 p    1 1.00
             0.1687144                   1
 d    1 1.00
                   0.8                   1

6 0
 s    3 1.00
             18.731137    0.03349459952309
             2.8253937    0.23472694665786
             0.6401217    0.81375731841339
 s    1 1.00
             0.1612778                   1

7 0
 s    6 1.00
             3047.5249  0.0018347001629433
             457.36951    0.01403730124668
             103.94869   0.068842606114048
             29.210155    0.23218442062076
              9.286663    0.46794134155879
              3.163927    0.36231203217765
 s    3 1.00
             7.8682724   -0.11933240861517
             1.8812885   -0.16085421161283
             0.5442493     1.1434564825515
 s    1 1.00
             0.1687144                   1
 p    3 1.00
             7.8682724   0.068999095584993
             1.8812885    0.31642397975315
             0.5442493    0.74430825237435
 p    1 1.00
             0.1687144                   1
 d    1 1.00
                   0.8                   1

8 0
 s    3 1.00
             18.731137    0.03349459952309
             2.8253937    0.23472694665786
             0.6401217    0.81375731841339
 s    1 1.00
             0.1612778                   1

9 0
 s    3 1.00
             18.731137    0.03349459952309
             2.8253937    0.23472694665786
             0.6401217    0.81375731841339
 s    1 1.00
             0.1612778                   1

10 0
 s    6 1.00
             3047.5249  0.0018347001629433
             457.36951    0.01403730124668
             103.94869   0.068842606114048
             29.210155    0.23218442062076
              9.286663    0.46794134155879
              3.163927    0.36231203217765
 s    3 1.00
             7.8682724   -0.11933240861517
             1.8812885   -0.16085421161283
             0.5442493     1.1434564825515
 s    1 1.00
             0.1687144                   1
 p    3 1.00
             7.8682724   0.068999095584993
             1.8812885    0.31642397975315
             0.5442493    0.74430825237435
 p    1 1.00
             0.1687144                   1
 d    1 1.00
                   0.8                   1

11 0
 s    3 1.00
             18.731137    0.03349459952309
             2.8253937    0.23472694665786
             0.6401217    0.81375731841339
 s    1 1.00
             0.1612778                   1

12 0
 s    6 1.00
             3047.5249  0.0018347001629433
             457.36951    0.01403730124668
             103.94869   0.068842606114048
             29.210155    0.23218442062076
              9.286663    0.46794134155879
              3.163927    0.36231203217765
 s    3 1.00
             7.8682724   -0.11933240861517
             1.8812885   -0.16085421161283
             0.5442493     1.1434564825515
 s    1 1.00
             0.1687144                   1
 p    3 1.00
             7.8682724   0.068999095584993
             1.8812885    0.31642397975315
             0.5442493    0.74430825237435
 p    1 1.00
             0.1687144                   1
 d    1 1.00
                   0.8                   1

13 0
 s    3 1.00
             18.731137    0.03349459952309
             2.8253937    0.23472694665786
             0.6401217    0.81375731841339
 s    1 1.00
             0.1612778                   1

14 0
 s    3 1.00
             18.731137    0.03349459952309
             2.8253937    0.23472694665786
             0.6401217    0.81375731841339
 s    1 1.00
             0.1612778                   1

15 0
 s    6 1.00
             3047.5249  0.0018347001629433
             457.36951    0.01403730124668
             103.94869   0.068842606114048
             29.210155    0.23218442062076
              9.286663    0.46794134155879
              3.163927    0.36231203217765
 s    3 1.00
             7.8682724   -0.11933240861517
             1.8812885   -0.16085421161283
             0.5442493     1.1434564825515
 s    1 1.00
             0.1687144                   1
 p    3 1.00
             7.8682724   0.068999095584993
             1.8812885    0.31642397975315
             0.5442493    0.74430825237435
 p    1 1.00
             0.1687144                   1
 d    1 1.00
                   0.8                   1

16 0
 s    6 1.00
             3047.5249  0.0018347001629433
             457.36951    0.01403730124668
             103.94869   0.068842606114048
             29.210155    0.23218442062076
              9.286663    0.46794134155879
              3.163927    0.36231203217765
 s    3 1.00
             7.8682724   -0.11933240861517
             1.8812885   -0.16085421161283
             0.5442493     1.1434564825515
 s    1 1.00
             0.1687144                   1
 p    3 1.00
             7.8682724   0.068999095584993
             1.8812885    0.31642397975315
             0.5442493    0.74430825237435
 p    1 1.00
             0.1687144                   1
 d    1 1.00
                   0.8                   1

17 0
 s    6 1.00
             3047.5249  0.0018347001629433
             457.36951    0.01403730124668
             103.94869   0.068842606114048
             29.210155    0.23218442062076
              9.286663    0.46794134155879
              3.163927    0.36231203217765
 s    3 1.00
             7.8682724   -0.11933240861517
             1.8812885   -0.16085421161283
             0.5442493     1.1434564825515
 s    1 1.00
             0.1687144                   1
 p    3 1.00
             7.8682724   0.068999095584993
             1.8812885    0.31642397975315
             0.5442493    0.74430825237435
 p    1 1.00
             0.1687144                   1
 d    1 1.00
                   0.8                   1

18 0
 s    6 1.00
             3047.5249  0.0018347001629433
             457.36951    0.01403730124668
             103.94869   0.068842606114048
             29.210155    0.23218442062076
              9.286663    0.46794134155879
              3.163927    0.36231203217765
 s    3 1.00
             7.8682724   -0.11933240861517
             1.8812885   -0.16085421161283
             0.5442493     1.1434564825515
 s    1 1.00
             0.1687144                   1
 p    3 1.00
             7.8682724   0.068999095584993
             1.8812885    0.31642397975315
             0.5442493    0.74430825237435
 p    1 1.00
             0.1687144                   1
 d    1 1.00
                   0.8                   1

19 0
 s    6 1.00
             3047.5249  0.0018347001629433
             457.36951    0.01403730124668
             103.94869   0.068842606114048
             29.210155    0.23218442062076
              9.286663    0.46794134155879
              3.163927    0.36231203217765
 s    3 1.00
             7.8682724   -0.11933240861517
             1.8812885   -0.16085421161283
             0.5442493     1.1434564825515
 s    1 1.00
             0.1687144                   1
 p    3 1.00
             7.8682724   0.068999095584993
             1.8812885    0.31642397975315
             0.5442493    0.74430825237435
 p    1 1.00
             0.1687144                   1
 d    1 1.00
                   0.8                   1

20 0
 s    6 1.00
             3047.5249  0.0018347001629433
             457.36951    0.01403730124668
             103.94869   0.068842606114048
             29.210155    0.23218442062076
              9.286663    0.46794134155879
              3.163927    0.36231203217765
 s    3 1.00
             7.8682724   -0.11933240861517
             1.8812885   -0.16085421161283
             0.5442493     1.1434564825515
 s    1 1.00
             0.1687144                   1
 p    3 1.00
             7.8682724   0.068999095584993
             1.8812885    0.31642397975315
             0.5442493    0.74430825237435
 p    1 1.00
             0.1687144                   1
 d    1 1.00
                   0.8                   1

21 0
 s    6 1.00
             3047.5249  0.0018347001629433
             457.36951    0.01403730124668
             103.94869   0.068842606114048
             29.210155    0.23218442062076
              9.286663    0.46794134155879
              3.163927    0.36231203217765
 s    3 1.00
             7.8682724   -0.11933240861517
             1.8812885   -0.16085421161283
             0.5442493     1.1434564825515
 s    1 1.00
             0.1687144                   1
 p    3 1.00
             7.8682724   0.068999095584993
             1.8812885    0.31642397975315
             0.5442493    0.74430825237435
 p    1 1.00
             0.1687144                   1
 d    1 1.00
                   0.8                   1

22 0
 s    3 1.00
             18.731137    0.03349459952309
             2.8253937    0.23472694665786
             0.6401217    0.81375731841339
 s    1 1.00
             0.1612778                   1

23 0
 s    3 1.00
             18.731137    0.03349459952309
             2.8253937    0.23472694665786
             0.6401217    0.81375731841339
 s    1 1.00
             0.1612778                   1

24 0
 s    3 1.00
             18.731137    0.03349459952309
             2.8253937    0.23472694665786
             0.6401217    0.81375731841339
 s    1 1.00
             0.1612778                   1

25 0
 s    3 1.00
             18.731137    0.03349459952309
             2.8253937    0.23472694665786
             0.6401217    0.81375731841339
 s    1 1.00
             0.1612778                   1

26 0
 s    3 1.00
             18.731137    0.03349459952309
             2.8253937    0.23472694665786
             0.6401217    0.81375731841339
 s    1 1.00
             0.1612778                   1

27 0
 s    3 1.00
             18.731137    0.03349459952309
             2.8253937    0.23472694665786
             0.6401217    0.81375731841339
 s    1 1.00
             0.1612778                   1

28 0
 s    3 1.00
             18.731137    0.03349459952309
             2.8253937    0.23472694665786
             0.6401217    0.81375731841339
 s    1 1.00
             0.1612778                   1

29 0
 s    3 1.00
             18.731137    0.03349459952309
             2.8253937    0.23472694665786
             0.6401217    0.81375731841339
 s    1 1.00
             0.1612778                   1

30 0
 s    3 1.00
             18.731137    0.03349459952309
             2.8253937    0.23472694665786
             0.6401217    0.81375731841339
 s    1 1.00
             0.1612778                   1

31 0
 s    3 1.00
             18.731137    0.03349459952309
             2.8253937    0.23472694665786
             0.6401217    0.81375731841339
 s    1 1.00
             0.1612778                   1

32 0
 s    3 1.00
             18.731137    0.03349459952309
             2.8253937    0.23472694665786
             0.6401217    0.81375731841339
 s    1 1.00
             0.1612778                   1

33 0
 s    6 1.00
             3047.5249  0.0018347001629433
             457.36951    0.01403730124668
             103.94869   0.068842606114048
             29.210155    0.23218442062076
              9.286663    0.46794134155879
              3.163927    0.36231203217765
 s    3 1.00
             7.8682724   -0.11933240861517
             1.8812885   -0.16085421161283
             0.5442493     1.1434564825515
 s    1 1.00
             0.1687144                   1
 p    3 1.00
             7.8682724   0.068999095584993
             1.8812885    0.31642397975315
             0.5442493    0.74430825237435
 p    1 1.00
             0.1687144                   1
 d    1 1.00
                   0.8                   1

34 0
 s    6 1.00
             3047.5249  0.0018347001629433
             457.36951    0.01403730124668
             103.94869   0.068842606114048
             29.210155    0.23218442062076
              9.286663    0.46794134155879
              3.163927    0.36231203217765
 s    3 1.00
             7.8682724   -0.11933240861517
             1.8812885   -0.16085421161283
             0.5442493     1.1434564825515
 s    1 1.00
             0.1687144                   1
 p    3 1.00
             7.8682724   0.068999095584993
             1.8812885    0.31642397975315
             0.5442493    0.74430825237435
 p    1 1.00
             0.1687144                   1
 d    1 1.00
                   0.8                   1

35 0
 s    3 1.00
             18.731137    0.03349459952309
             2.8253937    0.23472694665786
             0.6401217    0.81375731841339
 s    1 1.00
             0.1612778                   1

36 0
 s    6 1.00
             3047.5249  0.0018347001629433
             457.36951    0.01403730124668
             103.94869   0.068842606114048
             29.210155    0.23218442062076
              9.286663    0.46794134155879
              3.163927    0.36231203217765
 s    3 1.00
             7.8682724   -0.11933240861517
             1.8812885   -0.16085421161283
             0.5442493     1.1434564825515
 s    1 1.00
             0.1687144                   1
 p    3 1.00
             7.8682724   0.068999095584993
             1.8812885    0.31642397975315
             0.5442493    0.74430825237435
 p    1 1.00
             0.1687144                   1
 d    1 1.00
                   0.8                   1

37 0
 s    3 1.00
             18.731137    0.03349459952309
             2.8253937    0.23472694665786
             0.6401217    0.81375731841339
 s    1 1.00
             0.1612778                   1

38 0
 s    3 1.00
             18.731137    0.03349459952309
             2.8253937    0.23472694665786
             0.6401217    0.81375731841339
 s    1 1.00
             0.1612778                   1

39 0
 s    6 1.00
             3047.5249  0.0018347001629433
             457.36951    0.01403730124668
             103.94869   0.068842606114048
             29.210155    0.23218442062076
              9.286663    0.46794134155879
              3.163927    0.36231203217765
 s    3 1.00
             7.8682724   -0.11933240861517
             1.8812885   -0.16085421161283
             0.5442493     1.1434564825515
 s    1 1.00
             0.1687144                   1
 p    3 1.00
             7.8682724   0.068999095584993
             1.8812885    0.31642397975315
             0.5442493    0.74430825237435
 p    1 1.00
             0.1687144                   1
 d    1 1.00
                   0.8                   1

40 0
 s    6 1.00
             3047.5249  0.0018347001629433
             457.36951    0.01403730124668
             103.94869   0.068842606114048
             29.210155    0.23218442062076
              9.286663    0.46794134155879
              3.163927    0.36231203217765
 s    3 1.00
             7.8682724   -0.11933240861517
             1.8812885   -0.16085421161283
             0.5442493     1.1434564825515
 s    1 1.00
             0.1687144                   1
 p    3 1.00
             7.8682724   0.068999095584993
             1.8812885    0.31642397975315
             0.5442493    0.74430825237435
 p    1 1.00
             0.1687144                   1
 d    1 1.00
                   0.8                   1

41 0
 s    3 1.00
             18.731137    0.03349459952309
             2.8253937    0.23472694665786
             0.6401217    0.81375731841339
 s    1 1.00
             0.1612778                   1

42 0
 s    6 1.00
             5484.6717   0.001831099805527
             825.23495   0.013950098518422
             188.04696    0.06844509273075
               52.9645    0.23271427528445
              16.89757    0.47019295006289
             5.7996353    0.35852086192309
 s    3 1.00
             15.539616   -0.11077750382508
             3.5999336   -0.14802630511126
             1.0137618     1.1307670390447
 s    1 1.00
             0.2700058                   1
 p    3 1.00
             15.539616   0.070874299543311
             3.5999336    0.33975279781076
             1.0137618    0.72715859531445
 p    1 1.00
             0.2700058                   1
 d    1 1.00
                   0.8                   1

43 0
 s    3 1.00
             18.731137    0.03349459952309
             2.8253937    0.23472694665786
             0.6401217    0.81375731841339
 s    1 1.00
             0.1612778                   1

[5d]
[7f]
[9g]

[MO]
 Sym= A
 Ene=               0
 Spin= Alpha
 Occup=    1.00000
   1     0.018642808681774
   2    -0.00090549226653624
   3    0.0068093309323473
   4    0.0003486891038453
   5    -9.7866893353268e-05
   6    0.0011722334873072
   7    0.00082296326133352
   8    0.0011213630172648
   9    -0.005342463152827
  10    -0.00092337401263229
  11    -0.00086646960966794
  12    0.00014920054436667
  13    -0.00019906761535407
  14    4.6910088221148e-05
  15    -0.00044835382349982
  16    -0.00080650224300913
  17       0.9948581284777
  18     0.036752192773307
  19    -0.028422259205556
  20    0.0008809821557407
  21    0.00014648496450621
  22    -0.00057798052127004
  23    -0.0034761751144585
  24    -0.0010153499608999
  25    -0.00071977280296569
  26    0.00078243156542651
  27    -0.00028796964997346
  28    -0.00035162429360879
  29    0.00029920123522938
  30    0.00017866705635928
  31    -0.0010989525035412
  32    0.0039086852500982
  33     0.015806185828242
  34    -0.00018004942667349
  35    0.0011556954912368
  36    0.00082485782589484
  37    0.00030634889959259
  38    -0.0011308141046873
  39    -0.0018457164002242
  40    0.0034131864822703
  41    0.0044231448361783
  42    -0.00063098830930837
  43     0.001148071671653
  44    0.00043421217189957
  45    -0.00032667486155242
  46    -0.00040314737024422
  47    -0.0005426014736512
  48    -0.0006068289258821
  49    0.00033948522209529
  50    -0.00052539395769695
  51    0.00042855675487609
  52    0.00019903523735091
  53    6.8008991775221e-06
  54    -0.00043447047443661
  55    -0.0040600033120055
  56    0.0011264867271354
  57    0.0071378636734443
  58    -0.0001151778167558
  59    -5.2495533082867e-06
  60    0.00020516429051726
  61    -0.0002479128325148
  62    -0.00010901295131343
  63    -0.00048039271829481
  64    0.00019783253418973
  65    -3.9619856823341e-06
  66    -5.2316095147999e-06
  67    8.1978394939999e-07
  68    -3.8093967956511e-06
  69    7.0486148847516e-06
  70    2.2123335995647e-06
  71    -5.4113193163052e-06
  72    1.1436595737803e-06
  73    8.2412430847888e-06
  74    2.3394546847902e-05
  75    5.6014421174881e-06
  76    -5.5126995699178e-07
  77    -5.8986066793811e-07
  78    6.5380534029327e-07
  79    6.1195953566166e-07
  80    -9.4472056153593e-08
  81    2.7193950490149e-06
  82    1.3168062959695e-05
  83    1.8348305982057e-06
  84    -1.7337508809074e-06
  85    -8.5195270925211e-05
  86    9.5534405854274e-06
  87    2.6886260583073e-06
  88    1.6037848114774e-05
  89    3.0114750115023e-05
  90    -6.0947756822747e-05
  91    2.190447643617e-05
  92    1.0851788575881e-06
  93    -2.2838178714487e-06
  94    4.0648272265523e-06
  95    -3.7914902834733e-07
  96    -6.725387883379e-07
  97    1.1746563951491e-05
  98     2.00077256102e-05
  99    -2.3603371902903e-06
 100    -1.8115535019839e-05
 101    -3.0772265525651e-06
 102    -9.7986101470041e-06
 103    0.00021728447544495
 104    -1.4968553160969e-05
 105    -1.9556922915667e-05
 106    -5.3927460615384e-06
 107    -0.00020468396587623
 108     0.000167354231314
 109    0.00016361731167356
 110    -7.0703670143274e-06
 111    -2.7716634513861e-06
 112    1.1573287926975e-06
 113    2.6509652872227e-06
 114    -5.5979001500593e-06
 115    -5.917265667111e-06
 116    -2.8932047077072e-05
 117    0.0002580204264876
 118    -5.7057217940863e-06
 119    9.2116517744389e-06
 120    9.2863947142522e-06
 121    -5.9185435118469e-05
 122    2.2182625882265e-05
 123    3.6949685143234e-05
 124    9.6020722147103e-07
 125    -2.9876900809824e-06
 126    -2.4071180450698e-06
 127    1.1897886689448e-06
 128    -1.8471002447799e-06
 129    7.2447542807081e-06
 130    -7.6222433265008e-05
 131    0.00012921113393172
 132    1.9296979857692e-05
 133    -5.8611801680639e-06
 134    9.8200241678477e-05
 135    -0.00032004871525632
 136    4.1539157781243e-05
 137    -0.00041357512586351
 138    1.3255823027241e-05
 139    7.7764776220186e-06
 140    3.7839385113072e-06
 141    2.9222116769542e-06
 142    5.2055442643459e-06
 143    -1.0168051124168e-05
 144    -8.4116042778394e-06
 145    8.4887709349447e-05
 146    1.9990955631307e-05
 147    -8.4039950215865e-06
 148    -2.0244904447372e-05
 149    5.0552504344789e-05
 150    -3.6172820079655e-05
 151    -5.2132154401212e-05
 152    -9.5869984825617e-06
 153    -4.4210619973945e-06
 154    -2.4471498545934e-06
 155    4.9270827320062e-06
 156    -5.1381799638941e-06
 157    2.8810047367988e-07
 158    1.2359454754719e-05
 159    -9.1173093231943e-06
 160    6.8570344350121e-06
 161    -3.8364702670471e-06
 162    2.2796547497428e-06
 163    -4.6009638018282e-05
 164    1.1255748099909e-05
 165    1.1966826247344e-05
 166    3.0154317942598e-06
 167    -8.7326298575685e-07
 168    2.2952379159336e-07
 169    9.3350464920661e-08
 170    1.1510323147118e-06
 171    -1.2695115655055e-06
 172    -1.0221933869318e-05
 173    2.0809944321935e-05
 174    -2.7855529289118e-06
 175    1.4353397289189e-06
 176    9.4562156793574e-06
 177    -1.3779500154129e-05
 178    1.1018702006562e-06
 179    -3.3224789601063e-05
 180    1.2602059269976e-06
 181    3.1800702133923e-06
 182    1.120009609533e-07
 183    -9.5631992129611e-07
 184    1.2791175562582e-06
 185    3.6879879069793e-07
 186    -3.3143723886159e-05
 187    3.7906518028011e-05
 188    2.7864128817901e-06
 189    4.2393563718493e-06
 190    2.2762458933226e-05
 191    1.0973715182801e-05
 192    -1.9614136032113e-06
 193    -4.7103626347036e-05
 194    3.7996803816492e-06
 195    1.1580600159495e-07
 196    2.6397177667101e-06
 197    -5.8683683246956e-07
 198    1.5890259118052e-07
 199    -7.0856243218071e-06
 200    -2.1404440368565e-06
 201    4.7132102583344e-06
 202    3.5451292806274e-05
 203    -1.3411010690767e-05
 204    -7.8251776237684e-06
 205    2.8671804640502e-06
 206    -2.1102036950963e-05
 207    7.6399600205426e-06
 208    -6.8092058527081e-05
 209    5.9409729168126e-06
 210    -3.1082509188815e-05
 211    4.4424081205579e-06
 212    1.4551412300103e-05
 213    2.0282472143987e-06
 214    -1.5179835942894e-05
 215    -4.7915022210016e-06
 216    -4.5454210768457e-05
 217    4.2445253708516e-06
 218    1.3551162516835e-05
 219    -2.6820176932587e-07
 220    2.9121521084069e-06
 221    -8.6513535120739e-05
 222    7.9533438260732e-05
 223    0.00082970722235871
 224    9.9997907561043e-05
 225    5.7191320383979e-05
 226    -0.00020536947485339
 227    0.00060286781655982
 228    0.0002913208634435
 229    -0.0009347946512747
 230    -3.2679803085276e-06
 231    -4.3399141876448e-05
 232    -1.9765047153889e-05
 233    2.2569449962273e-05
 234    2.2822805534494e-05
 235    0.00014173408873251
 236    -0.00032234971136516
 237    -0.00040461019352993
 238    -0.00020627096149104
 239    -0.00015618881253986
 240    0.00054564350611656
 241    0.00017751690721872
 242    0.00024051773673435
 243    -0.0012323279543747
 244    4.9089482080661e-06
 245    5.3353038072279e-05
 246    1.4168779948155e-05
 247    1.0771732083478e-05
 248    -5.2748548070706e-07
 249    -1.6367046299257e-05
 250    0.00028387991397224
 251    -0.00034146334339833
 252    -0.00043522310045637
 253    0.0019888700426292
 254    -0.00049273715284845
 255    -0.00010388497490543
 256    -0.00019445133259564
 257    -0.00025845837177035
 258    0.00040528780283623
 259    -0.0018139364325636
 260    -7.8699829632051e-05
 261    -2.8742153180942e-05
 262    -1.9730811619775e-05
 263    0.00014055106499081
 264    9.6460753547578e-05
 265    -0.000251443825823
 266    0.00014474307490404
 267    0.00022068667506154
 268    -0.00021770649572428
 269    -1.8090194646725e-05
 270    -0.00047855464418896
 271    0.0064033858346769
 272    -1.5867388705915e-05
 273    -0.00016061225993078
 274    7.4539195076313e-05
 275    -0.0017279585753824
 276    -0.0027207778014929
 277    0.0023455355849333
 278    7.5435832810995e-05
 279    -0.0001719584582463
 280    -6.6710950185025e-05