[Molden Format]
made by pyscf v[2.0.1]
[Atoms] (AU)
C   1   6     0.69100024066471     0.64692934207205    -3.48223131169301
H   2   1     2.68052439830868     1.13355088658700    -3.25784032593313
C   3   6    -0.36286361513219     0.85440132524594    -5.97030179418974
H   4   1    -2.35448549047279     0.36322488579172    -6.17995817793143
C   5   6     0.93697958957450     1.61209284601821    -8.05828437677121
H   6   1    -0.10682308805726     2.30253989392639    -9.69373588628611
C   7   6     3.64263503193718     1.55467149193689    -8.23832629511906
H   8   1     4.66272936056768     0.85936926442728    -6.58433578959761
H   9   1     1.55630230933075    -1.92953025305990    12.99630010416247
C   10   6     0.75233899775814    -2.21270439606481    11.10705728102219
H   11   1    -0.43433408177274    -3.90944857546550    11.22216085340412
C   12   6     2.86362581178706    -2.63237380607947     9.17926416456045
H   13   1     4.39038949912609    -1.24955421540245     9.49899813497433
H   14   1     3.74629220191363    -4.48798724300892     9.47414880959024
C   15   6     2.02478325613682    -2.42177285709634     6.44560829588644
C   16   6     3.88048732735477    -3.58795445234514     4.61402886975252
C   17   6    -0.18412382258602    -1.30464291234259     5.76021113872346
C   18   6    -2.10044360464350    -0.26837831858460     7.71610340967100
C   19   6    -3.08956938670431     2.35282328359417     6.88693925039594
C   20   6    -4.37372924086464    -2.09766595989678     7.93610724222001
C   21   6    -0.83850430601230     0.06372213486173    10.33002307638377
H   22   1     0.38411922151109     1.74281358582432    10.27380136542181
H   23   1    -2.30980003007874     0.45460143924521    11.73986301809809
H   24   1     4.58527064644668    -5.38706904487420     5.36778158031719
H   25   1     5.54944938085014    -2.37631462192748     4.35398898413318
H   26   1     3.06633019150423    -3.94118377050688     2.75255466040884
H   27   1    -4.17727778763735     2.26573369139522     5.12914900961283
H   28   1    -1.52662344944051     3.68001877445626     6.59540397144508
H   29   1    -4.32916174397830     3.13643051467482     8.35225460090378
H   30   1    -5.32329548508442    -2.36691813602939     6.11583672749896
H   31   1    -5.77989366602257    -1.33896741843465     9.25748940450990
H   32   1    -3.79310905208926    -3.96389819310853     8.61386170102686
C   33   6    -1.01100794811226    -1.06331657314144     3.11929490449947
C   34   6     0.37686231036534    -0.33275864505552     1.09165013605873
H   35   1    -3.01671213906703    -1.40297922279997     2.77827895090944
C   36   6    -0.64382707979370    -0.11591880174385    -1.42063131251064
H   37   1     2.35569259782137     0.17174499283897     1.33641070251401
H   38   1    -2.63317482980319    -0.60229203511219    -1.66119700387645
C   39   6     5.01588399354044     2.28654094702299   -10.27677863573407
C   40   6     7.77080404832789     2.15450646451281   -10.27454889780196
H   41   1     4.11782812209845     2.99683739506263   -11.98462609656630
O   42   8     9.12060555425099     2.77825484064970   -12.03801083010553
H   43   1     8.60983853061047     1.41663292301779    -8.48800399433497
[GTO]
1 0
 s    6 1.00
             3047.5249  0.0018347001629433
             457.36951    0.01403730124668
             103.94869   0.068842606114048
             29.210155    0.23218442062076
              9.286663    0.46794134155879
              3.163927    0.36231203217765
 s    3 1.00
             7.8682724   -0.11933240861517
             1.8812885   -0.16085421161283
             0.5442493     1.1434564825515
 s    1 1.00
             0.1687144                   1
 p    3 1.00
             7.8682724   0.068999095584993
             1.8812885    0.31642397975315
             0.5442493    0.74430825237435
 p    1 1.00
             0.1687144                   1
 d    1 1.00
                   0.8                   1

2 0
 s    3 1.00
             18.731137    0.03349459952309
             2.8253937    0.23472694665786
             0.6401217    0.81375731841339
 s    1 1.00
             0.1612778                   1

3 0
 s    6 1.00
             3047.5249  0.0018347001629433
             457.36951    0.01403730124668
             103.94869   0.068842606114048
             29.210155    0.23218442062076
              9.286663    0.46794134155879
              3.163927    0.36231203217765
 s    3 1.00
             7.8682724   -0.11933240861517
             1.8812885   -0.16085421161283
             0.5442493     1.1434564825515
 s    1 1.00
             0.1687144                   1
 p    3 1.00
             7.8682724   0.068999095584993
             1.8812885    0.31642397975315
             0.5442493    0.74430825237435
 p    1 1.00
             0.1687144                   1
 d    1 1.00
                   0.8                   1

4 0
 s    3 1.00
             18.731137    0.03349459952309
             2.8253937    0.23472694665786
             0.6401217    0.81375731841339
 s    1 1.00
             0.1612778                   1

5 0
 s    6 1.00
             3047.5249  0.0018347001629433
             457.36951    0.01403730124668
             103.94869   0.068842606114048
             29.210155    0.23218442062076
              9.286663    0.46794134155879
              3.163927    0.36231203217765
 s    3 1.00
             7.8682724   -0.11933240861517
             1.8812885   -0.16085421161283
             0.5442493     1.1434564825515
 s    1 1.00
             0.1687144                   1
 p    3 1.00
             7.8682724   0.068999095584993
             1.8812885    0.31642397975315
             0.5442493    0.74430825237435
 p    1 1.00
             0.1687144                   1
 d    1 1.00
                   0.8                   1

6 0
 s    3 1.00
             18.731137    0.03349459952309
             2.8253937    0.23472694665786
             0.6401217    0.81375731841339
 s    1 1.00
             0.1612778                   1

7 0
 s    6 1.00
             3047.5249  0.0018347001629433
             457.36951    0.01403730124668
             103.94869   0.068842606114048
             29.210155    0.23218442062076
              9.286663    0.46794134155879
              3.163927    0.36231203217765
 s    3 1.00
             7.8682724   -0.11933240861517
             1.8812885   -0.16085421161283
             0.5442493     1.1434564825515
 s    1 1.00
             0.1687144                   1
 p    3 1.00
             7.8682724   0.068999095584993
             1.8812885    0.31642397975315
             0.5442493    0.74430825237435
 p    1 1.00
             0.1687144                   1
 d    1 1.00
                   0.8                   1

8 0
 s    3 1.00
             18.731137    0.03349459952309
             2.8253937    0.23472694665786
             0.6401217    0.81375731841339
 s    1 1.00
             0.1612778                   1

9 0
 s    3 1.00
             18.731137    0.03349459952309
             2.8253937    0.23472694665786
             0.6401217    0.81375731841339
 s    1 1.00
             0.1612778                   1

10 0
 s    6 1.00
             3047.5249  0.0018347001629433
             457.36951    0.01403730124668
             103.94869   0.068842606114048
             29.210155    0.23218442062076
              9.286663    0.46794134155879
              3.163927    0.36231203217765
 s    3 1.00
             7.8682724   -0.11933240861517
             1.8812885   -0.16085421161283
             0.5442493     1.1434564825515
 s    1 1.00
             0.1687144                   1
 p    3 1.00
             7.8682724   0.068999095584993
             1.8812885    0.31642397975315
             0.5442493    0.74430825237435
 p    1 1.00
             0.1687144                   1
 d    1 1.00
                   0.8                   1

11 0
 s    3 1.00
             18.731137    0.03349459952309
             2.8253937    0.23472694665786
             0.6401217    0.81375731841339
 s    1 1.00
             0.1612778                   1

12 0
 s    6 1.00
             3047.5249  0.0018347001629433
             457.36951    0.01403730124668
             103.94869   0.068842606114048
             29.210155    0.23218442062076
              9.286663    0.46794134155879
              3.163927    0.36231203217765
 s    3 1.00
             7.8682724   -0.11933240861517
             1.8812885   -0.16085421161283
             0.5442493     1.1434564825515
 s    1 1.00
             0.1687144                   1
 p    3 1.00
             7.8682724   0.068999095584993
             1.8812885    0.31642397975315
             0.5442493    0.74430825237435
 p    1 1.00
             0.1687144                   1
 d    1 1.00
                   0.8                   1

13 0
 s    3 1.00
             18.731137    0.03349459952309
             2.8253937    0.23472694665786
             0.6401217    0.81375731841339
 s    1 1.00
             0.1612778                   1

14 0
 s    3 1.00
             18.731137    0.03349459952309
             2.8253937    0.23472694665786
             0.6401217    0.81375731841339
 s    1 1.00
             0.1612778                   1

15 0
 s    6 1.00
             3047.5249  0.0018347001629433
             457.36951    0.01403730124668
             103.94869   0.068842606114048
             29.210155    0.23218442062076
              9.286663    0.46794134155879
              3.163927    0.36231203217765
 s    3 1.00
             7.8682724   -0.11933240861517
             1.8812885   -0.16085421161283
             0.5442493     1.1434564825515
 s    1 1.00
             0.1687144                   1
 p    3 1.00
             7.8682724   0.068999095584993
             1.8812885    0.31642397975315
             0.5442493    0.74430825237435
 p    1 1.00
             0.1687144                   1
 d    1 1.00
                   0.8                   1

16 0
 s    6 1.00
             3047.5249  0.0018347001629433
             457.36951    0.01403730124668
             103.94869   0.068842606114048
             29.210155    0.23218442062076
              9.286663    0.46794134155879
              3.163927    0.36231203217765
 s    3 1.00
             7.8682724   -0.11933240861517
             1.8812885   -0.16085421161283
             0.5442493     1.1434564825515
 s    1 1.00
             0.1687144                   1
 p    3 1.00
             7.8682724   0.068999095584993
             1.8812885    0.31642397975315
             0.5442493    0.74430825237435
 p    1 1.00
             0.1687144                   1
 d    1 1.00
                   0.8                   1

17 0
 s    6 1.00
             3047.5249  0.0018347001629433
             457.36951    0.01403730124668
             103.94869   0.068842606114048
             29.210155    0.23218442062076
              9.286663    0.46794134155879
              3.163927    0.36231203217765
 s    3 1.00
             7.8682724   -0.11933240861517
             1.8812885   -0.16085421161283
             0.5442493     1.1434564825515
 s    1 1.00
             0.1687144                   1
 p    3 1.00
             7.8682724   0.068999095584993
             1.8812885    0.31642397975315
             0.5442493    0.74430825237435
 p    1 1.00
             0.1687144                   1
 d    1 1.00
                   0.8                   1

18 0
 s    6 1.00
             3047.5249  0.0018347001629433
             457.36951    0.01403730124668
             103.94869   0.068842606114048
             29.210155    0.23218442062076
              9.286663    0.46794134155879
              3.163927    0.36231203217765
 s    3 1.00
             7.8682724   -0.11933240861517
             1.8812885   -0.16085421161283
             0.5442493     1.1434564825515
 s    1 1.00
             0.1687144                   1
 p    3 1.00
             7.8682724   0.068999095584993
             1.8812885    0.31642397975315
             0.5442493    0.74430825237435
 p    1 1.00
             0.1687144                   1
 d    1 1.00
                   0.8                   1

19 0
 s    6 1.00
             3047.5249  0.0018347001629433
             457.36951    0.01403730124668
             103.94869   0.068842606114048
             29.210155    0.23218442062076
              9.286663    0.46794134155879
              3.163927    0.36231203217765
 s    3 1.00
             7.8682724   -0.11933240861517
             1.8812885   -0.16085421161283
             0.5442493     1.1434564825515
 s    1 1.00
             0.1687144                   1
 p    3 1.00
             7.8682724   0.068999095584993
             1.8812885    0.31642397975315
             0.5442493    0.74430825237435
 p    1 1.00
             0.1687144                   1
 d    1 1.00
                   0.8                   1

20 0
 s    6 1.00
             3047.5249  0.0018347001629433
             457.36951    0.01403730124668
             103.94869   0.068842606114048
             29.210155    0.23218442062076
              9.286663    0.46794134155879
              3.163927    0.36231203217765
 s    3 1.00
             7.8682724   -0.11933240861517
             1.8812885   -0.16085421161283
             0.5442493     1.1434564825515
 s    1 1.00
             0.1687144                   1
 p    3 1.00
             7.8682724   0.068999095584993
             1.8812885    0.31642397975315
             0.5442493    0.74430825237435
 p    1 1.00
             0.1687144                   1
 d    1 1.00
                   0.8                   1

21 0
 s    6 1.00
             3047.5249  0.0018347001629433
             457.36951    0.01403730124668
             103.94869   0.068842606114048
             29.210155    0.23218442062076
              9.286663    0.46794134155879
              3.163927    0.36231203217765
 s    3 1.00
             7.8682724   -0.11933240861517
             1.8812885   -0.16085421161283
             0.5442493     1.1434564825515
 s    1 1.00
             0.1687144                   1
 p    3 1.00
             7.8682724   0.068999095584993
             1.8812885    0.31642397975315
             0.5442493    0.74430825237435
 p    1 1.00
             0.1687144                   1
 d    1 1.00
                   0.8                   1

22 0
 s    3 1.00
             18.731137    0.03349459952309
             2.8253937    0.23472694665786
             0.6401217    0.81375731841339
 s    1 1.00
             0.1612778                   1

23 0
 s    3 1.00
             18.731137    0.03349459952309
             2.8253937    0.23472694665786
             0.6401217    0.81375731841339
 s    1 1.00
             0.1612778                   1

24 0
 s    3 1.00
             18.731137    0.03349459952309
             2.8253937    0.23472694665786
             0.6401217    0.81375731841339
 s    1 1.00
             0.1612778                   1

25 0
 s    3 1.00
             18.731137    0.03349459952309
             2.8253937    0.23472694665786
             0.6401217    0.81375731841339
 s    1 1.00
             0.1612778                   1

26 0
 s    3 1.00
             18.731137    0.03349459952309
             2.8253937    0.23472694665786
             0.6401217    0.81375731841339
 s    1 1.00
             0.1612778                   1

27 0
 s    3 1.00
             18.731137    0.03349459952309
             2.8253937    0.23472694665786
             0.6401217    0.81375731841339
 s    1 1.00
             0.1612778                   1

28 0
 s    3 1.00
             18.731137    0.03349459952309
             2.8253937    0.23472694665786
             0.6401217    0.81375731841339
 s    1 1.00
             0.1612778                   1

29 0
 s    3 1.00
             18.731137    0.03349459952309
             2.8253937    0.23472694665786
             0.6401217    0.81375731841339
 s    1 1.00
             0.1612778                   1

30 0
 s    3 1.00
             18.731137    0.03349459952309
             2.8253937    0.23472694665786
             0.6401217    0.81375731841339
 s    1 1.00
             0.1612778                   1

31 0
 s    3 1.00
             18.731137    0.03349459952309
             2.8253937    0.23472694665786
             0.6401217    0.81375731841339
 s    1 1.00
             0.1612778                   1

32 0
 s    3 1.00
             18.731137    0.03349459952309
             2.8253937    0.23472694665786
             0.6401217    0.81375731841339
 s    1 1.00
             0.1612778                   1

33 0
 s    6 1.00
             3047.5249  0.0018347001629433
             457.36951    0.01403730124668
             103.94869   0.068842606114048
             29.210155    0.23218442062076
              9.286663    0.46794134155879
              3.163927    0.36231203217765
 s    3 1.00
             7.8682724   -0.11933240861517
             1.8812885   -0.16085421161283
             0.5442493     1.1434564825515
 s    1 1.00
             0.1687144                   1
 p    3 1.00
             7.8682724   0.068999095584993
             1.8812885    0.31642397975315
             0.5442493    0.74430825237435
 p    1 1.00
             0.1687144                   1
 d    1 1.00
                   0.8                   1

34 0
 s    6 1.00
             3047.5249  0.0018347001629433
             457.36951    0.01403730124668
             103.94869   0.068842606114048
             29.210155    0.23218442062076
              9.286663    0.46794134155879
              3.163927    0.36231203217765
 s    3 1.00
             7.8682724   -0.11933240861517
             1.8812885   -0.16085421161283
             0.5442493     1.1434564825515
 s    1 1.00
             0.1687144                   1
 p    3 1.00
             7.8682724   0.068999095584993
             1.8812885    0.31642397975315
             0.5442493    0.74430825237435
 p    1 1.00
             0.1687144                   1
 d    1 1.00
                   0.8                   1

35 0
 s    3 1.00
             18.731137    0.03349459952309
             2.8253937    0.23472694665786
             0.6401217    0.81375731841339
 s    1 1.00
             0.1612778                   1

36 0
 s    6 1.00
             3047.5249  0.0018347001629433
             457.36951    0.01403730124668
             103.94869   0.068842606114048
             29.210155    0.23218442062076
              9.286663    0.46794134155879
              3.163927    0.36231203217765
 s    3 1.00
             7.8682724   -0.11933240861517
             1.8812885   -0.16085421161283
             0.5442493     1.1434564825515
 s    1 1.00
             0.1687144                   1
 p    3 1.00
             7.8682724   0.068999095584993
             1.8812885    0.31642397975315
             0.5442493    0.74430825237435
 p    1 1.00
             0.1687144                   1
 d    1 1.00
                   0.8                   1

37 0
 s    3 1.00
             18.731137    0.03349459952309
             2.8253937    0.23472694665786
             0.6401217    0.81375731841339
 s    1 1.00
             0.1612778                   1

38 0
 s    3 1.00
             18.731137    0.03349459952309
             2.8253937    0.23472694665786
             0.6401217    0.81375731841339
 s    1 1.00
             0.1612778                   1

39 0
 s    6 1.00
             3047.5249  0.0018347001629433
             457.36951    0.01403730124668
             103.94869   0.068842606114048
             29.210155    0.23218442062076
              9.286663    0.46794134155879
              3.163927    0.36231203217765
 s    3 1.00
             7.8682724   -0.11933240861517
             1.8812885   -0.16085421161283
             0.5442493     1.1434564825515
 s    1 1.00
             0.1687144                   1
 p    3 1.00
             7.8682724   0.068999095584993
             1.8812885    0.31642397975315
             0.5442493    0.74430825237435
 p    1 1.00
             0.1687144                   1
 d    1 1.00
                   0.8                   1

40 0
 s    6 1.00
             3047.5249  0.0018347001629433
             457.36951    0.01403730124668
             103.94869   0.068842606114048
             29.210155    0.23218442062076
              9.286663    0.46794134155879
              3.163927    0.36231203217765
 s    3 1.00
             7.8682724   -0.11933240861517
             1.8812885   -0.16085421161283
             0.5442493     1.1434564825515
 s    1 1.00
             0.1687144                   1
 p    3 1.00
             7.8682724   0.068999095584993
             1.8812885    0.31642397975315
             0.5442493    0.74430825237435
 p    1 1.00
             0.1687144                   1
 d    1 1.00
                   0.8                   1

41 0
 s    3 1.00
             18.731137    0.03349459952309
             2.8253937    0.23472694665786
             0.6401217    0.81375731841339
 s    1 1.00
             0.1612778                   1

42 0
 s    6 1.00
             5484.6717   0.001831099805527
             825.23495   0.013950098518422
             188.04696    0.06844509273075
               52.9645    0.23271427528445
              16.89757    0.47019295006289
             5.7996353    0.35852086192309
 s    3 1.00
             15.539616   -0.11077750382508
             3.5999336   -0.14802630511126
             1.0137618     1.1307670390447
 s    1 1.00
             0.2700058                   1
 p    3 1.00
             15.539616   0.070874299543311
             3.5999336    0.33975279781076
             1.0137618    0.72715859531445
 p    1 1.00
             0.2700058                   1
 d    1 1.00
                   0.8                   1

43 0
 s    3 1.00
             18.731137    0.03349459952309
             2.8253937    0.23472694665786
             0.6401217    0.81375731841339
 s    1 1.00
             0.1612778                   1

[5d]
[7f]
[9g]

[MO]
 Sym= A
 Ene=               0
 Spin= Alpha
 Occup=    1.00000
   1    -0.0016519036924897
   2    -0.0001353345545765
   3    -0.00089834371018127
   4    -8.1878084866736e-05
   5    -7.9599382700654e-05
   6    0.00013341535567483
   7    0.00094076746476522
   8    0.00069106017804992
   9    -0.0011698336601663
  10    -6.2895302700487e-05
  11    7.9031927347702e-05
  12    2.3434584444497e-05
  13    2.0547416645942e-05
  14    -1.1951825604536e-05
  15    -9.190270892302e-05
  16    -0.00069188734648566
  17    0.0059344103696629
  18    -0.00014238252111731
  19    0.00090995245200089
  20    -0.00015669159955204
  21    -1.7637656126658e-05
  22    9.1650834651134e-05
  23    1.7237960920696e-05
  24    7.6159584253666e-05
  25    -0.00067192107709104
  26    7.0127171906125e-05
  27    6.023587450483e-05
  28    -9.6528460234857e-05
  29    6.1201884847689e-05
  30    -4.9411992234429e-05
  31    -3.4194777680736e-05
  32    9.0878298901781e-05
  33      0.01593076441987
  34    -0.00090359813241907
  35    0.0066256736775388
  36    -0.001167933645041
  37    -9.0254097116249e-06
  38    0.00019860903410116
  39    0.0036571021393632
  40    0.00051945999883175
  41    -0.0017247708940896
  42    0.00066594527047043
  43    4.9238222776955e-05
  44    9.3440169836693e-06
  45    -0.0011874984018128
  46    8.5376865492732e-05
  47    -0.00042438751518874
  48    -0.00038139641885368
  49      0.99508355111675
  50     0.035664858741838
  51    -0.028481628391132
  52    -0.00048552720823107
  53    9.558793310733e-05
  54    -0.00025165786296593
  55    0.0013794659292034
  56    -0.0011000075204911
  57    0.0026377785003825
  58    0.00018582315704657
  59    -0.00068108440089562
  60    -0.00038561206025443
  61    0.00060809670964856
  62    0.00020495851374124
  63    -0.0010756362599882
  64    0.0044358103268371
  65    -1.2273621867971e-06
  66    -1.256450699741e-06
  67    -2.3128886885482e-07
  68    -1.595120447173e-06
  69    4.9471942377864e-06
  70    1.7212925372103e-06
  71    -2.1769360020909e-06
  72    9.3973933402761e-08
  73    4.6148787363556e-06
  74    4.0271080430146e-06
  75    3.407857972083e-07
  76    -1.9260220985294e-07
  77    -4.0248937559586e-07
  78    3.8504099608562e-07
  79    2.3989873545806e-07
  80    -2.3819384073901e-07
  81    7.0958023701148e-07
  82    1.1567974961006e-06
  83    1.9194934160423e-07
  84    -2.4243981281236e-07
  85    -4.806076000239e-05
  86    2.273419452828e-06
  87    -1.2944873903824e-06
  88    4.3837781049387e-06
  89    1.3924802103471e-05
  90    -2.0378577790056e-05
  91    9.608378713361e-06
  92    7.1921003506135e-07
  93    -1.6901040441722e-06
  94    1.5720637210105e-06
  95    -1.7520379765307e-07
  96    -6.3405812620302e-07
  97    1.2867312062433e-06
  98    6.7121661763015e-07
  99    1.1776995904106e-06
 100    -2.8441073092144e-06
 101    -3.5231672729312e-07
 102    -4.5356436878721e-06
 103    0.00010609616768526
 104    4.8314425446334e-06
 105    3.6622798655183e-06
 106    -4.7943506241699e-06
 107    -0.00010610058620351
 108    9.6809662097474e-05
 109    0.00010258425827358
 110    -1.8205529199514e-06
 111    -8.241070234579e-07
 112    1.6723530307159e-07
 113    1.3678810262026e-07
 114    -3.2494399310054e-06
 115    -1.083458238197e-06
 116    -9.6634392916594e-06
 117    0.00011008577257781
 118    -3.5831919585457e-06
 119    3.2299426528106e-06
 120    1.8506712808366e-06
 121    -2.1947838895348e-05
 122    6.6168249679775e-06
 123    4.1260260339584e-05
 124    1.6992161729389e-07
 125    -1.7385063401654e-06
 126    -3.708444741789e-07
 127    2.3261655497219e-07
 128    -1.914784927511e-06
 129    -2.2471553654888e-06
 130    -2.4120992253162e-05
 131    0.00018877738848179
 132    7.0006241205274e-06
 133    6.6659102527239e-06
 134    1.088680184225e-05
 135    -0.00016840032473384
 136    1.4537829144664e-05
 137    -0.00031894334088383
 138    9.4997905678121e-06
 139    6.0547074616381e-06
 140    2.3571167032638e-06
 141    1.1941860308572e-06
 142    1.859605361225e-06
 143    -2.4894634576823e-06
 144    -1.7175742053209e-05
 145    6.0088702679362e-05
 146    8.8496532829547e-07
 147    -1.1422539968701e-06
 148    2.1264330174799e-06
 149    4.2823974265372e-05
 150    -2.8516667288484e-07
 151    -2.7383277560741e-05
 152    -4.3206980801027e-06
 153    -1.6710753755844e-06
 154    -1.6474341820926e-06
 155    2.6933719918291e-06
 156    -3.3749254641078e-06
 157    4.1510608419864e-07
 158    4.7690747650696e-06
 159    -1.5699303426629e-05
 160    1.3081680583807e-06
 161    8.5858830864342e-07
 162    -2.265786159911e-06
 163    -2.7021240701416e-05
 164    7.9841083834539e-06
 165    3.2200221870083e-06
 166    2.3579847169084e-06
 167    -8.1370840710908e-07
 168    1.0675308945289e-07
 169    -2.3337820185018e-07
 170    1.6083142905052e-06
 171    -2.1036092245741e-07
 172    -2.3279769967135e-07
 173    2.3095489584048e-06
 174    -6.1556636310303e-07
 175    -4.3716538502511e-07
 176    3.3043384673066e-06
 177    9.574067514809e-07
 178    9.498836720797e-06
 179    -8.3889265789747e-07
 180    6.8247316435592e-08
 181    1.6252567204905e-06
 182    5.1618500700819e-07
 183    -9.8237427319332e-07
 184    8.9217138232207e-07
 185    -1.2789344275591e-06
 186    -1.4856778795381e-05
 187    2.4063211709972e-05
 188    -8.6090839241327e-07
 189    9.3100247901226e-07
 190    6.3964808349865e-06
 191    7.1542175809642e-06
 192    -7.0981861913696e-06
 193    -2.4687387337663e-05
 194    1.1868667537341e-06
 195    3.0469850158908e-07
 196    1.7101439050338e-06
 197    1.2178545067207e-07
 198    -2.3829040971473e-07
 199    -3.3949832597041e-06
 200    -1.2986132866245e-06
 201    7.6858045782555e-07
 202    1.4425143599417e-05
 203    -4.5940850507601e-06
 204    -7.3149838236553e-06
 205    1.7061213177576e-06
 206    -1.9910768653894e-05
 207    4.7572548383708e-07
 208     8.05679020562e-06
 209    4.8725273746379e-06
 210    -1.2150341223022e-05
 211    3.3434458839903e-06
 212    8.4888860552884e-06
 213    -7.4815034301026e-07
 214    -8.2890680424446e-06
 215    -2.1162629879544e-06
 216    5.2520293121123e-06
 217    8.8246844463274e-07
 218    2.6622457843642e-08
 219    1.8127847358306e-06
 220    3.0138013135999e-06
 221    -3.5985292381284e-06
 222    -3.6329071480658e-05
 223    1.1272879032042e-05
 224    9.2320053570414e-06
 225    -1.4138780581655e-05
 226    1.2415898061067e-05
 227    6.6909135378675e-05
 228    9.7081049588639e-05
 229    -0.00048651356216617
 230    -1.432634676414e-06
 231    -2.0282025808928e-05
 232    -7.5071348936591e-06
 233    1.0118712570539e-05
 234    8.1459741180706e-06
 235    1.0545682383067e-05
 236    1.9390741715068e-05
 237    -0.00033742974516481
 238    3.0531233543628e-06
 239    -1.078865438166e-05
 240    1.4901328237026e-05
 241    -6.5346209956566e-05
 242    2.9413164394126e-05
 243    -0.00018696030991375
 244    -1.2748290195719e-05
 245    2.2963358352059e-05
 246    4.9096598517089e-06
 247    5.7973027396543e-06
 248    -5.4883803137815e-06
 249    -2.338998024002e-05
 250    4.6476652541902e-05
 251    1.5182049148676e-05
 252    -9.8364687253409e-05
 253    0.0017258347267357
 254    -2.5690929167754e-05
 255    2.0860764130593e-05
 256    -2.3663217489313e-05
 257    0.00058514352682574
 258    0.00026975042330412
 259    -0.0010093535630778
 260    4.3086479938004e-05
 261    -5.2576052729965e-05
 262    -2.7656344418717e-05
 263    2.5970043605604e-05
 264    1.6720182644198e-05
 265    -1.7937993940093e-05
 266    0.00017886678969127
 267    9.1254194369348e-06
 268    8.4195952597906e-05
 269    -0.00019884998362243
 270    0.00043788186512872
 271     0.010537403801547
 272    0.0014981449246439
 273    0.0013265860744758
 274    -0.003592235991012
 275    -0.002953371837895
 276    -0.00029925525460458
 277     0.001124533110586
 278    -0.00067839038570077
 279     0.001042919239889
 280    0.0005402603211045
 281    -0.0001336126937602