[Molden Format]
made by pyscf v[2.0.1]
[Atoms] (AU)
C   1   6     0.69100024066471     0.64692934207205    -3.48223131169301
H   2   1     2.68052439830868     1.13355088658700    -3.25784032593313
C   3   6    -0.36286361513219     0.85440132524594    -5.97030179418974
H   4   1    -2.35448549047279     0.36322488579172    -6.17995817793143
C   5   6     0.93697958957450     1.61209284601821    -8.05828437677121
H   6   1     0.73648971111668     3.55370010139060    -8.71472010856714
C   7   6     2.58127687438623    -0.01872844577485    -9.47001807350619
H   8   1     2.76404479428938    -1.95840164828389    -8.78885291415754
H   9   1     1.55630230933075    -1.92953025305990    12.99630010416247
C   10   6     0.75233899775814    -2.21270439606481    11.10705728102219
H   11   1    -0.43433408177274    -3.90944857546550    11.22216085340412
C   12   6     2.86362581178706    -2.63237380607947     9.17926416456045
H   13   1     4.39038949912609    -1.24955421540245     9.49899813497433
H   14   1     3.74629220191363    -4.48798724300892     9.47414880959024
C   15   6     2.02478325613682    -2.42177285709634     6.44560829588644
C   16   6     3.88048732735477    -3.58795445234514     4.61402886975252
C   17   6    -0.18412382258602    -1.30464291234259     5.76021113872346
C   18   6    -2.10044360464350    -0.26837831858460     7.71610340967100
C   19   6    -3.08956938670431     2.35282328359417     6.88693925039594
C   20   6    -4.37372924086464    -2.09766595989678     7.93610724222001
C   21   6    -0.83850430601230     0.06372213486173    10.33002307638377
H   22   1     0.38411922151109     1.74281358582432    10.27380136542181
H   23   1    -2.30980003007874     0.45460143924521    11.73986301809809
H   24   1     4.58527064644668    -5.38706904487420     5.36778158031719
H   25   1     5.54944938085014    -2.37631462192748     4.35398898413318
H   26   1     3.06633019150423    -3.94118377050688     2.75255466040884
H   27   1    -4.17727778763735     2.26573369139522     5.12914900961283
H   28   1    -1.52662344944051     3.68001877445626     6.59540397144508
H   29   1    -4.32916174397830     3.13643051467482     8.35225460090378
H   30   1    -5.32329548508442    -2.36691813602939     6.11583672749896
H   31   1    -5.77989366602257    -1.33896741843465     9.25748940450990
H   32   1    -3.79310905208926    -3.96389819310853     8.61386170102686
C   33   6    -1.01100794811226    -1.06331657314144     3.11929490449947
C   34   6     0.37686231036534    -0.33275864505552     1.09165013605873
H   35   1    -3.01671213906703    -1.40297922279997     2.77827895090944
C   36   6    -0.64382707979370    -0.11591880174385    -1.42063131251064
H   37   1     2.35569259782137     0.17174499283897     1.33641070251401
H   38   1    -2.63317482980319    -0.60229203511219    -1.66119700387645
C   39   6     3.90960344721415     0.65123442372143   -11.55890098643101
C   40   6     5.53597339482346    -1.15257329589011   -12.86589030877460
H   41   1     3.81237322709460     2.55237110239842   -12.33607146621226
O   42   8     6.77935136485374    -0.67974925370394   -14.75037240649433
H   43   1     5.57867975922019    -3.07543379045103   -12.00509846248917
[GTO]
1 0
 s    6 1.00
             3047.5249  0.0018347001629433
             457.36951    0.01403730124668
             103.94869   0.068842606114048
             29.210155    0.23218442062076
              9.286663    0.46794134155879
              3.163927    0.36231203217765
 s    3 1.00
             7.8682724   -0.11933240861517
             1.8812885   -0.16085421161283
             0.5442493     1.1434564825515
 s    1 1.00
             0.1687144                   1
 p    3 1.00
             7.8682724   0.068999095584993
             1.8812885    0.31642397975315
             0.5442493    0.74430825237435
 p    1 1.00
             0.1687144                   1
 d    1 1.00
                   0.8                   1

2 0
 s    3 1.00
             18.731137    0.03349459952309
             2.8253937    0.23472694665786
             0.6401217    0.81375731841339
 s    1 1.00
             0.1612778                   1

3 0
 s    6 1.00
             3047.5249  0.0018347001629433
             457.36951    0.01403730124668
             103.94869   0.068842606114048
             29.210155    0.23218442062076
              9.286663    0.46794134155879
              3.163927    0.36231203217765
 s    3 1.00
             7.8682724   -0.11933240861517
             1.8812885   -0.16085421161283
             0.5442493     1.1434564825515
 s    1 1.00
             0.1687144                   1
 p    3 1.00
             7.8682724   0.068999095584993
             1.8812885    0.31642397975315
             0.5442493    0.74430825237435
 p    1 1.00
             0.1687144                   1
 d    1 1.00
                   0.8                   1

4 0
 s    3 1.00
             18.731137    0.03349459952309
             2.8253937    0.23472694665786
             0.6401217    0.81375731841339
 s    1 1.00
             0.1612778                   1

5 0
 s    6 1.00
             3047.5249  0.0018347001629433
             457.36951    0.01403730124668
             103.94869   0.068842606114048
             29.210155    0.23218442062076
              9.286663    0.46794134155879
              3.163927    0.36231203217765
 s    3 1.00
             7.8682724   -0.11933240861517
             1.8812885   -0.16085421161283
             0.5442493     1.1434564825515
 s    1 1.00
             0.1687144                   1
 p    3 1.00
             7.8682724   0.068999095584993
             1.8812885    0.31642397975315
             0.5442493    0.74430825237435
 p    1 1.00
             0.1687144                   1
 d    1 1.00
                   0.8                   1

6 0
 s    3 1.00
             18.731137    0.03349459952309
             2.8253937    0.23472694665786
             0.6401217    0.81375731841339
 s    1 1.00
             0.1612778                   1

7 0
 s    6 1.00
             3047.5249  0.0018347001629433
             457.36951    0.01403730124668
             103.94869   0.068842606114048
             29.210155    0.23218442062076
              9.286663    0.46794134155879
              3.163927    0.36231203217765
 s    3 1.00
             7.8682724   -0.11933240861517
             1.8812885   -0.16085421161283
             0.5442493     1.1434564825515
 s    1 1.00
             0.1687144                   1
 p    3 1.00
             7.8682724   0.068999095584993
             1.8812885    0.31642397975315
             0.5442493    0.74430825237435
 p    1 1.00
             0.1687144                   1
 d    1 1.00
                   0.8                   1

8 0
 s    3 1.00
             18.731137    0.03349459952309
             2.8253937    0.23472694665786
             0.6401217    0.81375731841339
 s    1 1.00
             0.1612778                   1

9 0
 s    3 1.00
             18.731137    0.03349459952309
             2.8253937    0.23472694665786
             0.6401217    0.81375731841339
 s    1 1.00
             0.1612778                   1

10 0
 s    6 1.00
             3047.5249  0.0018347001629433
             457.36951    0.01403730124668
             103.94869   0.068842606114048
             29.210155    0.23218442062076
              9.286663    0.46794134155879
              3.163927    0.36231203217765
 s    3 1.00
             7.8682724   -0.11933240861517
             1.8812885   -0.16085421161283
             0.5442493     1.1434564825515
 s    1 1.00
             0.1687144                   1
 p    3 1.00
             7.8682724   0.068999095584993
             1.8812885    0.31642397975315
             0.5442493    0.74430825237435
 p    1 1.00
             0.1687144                   1
 d    1 1.00
                   0.8                   1

11 0
 s    3 1.00
             18.731137    0.03349459952309
             2.8253937    0.23472694665786
             0.6401217    0.81375731841339
 s    1 1.00
             0.1612778                   1

12 0
 s    6 1.00
             3047.5249  0.0018347001629433
             457.36951    0.01403730124668
             103.94869   0.068842606114048
             29.210155    0.23218442062076
              9.286663    0.46794134155879
              3.163927    0.36231203217765
 s    3 1.00
             7.8682724   -0.11933240861517
             1.8812885   -0.16085421161283
             0.5442493     1.1434564825515
 s    1 1.00
             0.1687144                   1
 p    3 1.00
             7.8682724   0.068999095584993
             1.8812885    0.31642397975315
             0.5442493    0.74430825237435
 p    1 1.00
             0.1687144                   1
 d    1 1.00
                   0.8                   1

13 0
 s    3 1.00
             18.731137    0.03349459952309
             2.8253937    0.23472694665786
             0.6401217    0.81375731841339
 s    1 1.00
             0.1612778                   1

14 0
 s    3 1.00
             18.731137    0.03349459952309
             2.8253937    0.23472694665786
             0.6401217    0.81375731841339
 s    1 1.00
             0.1612778                   1

15 0
 s    6 1.00
             3047.5249  0.0018347001629433
             457.36951    0.01403730124668
             103.94869   0.068842606114048
             29.210155    0.23218442062076
              9.286663    0.46794134155879
              3.163927    0.36231203217765
 s    3 1.00
             7.8682724   -0.11933240861517
             1.8812885   -0.16085421161283
             0.5442493     1.1434564825515
 s    1 1.00
             0.1687144                   1
 p    3 1.00
             7.8682724   0.068999095584993
             1.8812885    0.31642397975315
             0.5442493    0.74430825237435
 p    1 1.00
             0.1687144                   1
 d    1 1.00
                   0.8                   1

16 0
 s    6 1.00
             3047.5249  0.0018347001629433
             457.36951    0.01403730124668
             103.94869   0.068842606114048
             29.210155    0.23218442062076
              9.286663    0.46794134155879
              3.163927    0.36231203217765
 s    3 1.00
             7.8682724   -0.11933240861517
             1.8812885   -0.16085421161283
             0.5442493     1.1434564825515
 s    1 1.00
             0.1687144                   1
 p    3 1.00
             7.8682724   0.068999095584993
             1.8812885    0.31642397975315
             0.5442493    0.74430825237435
 p    1 1.00
             0.1687144                   1
 d    1 1.00
                   0.8                   1

17 0
 s    6 1.00
             3047.5249  0.0018347001629433
             457.36951    0.01403730124668
             103.94869   0.068842606114048
             29.210155    0.23218442062076
              9.286663    0.46794134155879
              3.163927    0.36231203217765
 s    3 1.00
             7.8682724   -0.11933240861517
             1.8812885   -0.16085421161283
             0.5442493     1.1434564825515
 s    1 1.00
             0.1687144                   1
 p    3 1.00
             7.8682724   0.068999095584993
             1.8812885    0.31642397975315
             0.5442493    0.74430825237435
 p    1 1.00
             0.1687144                   1
 d    1 1.00
                   0.8                   1

18 0
 s    6 1.00
             3047.5249  0.0018347001629433
             457.36951    0.01403730124668
             103.94869   0.068842606114048
             29.210155    0.23218442062076
              9.286663    0.46794134155879
              3.163927    0.36231203217765
 s    3 1.00
             7.8682724   -0.11933240861517
             1.8812885   -0.16085421161283
             0.5442493     1.1434564825515
 s    1 1.00
             0.1687144                   1
 p    3 1.00
             7.8682724   0.068999095584993
             1.8812885    0.31642397975315
             0.5442493    0.74430825237435
 p    1 1.00
             0.1687144                   1
 d    1 1.00
                   0.8                   1

19 0
 s    6 1.00
             3047.5249  0.0018347001629433
             457.36951    0.01403730124668
             103.94869   0.068842606114048
             29.210155    0.23218442062076
              9.286663    0.46794134155879
              3.163927    0.36231203217765
 s    3 1.00
             7.8682724   -0.11933240861517
             1.8812885   -0.16085421161283
             0.5442493     1.1434564825515
 s    1 1.00
             0.1687144                   1
 p    3 1.00
             7.8682724   0.068999095584993
             1.8812885    0.31642397975315
             0.5442493    0.74430825237435
 p    1 1.00
             0.1687144                   1
 d    1 1.00
                   0.8                   1

20 0
 s    6 1.00
             3047.5249  0.0018347001629433
             457.36951    0.01403730124668
             103.94869   0.068842606114048
             29.210155    0.23218442062076
              9.286663    0.46794134155879
              3.163927    0.36231203217765
 s    3 1.00
             7.8682724   -0.11933240861517
             1.8812885   -0.16085421161283
             0.5442493     1.1434564825515
 s    1 1.00
             0.1687144                   1
 p    3 1.00
             7.8682724   0.068999095584993
             1.8812885    0.31642397975315
             0.5442493    0.74430825237435
 p    1 1.00
             0.1687144                   1
 d    1 1.00
                   0.8                   1

21 0
 s    6 1.00
             3047.5249  0.0018347001629433
             457.36951    0.01403730124668
             103.94869   0.068842606114048
             29.210155    0.23218442062076
              9.286663    0.46794134155879
              3.163927    0.36231203217765
 s    3 1.00
             7.8682724   -0.11933240861517
             1.8812885   -0.16085421161283
             0.5442493     1.1434564825515
 s    1 1.00
             0.1687144                   1
 p    3 1.00
             7.8682724   0.068999095584993
             1.8812885    0.31642397975315
             0.5442493    0.74430825237435
 p    1 1.00
             0.1687144                   1
 d    1 1.00
                   0.8                   1

22 0
 s    3 1.00
             18.731137    0.03349459952309
             2.8253937    0.23472694665786
             0.6401217    0.81375731841339
 s    1 1.00
             0.1612778                   1

23 0
 s    3 1.00
             18.731137    0.03349459952309
             2.8253937    0.23472694665786
             0.6401217    0.81375731841339
 s    1 1.00
             0.1612778                   1

24 0
 s    3 1.00
             18.731137    0.03349459952309
             2.8253937    0.23472694665786
             0.6401217    0.81375731841339
 s    1 1.00
             0.1612778                   1

25 0
 s    3 1.00
             18.731137    0.03349459952309
             2.8253937    0.23472694665786
             0.6401217    0.81375731841339
 s    1 1.00
             0.1612778                   1

26 0
 s    3 1.00
             18.731137    0.03349459952309
             2.8253937    0.23472694665786
             0.6401217    0.81375731841339
 s    1 1.00
             0.1612778                   1

27 0
 s    3 1.00
             18.731137    0.03349459952309
             2.8253937    0.23472694665786
             0.6401217    0.81375731841339
 s    1 1.00
             0.1612778                   1

28 0
 s    3 1.00
             18.731137    0.03349459952309
             2.8253937    0.23472694665786
             0.6401217    0.81375731841339
 s    1 1.00
             0.1612778                   1

29 0
 s    3 1.00
             18.731137    0.03349459952309
             2.8253937    0.23472694665786
             0.6401217    0.81375731841339
 s    1 1.00
             0.1612778                   1

30 0
 s    3 1.00
             18.731137    0.03349459952309
             2.8253937    0.23472694665786
             0.6401217    0.81375731841339
 s    1 1.00
             0.1612778                   1

31 0
 s    3 1.00
             18.731137    0.03349459952309
             2.8253937    0.23472694665786
             0.6401217    0.81375731841339
 s    1 1.00
             0.1612778                   1

32 0
 s    3 1.00
             18.731137    0.03349459952309
             2.8253937    0.23472694665786
             0.6401217    0.81375731841339
 s    1 1.00
             0.1612778                   1

33 0
 s    6 1.00
             3047.5249  0.0018347001629433
             457.36951    0.01403730124668
             103.94869   0.068842606114048
             29.210155    0.23218442062076
              9.286663    0.46794134155879
              3.163927    0.36231203217765
 s    3 1.00
             7.8682724   -0.11933240861517
             1.8812885   -0.16085421161283
             0.5442493     1.1434564825515
 s    1 1.00
             0.1687144                   1
 p    3 1.00
             7.8682724   0.068999095584993
             1.8812885    0.31642397975315
             0.5442493    0.74430825237435
 p    1 1.00
             0.1687144                   1
 d    1 1.00
                   0.8                   1

34 0
 s    6 1.00
             3047.5249  0.0018347001629433
             457.36951    0.01403730124668
             103.94869   0.068842606114048
             29.210155    0.23218442062076
              9.286663    0.46794134155879
              3.163927    0.36231203217765
 s    3 1.00
             7.8682724   -0.11933240861517
             1.8812885   -0.16085421161283
             0.5442493     1.1434564825515
 s    1 1.00
             0.1687144                   1
 p    3 1.00
             7.8682724   0.068999095584993
             1.8812885    0.31642397975315
             0.5442493    0.74430825237435
 p    1 1.00
             0.1687144                   1
 d    1 1.00
                   0.8                   1

35 0
 s    3 1.00
             18.731137    0.03349459952309
             2.8253937    0.23472694665786
             0.6401217    0.81375731841339
 s    1 1.00
             0.1612778                   1

36 0
 s    6 1.00
             3047.5249  0.0018347001629433
             457.36951    0.01403730124668
             103.94869   0.068842606114048
             29.210155    0.23218442062076
              9.286663    0.46794134155879
              3.163927    0.36231203217765
 s    3 1.00
             7.8682724   -0.11933240861517
             1.8812885   -0.16085421161283
             0.5442493     1.1434564825515
 s    1 1.00
             0.1687144                   1
 p    3 1.00
             7.8682724   0.068999095584993
             1.8812885    0.31642397975315
             0.5442493    0.74430825237435
 p    1 1.00
             0.1687144                   1
 d    1 1.00
                   0.8                   1

37 0
 s    3 1.00
             18.731137    0.03349459952309
             2.8253937    0.23472694665786
             0.6401217    0.81375731841339
 s    1 1.00
             0.1612778                   1

38 0
 s    3 1.00
             18.731137    0.03349459952309
             2.8253937    0.23472694665786
             0.6401217    0.81375731841339
 s    1 1.00
             0.1612778                   1

39 0
 s    6 1.00
             3047.5249  0.0018347001629433
             457.36951    0.01403730124668
             103.94869   0.068842606114048
             29.210155    0.23218442062076
              9.286663    0.46794134155879
              3.163927    0.36231203217765
 s    3 1.00
             7.8682724   -0.11933240861517
             1.8812885   -0.16085421161283
             0.5442493     1.1434564825515
 s    1 1.00
             0.1687144                   1
 p    3 1.00
             7.8682724   0.068999095584993
             1.8812885    0.31642397975315
             0.5442493    0.74430825237435
 p    1 1.00
             0.1687144                   1
 d    1 1.00
                   0.8                   1

40 0
 s    6 1.00
             3047.5249  0.0018347001629433
             457.36951    0.01403730124668
             103.94869   0.068842606114048
             29.210155    0.23218442062076
              9.286663    0.46794134155879
              3.163927    0.36231203217765
 s    3 1.00
             7.8682724   -0.11933240861517
             1.8812885   -0.16085421161283
             0.5442493     1.1434564825515
 s    1 1.00
             0.1687144                   1
 p    3 1.00
             7.8682724   0.068999095584993
             1.8812885    0.31642397975315
             0.5442493    0.74430825237435
 p    1 1.00
             0.1687144                   1
 d    1 1.00
                   0.8                   1

41 0
 s    3 1.00
             18.731137    0.03349459952309
             2.8253937    0.23472694665786
             0.6401217    0.81375731841339
 s    1 1.00
             0.1612778                   1

42 0
 s    6 1.00
             5484.6717   0.001831099805527
             825.23495   0.013950098518422
             188.04696    0.06844509273075
               52.9645    0.23271427528445
              16.89757    0.47019295006289
             5.7996353    0.35852086192309
 s    3 1.00
             15.539616   -0.11077750382508
             3.5999336   -0.14802630511126
             1.0137618     1.1307670390447
 s    1 1.00
             0.2700058                   1
 p    3 1.00
             15.539616   0.070874299543311
             3.5999336    0.33975279781076
             1.0137618    0.72715859531445
 p    1 1.00
             0.2700058                   1
 d    1 1.00
                   0.8                   1

43 0
 s    3 1.00
             18.731137    0.03349459952309
             2.8253937    0.23472694665786
             0.6401217    0.81375731841339
 s    1 1.00
             0.1612778                   1

[5d]
[7f]
[9g]

[MO]
 Sym= A
 Ene=               0
 Spin= Alpha
 Occup=    1.00000
   1     0.019829979536814
   2    -0.00083879213241231
   3    0.0069106507594804
   4    0.0003714651517224
   5    -0.00017658566898256
   6     0.001132052268163
   7    0.00079318310500635
   8    0.0014013052095085
   9    -0.0054084220005393
  10    -0.00090343270285603
  11    -0.00087958314485417
  12    0.00013882416788384
  13    -0.00019795694879085
  14    4.8800371194415e-05
  15    -0.00043608749174758
  16    -0.00084264238973174
  17      0.99483324152105
  18     0.036778304543162
  19    -0.028519291243308
  20    0.00093674681376881
  21    0.00019296588845877
  22    -0.00053982529426799
  23     -0.00362731517426
  24    -0.0011295962515202
  25    -0.00079770209851113
  26    0.00075551966340644
  27    -0.00029987001983655
  28    -0.00033541455250738
  29    0.00028906989199528
  30    0.00022413059222952
  31    -0.0011472830843323
  32    0.0038183517990913
  33     0.016124028625313
  34    -0.00018339034237781
  35    0.0013218199190005
  36    0.00082668284771953
  37    0.00031471146088908
  38    -0.0011119921009215
  39    -0.0028631853781767
  40    0.0031997926372737
  41    0.0036085446207826
  42    -0.00055882871043391
  43    0.0011681203611902
  44    0.00049695398529308
  45    -0.0003711247577478
  46    -0.0003479293014018
  47    -0.00054586499125209
  48    -0.00054482821744034
  49    0.00031525803622468
  50    -0.000500741961069
  51    4.8237494116675e-05
  52    0.00032089352598637
  53    3.246749702778e-05
  54    -0.00035335943049787
  55    -0.0053852555002107
  56    0.00077503597815862
  57    0.0063338092782522
  58    -0.00016733305624082
  59    -1.0849036022759e-05
  60    9.4895594986939e-05
  61    -0.00016651944824139
  62    -0.00026115522917153
  63    -0.00048240519023813
  64    0.00017465596971095
  65    -4.0030024940962e-06
  66    -5.5271429447413e-06
  67    8.8091670492501e-07
  68    -3.2695352315575e-06
  69    3.5426918424079e-06
  70    2.0635387792076e-06
  71    -5.4765559622423e-06
  72    1.0073798430699e-06
  73    9.2820199652574e-06
  74    2.4918606684888e-05
  75    6.0605873226692e-06
  76    -5.6381536920351e-07
  77    -4.8869470623934e-07
  78    5.5203492439711e-07
  79    5.3211677618958e-07
  80    -6.7243024934465e-08
  81    3.0136125028917e-06
  82    1.4422082334292e-05
  83    1.836237105689e-06
  84    -2.5825843302443e-06
  85    -8.6630372061615e-05
  86    9.6403584990588e-06
  87    2.3628158904885e-06
  88    1.643085749146e-05
  89    2.7016862141296e-05
  90    -6.1307499904363e-05
  91    2.4263979426424e-05
  92    1.1645756528008e-06
  93    -2.1093609693282e-06
  94    4.0328976431469e-06
  95    -2.6943190866269e-07
  96    -7.5683936050128e-07
  97    1.1693110007087e-05
  98    2.0729126794849e-05
  99    -2.2262742644541e-06
 100    -1.8241748080617e-05
 101    -2.7998444163123e-06
 102    -6.7874070823451e-06
 103    0.00017679496612444
 104    -1.4539459562331e-05
 105    -1.975985848282e-05
 106    -5.4496754106838e-06
 107    -0.00019250261512394
 108    0.00016439708619736
 109    0.00017781172063739
 110    -7.5950341777676e-06
 111    -3.0833918077564e-06
 112    1.1755533288749e-06
 113    1.574747916198e-06
 114    -5.365781323433e-06
 115    -5.9647230626157e-06
 116    -2.959459315163e-05
 117    0.0002594353741528
 118    -5.4781472631286e-06
 119    7.5710066495023e-06
 120    1.0756848540974e-05
 121    -6.49031646445e-05
 122    3.2252745446844e-05
 123    3.9605506932113e-05
 124    7.0376449525443e-07
 125    -3.5107099547841e-06
 126    -2.1585513991909e-06
 127    1.7760902945651e-06
 128    -2.1572224482107e-06
 129    7.4091882701952e-06
 130    -7.5653792313034e-05
 131    0.00012973194086883
 132    1.9347806456296e-05
 133    -1.0566722675888e-06
 134    9.9753961372153e-05
 135    -0.00028560489917139
 136    1.6440993032337e-05
 137    -0.00041647394573343
 138    1.2135205413416e-05
 139    8.7433534575468e-06
 140    3.2949694528787e-06
 141    3.4438082185699e-06
 142    5.1034199316641e-06
 143    -1.0756308929968e-05
 144    -1.3781308108429e-05
 145    0.00011874269240643
 146    1.996143969472e-05
 147    -9.903571918651e-06
 148    -2.0143892870102e-05
 149    5.9259786147751e-05
 150    -2.8111112194064e-05
 151    -7.2945934034293e-05
 152    -8.8135355296324e-06
 153    -5.2846082286356e-06
 154    -2.5580228047827e-06
 155    4.9115179779619e-06
 156    -5.5057216002899e-06
 157    6.3765525068615e-07
 158    1.3452347899303e-05
 159    -2.3888870274356e-05
 160    6.4657667548828e-06
 161    -2.8081757178393e-06
 162    1.3025184156173e-06
 163    -5.0145536080779e-05
 164    1.7821755524782e-05
 165    1.4782420790119e-05
 166    3.5642879931514e-06
 167    -1.6134875160289e-06
 168    2.5137243471637e-07
 169    4.5388376159121e-07
 170    1.3062389694524e-06
 171    -1.5105639230867e-06
 172    -1.1256783922484e-05
 173    2.5409033728858e-05
 174    -2.6053531340728e-06
 175    1.5408503328083e-06
 176    9.9051741715565e-06
 177    -9.9904258176618e-06
 178    1.7102243677723e-06
 179    -3.1546392893764e-05
 180    1.1656409653312e-06
 181    3.4218720756638e-06
 182    4.8760360814044e-07
 183    -7.9289082670338e-07
 184    1.4137090472624e-06
 185    4.6699334695507e-07
 186    -3.277476383206e-05
 187    3.8260669140629e-05
 188    3.0144463106036e-06
 189    4.1635226597547e-06
 190    2.3263543782192e-05
 191    6.1683988178953e-06
 192    -4.531074896845e-06
 193    -4.4866550455047e-05
 194    3.3363348000546e-06
 195    2.235646323827e-07
 196    3.0298456981955e-06
 197    -3.6376327747703e-07
 198    2.2640625793047e-07
 199    -6.5701766483308e-06
 200     3.83759992096e-08
 201    4.5107394340842e-06
 202    3.4274868664146e-05
 203    -1.2396016941025e-05
 204    -2.3706418304398e-06
 205    2.3092213827393e-06
 206    -2.2832070477192e-05
 207    4.9114931206279e-06
 208    -5.6768071947613e-05
 209    7.0149480628903e-06
 210    -3.085515357157e-05
 211    5.3977645449579e-06
 212    1.5204861886179e-05
 213    2.1913115609926e-06
 214    -1.5577955047685e-05
 215    -5.1928248968358e-06
 216    -4.3602099080684e-05
 217    3.9260764437656e-06
 218    1.4308477045425e-05
 219    -2.6966094789142e-07
 220    1.4729904523069e-06
 221    -8.7587562746221e-05
 222    7.7435092426913e-05
 223    0.00087931388868388
 224    0.0001011694958227
 225    5.5655662445324e-05
 226    -0.00020833922875708
 227    0.00061036516637571
 228    0.00031030988417496
 229    -0.00094409790640709
 230    -1.9052453223141e-06
 231    -4.5372217823157e-05
 232    -1.8685608715662e-05
 233    2.4062826883405e-05
 234    2.2758340719666e-05
 235    0.00014214473768643
 236    -0.00032061382384402
 237    -0.00043544472513771
 238    -0.00020480064659403
 239    -0.00016792980716849
 240    0.00054848261842067
 241    0.00018273770930363
 242    0.0002761379374343
 243    -0.0012614247180743
 244    2.5105630489805e-06
 245    5.5797159484102e-05
 246    9.8065024370648e-06
 247    1.2746139600324e-05
 248    -5.3241537631292e-06
 249    -1.676464109942e-05
 250    0.00028468625106324
 251    -0.00034260564876409
 252    -0.0004397590815498
 253    0.0020292290663215
 254    -0.00049770625820414
 255    -0.00010579362940833
 256    -0.00019120634094849
 257    -0.00019934492552007
 258    0.00026333969175956
 259    -0.0018578865658879
 260    -7.8166216485886e-05
 261    -2.9281337913402e-05
 262    -8.51724926701e-06
 263    0.00014891610109195
 264    8.1407407552132e-05
 265    -0.00025295074631272
 266     0.000146065359002
 267    0.00021962079810843
 268    -0.00020631521345419
 269    -1.8921121541703e-05
 270    -0.00049366775578115
 271    0.0066252312893115
 272    -8.8339526687364e-06
 273    -0.00015054237359199
 274    8.5576172612767e-05
 275    -0.0011415178699629
 276    -0.0026662662952929
 277    0.0028787353982772
 278    9.3797819723471e-05
 279    -0.00016560783384003
 280    -9.6648941418407e-05
 281    -1.3657720772289e-05