[Molden Format]
made by pyscf v[2.0.1]
[Atoms] (AU)
C   1   6     0.69100024066471     0.64692934207205    -3.48223131169301
H   2   1     2.68052439830868     1.13355088658700    -3.25784032593313
C   3   6    -0.36286361513219     0.85440132524594    -5.97030179418974
H   4   1    -2.35448549047279     0.36322488579172    -6.17995817793143
C   5   6     0.93697958957450     1.61209284601821    -8.05828437677121
H   6   1     2.28684852848462     3.15852966115860    -7.89296704602693
C   7   6     0.63106041134958     0.47904579632082   -10.50346361691732
H   8   1    -0.72718870892227    -1.06897620367389   -10.63951300078030
H   9   1     1.55630230933075    -1.92953025305990    12.99630010416247
C   10   6     0.75233899775814    -2.21270439606481    11.10705728102219
H   11   1    -0.43433408177274    -3.90944857546550    11.22216085340412
C   12   6     2.86362581178706    -2.63237380607947     9.17926416456045
H   13   1     4.39038949912609    -1.24955421540245     9.49899813497433
H   14   1     3.74629220191363    -4.48798724300892     9.47414880959024
C   15   6     2.02478325613682    -2.42177285709634     6.44560829588644
C   16   6     3.88048732735477    -3.58795445234514     4.61402886975252
C   17   6    -0.18412382258602    -1.30464291234259     5.76021113872346
C   18   6    -2.10044360464350    -0.26837831858460     7.71610340967100
C   19   6    -3.08956938670431     2.35282328359417     6.88693925039594
C   20   6    -4.37372924086464    -2.09766595989678     7.93610724222001
C   21   6    -0.83850430601230     0.06372213486173    10.33002307638377
H   22   1     0.38411922151109     1.74281358582432    10.27380136542181
H   23   1    -2.30980003007874     0.45460143924521    11.73986301809809
H   24   1     4.58527064644668    -5.38706904487420     5.36778158031719
H   25   1     5.54944938085014    -2.37631462192748     4.35398898413318
H   26   1     3.06633019150423    -3.94118377050688     2.75255466040884
H   27   1    -4.17727778763735     2.26573369139522     5.12914900961283
H   28   1    -1.52662344944051     3.68001877445626     6.59540397144508
H   29   1    -4.32916174397830     3.13643051467482     8.35225460090378
H   30   1    -5.32329548508442    -2.36691813602939     6.11583672749896
H   31   1    -5.77989366602257    -1.33896741843465     9.25748940450990
H   32   1    -3.79310905208926    -3.96389819310853     8.61386170102686
C   33   6    -1.01100794811226    -1.06331657314144     3.11929490449947
C   34   6     0.37686231036534    -0.33275864505552     1.09165013605873
H   35   1    -3.01671213906703    -1.40297922279997     2.77827895090944
C   36   6    -0.64382707979370    -0.11591880174385    -1.42063131251064
H   37   1     2.35569259782137     0.17174499283897     1.33641070251401
H   38   1    -2.63317482980319    -0.60229203511219    -1.66119700387645
C   39   6     1.88057107480096     1.17167710004378   -12.63318625924474
C   40   6     1.43424299107759    -0.10242214041261   -15.03828188134704
H   41   1     3.25774949416826     2.69847908646217   -12.62832443574420
O   42   8     2.48751113017790     0.42264932688836   -17.02215443525925
H   43   1     0.01015752982003    -1.65333508727432   -14.95564685399208
[GTO]
1 0
 s    6 1.00
             3047.5249  0.0018347001629433
             457.36951    0.01403730124668
             103.94869   0.068842606114048
             29.210155    0.23218442062076
              9.286663    0.46794134155879
              3.163927    0.36231203217765
 s    3 1.00
             7.8682724   -0.11933240861517
             1.8812885   -0.16085421161283
             0.5442493     1.1434564825515
 s    1 1.00
             0.1687144                   1
 p    3 1.00
             7.8682724   0.068999095584993
             1.8812885    0.31642397975315
             0.5442493    0.74430825237435
 p    1 1.00
             0.1687144                   1
 d    1 1.00
                   0.8                   1

2 0
 s    3 1.00
             18.731137    0.03349459952309
             2.8253937    0.23472694665786
             0.6401217    0.81375731841339
 s    1 1.00
             0.1612778                   1

3 0
 s    6 1.00
             3047.5249  0.0018347001629433
             457.36951    0.01403730124668
             103.94869   0.068842606114048
             29.210155    0.23218442062076
              9.286663    0.46794134155879
              3.163927    0.36231203217765
 s    3 1.00
             7.8682724   -0.11933240861517
             1.8812885   -0.16085421161283
             0.5442493     1.1434564825515
 s    1 1.00
             0.1687144                   1
 p    3 1.00
             7.8682724   0.068999095584993
             1.8812885    0.31642397975315
             0.5442493    0.74430825237435
 p    1 1.00
             0.1687144                   1
 d    1 1.00
                   0.8                   1

4 0
 s    3 1.00
             18.731137    0.03349459952309
             2.8253937    0.23472694665786
             0.6401217    0.81375731841339
 s    1 1.00
             0.1612778                   1

5 0
 s    6 1.00
             3047.5249  0.0018347001629433
             457.36951    0.01403730124668
             103.94869   0.068842606114048
             29.210155    0.23218442062076
              9.286663    0.46794134155879
              3.163927    0.36231203217765
 s    3 1.00
             7.8682724   -0.11933240861517
             1.8812885   -0.16085421161283
             0.5442493     1.1434564825515
 s    1 1.00
             0.1687144                   1
 p    3 1.00
             7.8682724   0.068999095584993
             1.8812885    0.31642397975315
             0.5442493    0.74430825237435
 p    1 1.00
             0.1687144                   1
 d    1 1.00
                   0.8                   1

6 0
 s    3 1.00
             18.731137    0.03349459952309
             2.8253937    0.23472694665786
             0.6401217    0.81375731841339
 s    1 1.00
             0.1612778                   1

7 0
 s    6 1.00
             3047.5249  0.0018347001629433
             457.36951    0.01403730124668
             103.94869   0.068842606114048
             29.210155    0.23218442062076
              9.286663    0.46794134155879
              3.163927    0.36231203217765
 s    3 1.00
             7.8682724   -0.11933240861517
             1.8812885   -0.16085421161283
             0.5442493     1.1434564825515
 s    1 1.00
             0.1687144                   1
 p    3 1.00
             7.8682724   0.068999095584993
             1.8812885    0.31642397975315
             0.5442493    0.74430825237435
 p    1 1.00
             0.1687144                   1
 d    1 1.00
                   0.8                   1

8 0
 s    3 1.00
             18.731137    0.03349459952309
             2.8253937    0.23472694665786
             0.6401217    0.81375731841339
 s    1 1.00
             0.1612778                   1

9 0
 s    3 1.00
             18.731137    0.03349459952309
             2.8253937    0.23472694665786
             0.6401217    0.81375731841339
 s    1 1.00
             0.1612778                   1

10 0
 s    6 1.00
             3047.5249  0.0018347001629433
             457.36951    0.01403730124668
             103.94869   0.068842606114048
             29.210155    0.23218442062076
              9.286663    0.46794134155879
              3.163927    0.36231203217765
 s    3 1.00
             7.8682724   -0.11933240861517
             1.8812885   -0.16085421161283
             0.5442493     1.1434564825515
 s    1 1.00
             0.1687144                   1
 p    3 1.00
             7.8682724   0.068999095584993
             1.8812885    0.31642397975315
             0.5442493    0.74430825237435
 p    1 1.00
             0.1687144                   1
 d    1 1.00
                   0.8                   1

11 0
 s    3 1.00
             18.731137    0.03349459952309
             2.8253937    0.23472694665786
             0.6401217    0.81375731841339
 s    1 1.00
             0.1612778                   1

12 0
 s    6 1.00
             3047.5249  0.0018347001629433
             457.36951    0.01403730124668
             103.94869   0.068842606114048
             29.210155    0.23218442062076
              9.286663    0.46794134155879
              3.163927    0.36231203217765
 s    3 1.00
             7.8682724   -0.11933240861517
             1.8812885   -0.16085421161283
             0.5442493     1.1434564825515
 s    1 1.00
             0.1687144                   1
 p    3 1.00
             7.8682724   0.068999095584993
             1.8812885    0.31642397975315
             0.5442493    0.74430825237435
 p    1 1.00
             0.1687144                   1
 d    1 1.00
                   0.8                   1

13 0
 s    3 1.00
             18.731137    0.03349459952309
             2.8253937    0.23472694665786
             0.6401217    0.81375731841339
 s    1 1.00
             0.1612778                   1

14 0
 s    3 1.00
             18.731137    0.03349459952309
             2.8253937    0.23472694665786
             0.6401217    0.81375731841339
 s    1 1.00
             0.1612778                   1

15 0
 s    6 1.00
             3047.5249  0.0018347001629433
             457.36951    0.01403730124668
             103.94869   0.068842606114048
             29.210155    0.23218442062076
              9.286663    0.46794134155879
              3.163927    0.36231203217765
 s    3 1.00
             7.8682724   -0.11933240861517
             1.8812885   -0.16085421161283
             0.5442493     1.1434564825515
 s    1 1.00
             0.1687144                   1
 p    3 1.00
             7.8682724   0.068999095584993
             1.8812885    0.31642397975315
             0.5442493    0.74430825237435
 p    1 1.00
             0.1687144                   1
 d    1 1.00
                   0.8                   1

16 0
 s    6 1.00
             3047.5249  0.0018347001629433
             457.36951    0.01403730124668
             103.94869   0.068842606114048
             29.210155    0.23218442062076
              9.286663    0.46794134155879
              3.163927    0.36231203217765
 s    3 1.00
             7.8682724   -0.11933240861517
             1.8812885   -0.16085421161283
             0.5442493     1.1434564825515
 s    1 1.00
             0.1687144                   1
 p    3 1.00
             7.8682724   0.068999095584993
             1.8812885    0.31642397975315
             0.5442493    0.74430825237435
 p    1 1.00
             0.1687144                   1
 d    1 1.00
                   0.8                   1

17 0
 s    6 1.00
             3047.5249  0.0018347001629433
             457.36951    0.01403730124668
             103.94869   0.068842606114048
             29.210155    0.23218442062076
              9.286663    0.46794134155879
              3.163927    0.36231203217765
 s    3 1.00
             7.8682724   -0.11933240861517
             1.8812885   -0.16085421161283
             0.5442493     1.1434564825515
 s    1 1.00
             0.1687144                   1
 p    3 1.00
             7.8682724   0.068999095584993
             1.8812885    0.31642397975315
             0.5442493    0.74430825237435
 p    1 1.00
             0.1687144                   1
 d    1 1.00
                   0.8                   1

18 0
 s    6 1.00
             3047.5249  0.0018347001629433
             457.36951    0.01403730124668
             103.94869   0.068842606114048
             29.210155    0.23218442062076
              9.286663    0.46794134155879
              3.163927    0.36231203217765
 s    3 1.00
             7.8682724   -0.11933240861517
             1.8812885   -0.16085421161283
             0.5442493     1.1434564825515
 s    1 1.00
             0.1687144                   1
 p    3 1.00
             7.8682724   0.068999095584993
             1.8812885    0.31642397975315
             0.5442493    0.74430825237435
 p    1 1.00
             0.1687144                   1
 d    1 1.00
                   0.8                   1

19 0
 s    6 1.00
             3047.5249  0.0018347001629433
             457.36951    0.01403730124668
             103.94869   0.068842606114048
             29.210155    0.23218442062076
              9.286663    0.46794134155879
              3.163927    0.36231203217765
 s    3 1.00
             7.8682724   -0.11933240861517
             1.8812885   -0.16085421161283
             0.5442493     1.1434564825515
 s    1 1.00
             0.1687144                   1
 p    3 1.00
             7.8682724   0.068999095584993
             1.8812885    0.31642397975315
             0.5442493    0.74430825237435
 p    1 1.00
             0.1687144                   1
 d    1 1.00
                   0.8                   1

20 0
 s    6 1.00
             3047.5249  0.0018347001629433
             457.36951    0.01403730124668
             103.94869   0.068842606114048
             29.210155    0.23218442062076
              9.286663    0.46794134155879
              3.163927    0.36231203217765
 s    3 1.00
             7.8682724   -0.11933240861517
             1.8812885   -0.16085421161283
             0.5442493     1.1434564825515
 s    1 1.00
             0.1687144                   1
 p    3 1.00
             7.8682724   0.068999095584993
             1.8812885    0.31642397975315
             0.5442493    0.74430825237435
 p    1 1.00
             0.1687144                   1
 d    1 1.00
                   0.8                   1

21 0
 s    6 1.00
             3047.5249  0.0018347001629433
             457.36951    0.01403730124668
             103.94869   0.068842606114048
             29.210155    0.23218442062076
              9.286663    0.46794134155879
              3.163927    0.36231203217765
 s    3 1.00
             7.8682724   -0.11933240861517
             1.8812885   -0.16085421161283
             0.5442493     1.1434564825515
 s    1 1.00
             0.1687144                   1
 p    3 1.00
             7.8682724   0.068999095584993
             1.8812885    0.31642397975315
             0.5442493    0.74430825237435
 p    1 1.00
             0.1687144                   1
 d    1 1.00
                   0.8                   1

22 0
 s    3 1.00
             18.731137    0.03349459952309
             2.8253937    0.23472694665786
             0.6401217    0.81375731841339
 s    1 1.00
             0.1612778                   1

23 0
 s    3 1.00
             18.731137    0.03349459952309
             2.8253937    0.23472694665786
             0.6401217    0.81375731841339
 s    1 1.00
             0.1612778                   1

24 0
 s    3 1.00
             18.731137    0.03349459952309
             2.8253937    0.23472694665786
             0.6401217    0.81375731841339
 s    1 1.00
             0.1612778                   1

25 0
 s    3 1.00
             18.731137    0.03349459952309
             2.8253937    0.23472694665786
             0.6401217    0.81375731841339
 s    1 1.00
             0.1612778                   1

26 0
 s    3 1.00
             18.731137    0.03349459952309
             2.8253937    0.23472694665786
             0.6401217    0.81375731841339
 s    1 1.00
             0.1612778                   1

27 0
 s    3 1.00
             18.731137    0.03349459952309
             2.8253937    0.23472694665786
             0.6401217    0.81375731841339
 s    1 1.00
             0.1612778                   1

28 0
 s    3 1.00
             18.731137    0.03349459952309
             2.8253937    0.23472694665786
             0.6401217    0.81375731841339
 s    1 1.00
             0.1612778                   1

29 0
 s    3 1.00
             18.731137    0.03349459952309
             2.8253937    0.23472694665786
             0.6401217    0.81375731841339
 s    1 1.00
             0.1612778                   1

30 0
 s    3 1.00
             18.731137    0.03349459952309
             2.8253937    0.23472694665786
             0.6401217    0.81375731841339
 s    1 1.00
             0.1612778                   1

31 0
 s    3 1.00
             18.731137    0.03349459952309
             2.8253937    0.23472694665786
             0.6401217    0.81375731841339
 s    1 1.00
             0.1612778                   1

32 0
 s    3 1.00
             18.731137    0.03349459952309
             2.8253937    0.23472694665786
             0.6401217    0.81375731841339
 s    1 1.00
             0.1612778                   1

33 0
 s    6 1.00
             3047.5249  0.0018347001629433
             457.36951    0.01403730124668
             103.94869   0.068842606114048
             29.210155    0.23218442062076
              9.286663    0.46794134155879
              3.163927    0.36231203217765
 s    3 1.00
             7.8682724   -0.11933240861517
             1.8812885   -0.16085421161283
             0.5442493     1.1434564825515
 s    1 1.00
             0.1687144                   1
 p    3 1.00
             7.8682724   0.068999095584993
             1.8812885    0.31642397975315
             0.5442493    0.74430825237435
 p    1 1.00
             0.1687144                   1
 d    1 1.00
                   0.8                   1

34 0
 s    6 1.00
             3047.5249  0.0018347001629433
             457.36951    0.01403730124668
             103.94869   0.068842606114048
             29.210155    0.23218442062076
              9.286663    0.46794134155879
              3.163927    0.36231203217765
 s    3 1.00
             7.8682724   -0.11933240861517
             1.8812885   -0.16085421161283
             0.5442493     1.1434564825515
 s    1 1.00
             0.1687144                   1
 p    3 1.00
             7.8682724   0.068999095584993
             1.8812885    0.31642397975315
             0.5442493    0.74430825237435
 p    1 1.00
             0.1687144                   1
 d    1 1.00
                   0.8                   1

35 0
 s    3 1.00
             18.731137    0.03349459952309
             2.8253937    0.23472694665786
             0.6401217    0.81375731841339
 s    1 1.00
             0.1612778                   1

36 0
 s    6 1.00
             3047.5249  0.0018347001629433
             457.36951    0.01403730124668
             103.94869   0.068842606114048
             29.210155    0.23218442062076
              9.286663    0.46794134155879
              3.163927    0.36231203217765
 s    3 1.00
             7.8682724   -0.11933240861517
             1.8812885   -0.16085421161283
             0.5442493     1.1434564825515
 s    1 1.00
             0.1687144                   1
 p    3 1.00
             7.8682724   0.068999095584993
             1.8812885    0.31642397975315
             0.5442493    0.74430825237435
 p    1 1.00
             0.1687144                   1
 d    1 1.00
                   0.8                   1

37 0
 s    3 1.00
             18.731137    0.03349459952309
             2.8253937    0.23472694665786
             0.6401217    0.81375731841339
 s    1 1.00
             0.1612778                   1

38 0
 s    3 1.00
             18.731137    0.03349459952309
             2.8253937    0.23472694665786
             0.6401217    0.81375731841339
 s    1 1.00
             0.1612778                   1

39 0
 s    6 1.00
             3047.5249  0.0018347001629433
             457.36951    0.01403730124668
             103.94869   0.068842606114048
             29.210155    0.23218442062076
              9.286663    0.46794134155879
              3.163927    0.36231203217765
 s    3 1.00
             7.8682724   -0.11933240861517
             1.8812885   -0.16085421161283
             0.5442493     1.1434564825515
 s    1 1.00
             0.1687144                   1
 p    3 1.00
             7.8682724   0.068999095584993
             1.8812885    0.31642397975315
             0.5442493    0.74430825237435
 p    1 1.00
             0.1687144                   1
 d    1 1.00
                   0.8                   1

40 0
 s    6 1.00
             3047.5249  0.0018347001629433
             457.36951    0.01403730124668
             103.94869   0.068842606114048
             29.210155    0.23218442062076
              9.286663    0.46794134155879
              3.163927    0.36231203217765
 s    3 1.00
             7.8682724   -0.11933240861517
             1.8812885   -0.16085421161283
             0.5442493     1.1434564825515
 s    1 1.00
             0.1687144                   1
 p    3 1.00
             7.8682724   0.068999095584993
             1.8812885    0.31642397975315
             0.5442493    0.74430825237435
 p    1 1.00
             0.1687144                   1
 d    1 1.00
                   0.8                   1

41 0
 s    3 1.00
             18.731137    0.03349459952309
             2.8253937    0.23472694665786
             0.6401217    0.81375731841339
 s    1 1.00
             0.1612778                   1

42 0
 s    6 1.00
             5484.6717   0.001831099805527
             825.23495   0.013950098518422
             188.04696    0.06844509273075
               52.9645    0.23271427528445
              16.89757    0.47019295006289
             5.7996353    0.35852086192309
 s    3 1.00
             15.539616   -0.11077750382508
             3.5999336   -0.14802630511126
             1.0137618     1.1307670390447
 s    1 1.00
             0.2700058                   1
 p    3 1.00
             15.539616   0.070874299543311
             3.5999336    0.33975279781076
             1.0137618    0.72715859531445
 p    1 1.00
             0.2700058                   1
 d    1 1.00
                   0.8                   1

43 0
 s    3 1.00
             18.731137    0.03349459952309
             2.8253937    0.23472694665786
             0.6401217    0.81375731841339
 s    1 1.00
             0.1612778                   1

[5d]
[7f]
[9g]

[MO]
 Sym= A
 Ene=               0
 Spin= Alpha
 Occup=    1.00000
   1    -5.20079707455e-06
   2    -2.9555776652736e-06
   3    -0.00011493260838145
   4    -7.4981802201323e-06
   5    -2.6487385398696e-05
   6    -2.5914420466436e-07
   7    0.0001592982990738
   8    0.0001973161461934
   9    -0.00036113962179335
  10    1.1395033589276e-05
  11    1.1987963683553e-05
  12    -9.798768771887e-07
  13    -2.3054106235817e-06
  14    2.2277969463319e-06
  15    -2.0181311044468e-05
  16    -3.212618441487e-05
  17    8.9747497762899e-06
  18    -1.964217540228e-05
  19    -0.0013260945222384
  20    -3.0810462478888e-05
  21    7.4637696931907e-06
  22    7.2925652264342e-05
  23    -0.00030127208365571
  24    -8.1889894060745e-05
  25    0.00070335675082202
  26    -3.734330086487e-05
  27    1.925215846787e-05
  28    1.7238765317354e-05
  29    -2.8416684444845e-05
  30    2.9154384304567e-05
  31    -2.7072071104187e-07
  32    3.063506956775e-05
  33    -7.8050126701978e-05
  34    -0.00026477220398658
  35    0.0047862190452566
  36    3.0114689711618e-05
  37    -4.1397157311269e-05
  38    -0.00021293547453467
  39    -0.0010562014087791
  40    -0.0014671682520037
  41    -0.0012050225412911
  42    0.00012445056886699
  43    -1.364864980324e-05
  44    8.0350461485229e-05
  45    -1.5211775245719e-05
  46    4.2412408007045e-05
  47    2.0623588055326e-05
  48    0.00027847577567918
  49    5.6132366043485e-05
  50    -0.00029344456868634
  51    -0.0038262178412134
  52    2.6495869832593e-05
  53    0.00021552053295727
  54    0.00057259630976513
  55    -0.00056602223288532
  56    -0.0017387060539661
  57    -0.003265379588076
  58    -7.803180393236e-05
  59    -0.00011201122687252
  60    -0.00014340484672518
  61    3.2889484592592e-05
  62    9.2396080856559e-05
  63    -0.00039529522004587
  64    -0.00014781586832561
  65    4.2177822018351e-08
  66    1.0907599242446e-06
  67    -4.8680628426515e-08
  68    -4.7023737496759e-07
  69    -1.5652043855093e-06
  70    3.1226461314015e-07
  71    -3.5236301117193e-07
  72    1.9629732953638e-07
  73    1.1540683927447e-06
  74    -2.44922696267e-07
  75    -1.5144610134274e-06
  76    1.3850884409073e-07
  77    8.7008714369536e-08
  78    5.1738209315027e-08
  79    1.7831209701261e-08
  80    7.2042074253449e-08
  81    6.3183120609495e-08
  82    3.600278455275e-07
  83    1.2415159963111e-07
  84    8.8036076178726e-07
  85    -2.0268187780212e-06
  86    6.9721972240084e-08
  87    -9.7521834525762e-08
  88    1.4898771857994e-07
  89    1.3439521358267e-06
  90    -2.516126264879e-06
  91    -2.3462201000103e-07
  92    -1.0195918200936e-07
  93    -1.5777022382161e-07
  94    3.7039541614854e-07
  95    -1.5021855473019e-07
  96    3.5214807894555e-08
  97    4.7823427107849e-07
  98    -1.4709501611468e-08
  99    -8.0465585417932e-08
 100    -3.7499237774602e-07
 101    -2.4048161618102e-07
 102    -4.6373703904581e-07
 103     3.16041015894e-05
 104    -3.8095298528393e-07
 105    3.7628548116661e-07
 106    -1.135153525462e-06
 107    -1.0541461365742e-05
 108    1.2083343082038e-05
 109    -7.6829068251523e-06
 110    5.034406769685e-07
 111    7.1330364429119e-07
 112    -3.2679290003409e-07
 113    -6.1410783184992e-07
 114    -6.8379260496367e-07
 115    3.7545100690926e-07
 116    3.7109724182052e-06
 117    -1.530601342002e-05
 118    9.5714619270188e-09
 119    2.4450624455951e-07
 120    -8.0701444689449e-07
 121    3.2740101301749e-06
 122    -3.7709098930941e-06
 123    9.2829509162388e-06
 124    2.5230485224386e-07
 125    -3.6271995385747e-07
 126    -2.015215825184e-07
 127    3.6000718076169e-08
 128    -5.4761230585406e-08
 129    3.8761104227177e-07
 130    4.7114467779351e-06
 131    1.4556360992399e-05
 132    2.7073721605567e-06
 133    1.7748978679799e-06
 134    -3.3906701654811e-06
 135    -4.5601025775252e-05
 136    2.7177992112395e-07
 137    1.0829699282077e-06
 138    -1.6012554093672e-07
 139    2.3375021619123e-07
 140    1.1685855913583e-06
 141    -2.7060646988326e-07
 142    7.6596596287938e-07
 143    -2.3265322359059e-09
 144    -1.1693004860876e-06
 145    -1.6492184881807e-05
 146    -4.2760385702971e-07
 147    -1.1120791704859e-06
 148    2.534517609191e-06
 149    -6.5319024553177e-06
 150    2.2026564856909e-05
 151    -1.0769791567614e-05
 152    -8.2601182013341e-08
 153    9.8043578259131e-08
 154    -1.0208890728055e-06
 155    -2.6346381914284e-07
 156    -4.243228715409e-07
 157    3.3793279213055e-07
 158    2.3943478537276e-06
 159    -1.8207122163974e-05
 160    -1.547558950939e-07
 161    6.6793229621642e-07
 162    -6.5515028626106e-07
 163    -4.0839458715989e-06
 164    6.9465637026192e-06
 165    8.597519055668e-07
 166    5.2463698005161e-07
 167    -2.5121645120419e-07
 168    1.2647290857106e-07
 169    2.8372177156201e-07
 170    3.9449342084898e-07
 171    -1.1628643213713e-09
 172    2.4478976776337e-07
 173    3.2691876072919e-06
 174    2.0935458837444e-07
 175    -8.6969959237358e-08
 176    4.8026186701216e-07
 177    6.2968455071529e-06
 178    2.0212540657988e-06
 179    3.8849314465284e-06
 180    -2.4416571673431e-07
 181    6.585015152681e-07
 182    8.7902454589972e-08
 183    4.8366766621576e-07
 184    4.8038864357157e-07
 185    -2.6368241211874e-07
 186    -2.0273498863366e-06
 187    1.2951842001726e-05
 188    -4.845404058996e-07
 189    -7.8880870320769e-08
 190    -3.2949316297002e-07
 191    -1.4805352791426e-06
 192    -5.772279821133e-06
 193    -4.4123937534347e-06
 194    9.0113641220043e-08
 195    4.1624805134978e-07
 196    7.9887696010126e-07
 197    -2.1012902887543e-07
 198    1.9339323225505e-07
 199    -5.6897944946866e-07
 200    1.530423264256e-06
 201    -2.7665571346308e-07
 202    -3.6919424666742e-07
 203    2.8549352353055e-07
 204    -1.8195321595471e-06
 205    1.5168359478005e-06
 206    9.6740548250456e-07
 207    -1.3930353207306e-06
 208    1.6049045518345e-05
 209    9.6273295093922e-07
 210    1.3302346896318e-06
 211    9.8576462363533e-07
 212    8.710020841256e-07
 213    3.2524195378084e-07
 214    -9.4936836588074e-07
 215    -1.16266091981e-06
 216    8.7064627179604e-06
 217    1.8745907503632e-07
 218    -4.5014558641103e-07
 219    3.7512292316287e-07
 220    -1.5383139298186e-06
 221    -1.3887437505603e-06
 222    -8.2176560895618e-06
 223    0.00011647848030352
 224    3.3621509625721e-06
 225    -6.3238276144916e-07
 226    -3.1660330308069e-07
 227    9.5222214766253e-06
 228    1.9557301606719e-05
 229    -0.00011289542392572
 230    3.3463404335128e-06
 231    -3.6293917548314e-06
 232    -2.2205714458055e-06
 233    1.1971287654646e-06
 234    4.8632780395294e-08
 235    4.2060741065377e-06
 236    2.8068599843539e-05
 237    -0.00038881280019273
 238    -1.5478812980835e-06
 239    -5.9744109925273e-06
 240    6.9542441411478e-06
 241    0.00012067557619451
 242    3.5690421427469e-05
 243    9.6056368438208e-05
 244    -1.1949569871402e-05
 245    -6.4787901969979e-07
 246    1.2231845231993e-06
 247    -1.3316399097414e-06
 248    -3.5201505988784e-06
 249    -5.1719554980221e-06
 250    -1.5062801943887e-05
 251    -2.5750049432275e-06
 252    -2.085734402938e-05
 253    0.00051200068920049
 254    -1.2043151057813e-05
 255    1.3273707794114e-05
 256    -1.741935961932e-05
 257    0.00022529285024774
 258    -2.6712837090985e-05
 259    0.00011323722548086
 260    1.1122438317858e-05
 261    3.6858932898808e-07
 262    1.4794591955788e-07
 263    2.4737927791238e-06
 264    -4.1039092938942e-06
 265    -1.3611121939723e-06
 266    -1.2668209873813e-05
 267    1.6363728801485e-05
 268    1.9224422473966e-05
 269    6.7459427099323e-05
 270    -3.2204026622114e-05
 271    -0.0030470089305912
 272    0.00021333760404866
 273    0.00018213986034394
 274    -9.8774140334889e-05
 275    -0.0016570184076003
 276    -0.00071327117411438
 277    0.0034764207099494
 278    -0.00034530275234688
 279    0.00011468258532542
 280    -1.7918669210603e-05