[Molden Format]
made by pyscf v[2.0.1]
[Atoms] (AU)
C   1   6     0.69100024066471     0.64692934207205    -3.48223131169301
H   2   1     2.68052439830868     1.13355088658700    -3.25784032593313
C   3   6    -0.36286361513219     0.85440132524594    -5.97030179418974
H   4   1    -2.35448549047279     0.36322488579172    -6.17995817793143
C   5   6     0.93697958957450     1.61209284601821    -8.05828437677121
H   6   1    -0.09693119212527     2.00604603919817    -9.79517014534402
C   7   6     3.63030097622708     1.92762357571405    -8.11066704391556
H   8   1     4.64038155806228     1.52704759336691    -6.35595956986227
H   9   1     1.55630230933075    -1.92953025305990    12.99630010416247
C   10   6     0.75233899775814    -2.21270439606481    11.10705728102219
H   11   1    -0.43433408177274    -3.90944857546550    11.22216085340412
C   12   6     2.86362581178706    -2.63237380607947     9.17926416456045
H   13   1     4.39038949912609    -1.24955421540245     9.49899813497433
H   14   1     3.74629220191363    -4.48798724300892     9.47414880959024
C   15   6     2.02478325613682    -2.42177285709634     6.44560829588644
C   16   6     3.88048732735477    -3.58795445234514     4.61402886975252
C   17   6    -0.18412382258602    -1.30464291234259     5.76021113872346
C   18   6    -2.10044360464350    -0.26837831858460     7.71610340967100
C   19   6    -3.08956938670431     2.35282328359417     6.88693925039594
C   20   6    -4.37372924086464    -2.09766595989678     7.93610724222001
C   21   6    -0.83850430601230     0.06372213486173    10.33002307638377
H   22   1     0.38411922151109     1.74281358582432    10.27380136542181
H   23   1    -2.30980003007874     0.45460143924521    11.73986301809809
H   24   1     4.58527064644668    -5.38706904487420     5.36778158031719
H   25   1     5.54944938085014    -2.37631462192748     4.35398898413318
H   26   1     3.06633019150423    -3.94118377050688     2.75255466040884
H   27   1    -4.17727778763735     2.26573369139522     5.12914900961283
H   28   1    -1.52662344944051     3.68001877445626     6.59540397144508
H   29   1    -4.32916174397830     3.13643051467482     8.35225460090378
H   30   1    -5.32329548508442    -2.36691813602939     6.11583672749896
H   31   1    -5.77989366602257    -1.33896741843465     9.25748940450990
H   32   1    -3.79310905208926    -3.96389819310853     8.61386170102686
C   33   6    -1.01100794811226    -1.06331657314144     3.11929490449947
C   34   6     0.37686231036534    -0.33275864505552     1.09165013605873
H   35   1    -3.01671213906703    -1.40297922279997     2.77827895090944
C   36   6    -0.64382707979370    -0.11591880174385    -1.42063131251064
H   37   1     2.35569259782137     0.17174499283897     1.33641070251401
H   38   1    -2.63317482980319    -0.60229203511219    -1.66119700387645
C   39   6     5.00345825531076     2.67452304879010   -10.14372233560053
C   40   6     7.74537676211387     2.93885238802377   -10.00575318331397
H   41   1     4.11504514624535     3.10282594680410   -11.94789724846226
O   42   8     9.09456961333047     3.59889471504076   -11.75642359916462
H   43   1     8.57474602054619     2.48152315519597    -8.12342071425648
[GTO]
1 0
 s    6 1.00
             3047.5249  0.0018347001629433
             457.36951    0.01403730124668
             103.94869   0.068842606114048
             29.210155    0.23218442062076
              9.286663    0.46794134155879
              3.163927    0.36231203217765
 s    3 1.00
             7.8682724   -0.11933240861517
             1.8812885   -0.16085421161283
             0.5442493     1.1434564825515
 s    1 1.00
             0.1687144                   1
 p    3 1.00
             7.8682724   0.068999095584993
             1.8812885    0.31642397975315
             0.5442493    0.74430825237435
 p    1 1.00
             0.1687144                   1
 d    1 1.00
                   0.8                   1

2 0
 s    3 1.00
             18.731137    0.03349459952309
             2.8253937    0.23472694665786
             0.6401217    0.81375731841339
 s    1 1.00
             0.1612778                   1

3 0
 s    6 1.00
             3047.5249  0.0018347001629433
             457.36951    0.01403730124668
             103.94869   0.068842606114048
             29.210155    0.23218442062076
              9.286663    0.46794134155879
              3.163927    0.36231203217765
 s    3 1.00
             7.8682724   -0.11933240861517
             1.8812885   -0.16085421161283
             0.5442493     1.1434564825515
 s    1 1.00
             0.1687144                   1
 p    3 1.00
             7.8682724   0.068999095584993
             1.8812885    0.31642397975315
             0.5442493    0.74430825237435
 p    1 1.00
             0.1687144                   1
 d    1 1.00
                   0.8                   1

4 0
 s    3 1.00
             18.731137    0.03349459952309
             2.8253937    0.23472694665786
             0.6401217    0.81375731841339
 s    1 1.00
             0.1612778                   1

5 0
 s    6 1.00
             3047.5249  0.0018347001629433
             457.36951    0.01403730124668
             103.94869   0.068842606114048
             29.210155    0.23218442062076
              9.286663    0.46794134155879
              3.163927    0.36231203217765
 s    3 1.00
             7.8682724   -0.11933240861517
             1.8812885   -0.16085421161283
             0.5442493     1.1434564825515
 s    1 1.00
             0.1687144                   1
 p    3 1.00
             7.8682724   0.068999095584993
             1.8812885    0.31642397975315
             0.5442493    0.74430825237435
 p    1 1.00
             0.1687144                   1
 d    1 1.00
                   0.8                   1

6 0
 s    3 1.00
             18.731137    0.03349459952309
             2.8253937    0.23472694665786
             0.6401217    0.81375731841339
 s    1 1.00
             0.1612778                   1

7 0
 s    6 1.00
             3047.5249  0.0018347001629433
             457.36951    0.01403730124668
             103.94869   0.068842606114048
             29.210155    0.23218442062076
              9.286663    0.46794134155879
              3.163927    0.36231203217765
 s    3 1.00
             7.8682724   -0.11933240861517
             1.8812885   -0.16085421161283
             0.5442493     1.1434564825515
 s    1 1.00
             0.1687144                   1
 p    3 1.00
             7.8682724   0.068999095584993
             1.8812885    0.31642397975315
             0.5442493    0.74430825237435
 p    1 1.00
             0.1687144                   1
 d    1 1.00
                   0.8                   1

8 0
 s    3 1.00
             18.731137    0.03349459952309
             2.8253937    0.23472694665786
             0.6401217    0.81375731841339
 s    1 1.00
             0.1612778                   1

9 0
 s    3 1.00
             18.731137    0.03349459952309
             2.8253937    0.23472694665786
             0.6401217    0.81375731841339
 s    1 1.00
             0.1612778                   1

10 0
 s    6 1.00
             3047.5249  0.0018347001629433
             457.36951    0.01403730124668
             103.94869   0.068842606114048
             29.210155    0.23218442062076
              9.286663    0.46794134155879
              3.163927    0.36231203217765
 s    3 1.00
             7.8682724   -0.11933240861517
             1.8812885   -0.16085421161283
             0.5442493     1.1434564825515
 s    1 1.00
             0.1687144                   1
 p    3 1.00
             7.8682724   0.068999095584993
             1.8812885    0.31642397975315
             0.5442493    0.74430825237435
 p    1 1.00
             0.1687144                   1
 d    1 1.00
                   0.8                   1

11 0
 s    3 1.00
             18.731137    0.03349459952309
             2.8253937    0.23472694665786
             0.6401217    0.81375731841339
 s    1 1.00
             0.1612778                   1

12 0
 s    6 1.00
             3047.5249  0.0018347001629433
             457.36951    0.01403730124668
             103.94869   0.068842606114048
             29.210155    0.23218442062076
              9.286663    0.46794134155879
              3.163927    0.36231203217765
 s    3 1.00
             7.8682724   -0.11933240861517
             1.8812885   -0.16085421161283
             0.5442493     1.1434564825515
 s    1 1.00
             0.1687144                   1
 p    3 1.00
             7.8682724   0.068999095584993
             1.8812885    0.31642397975315
             0.5442493    0.74430825237435
 p    1 1.00
             0.1687144                   1
 d    1 1.00
                   0.8                   1

13 0
 s    3 1.00
             18.731137    0.03349459952309
             2.8253937    0.23472694665786
             0.6401217    0.81375731841339
 s    1 1.00
             0.1612778                   1

14 0
 s    3 1.00
             18.731137    0.03349459952309
             2.8253937    0.23472694665786
             0.6401217    0.81375731841339
 s    1 1.00
             0.1612778                   1

15 0
 s    6 1.00
             3047.5249  0.0018347001629433
             457.36951    0.01403730124668
             103.94869   0.068842606114048
             29.210155    0.23218442062076
              9.286663    0.46794134155879
              3.163927    0.36231203217765
 s    3 1.00
             7.8682724   -0.11933240861517
             1.8812885   -0.16085421161283
             0.5442493     1.1434564825515
 s    1 1.00
             0.1687144                   1
 p    3 1.00
             7.8682724   0.068999095584993
             1.8812885    0.31642397975315
             0.5442493    0.74430825237435
 p    1 1.00
             0.1687144                   1
 d    1 1.00
                   0.8                   1

16 0
 s    6 1.00
             3047.5249  0.0018347001629433
             457.36951    0.01403730124668
             103.94869   0.068842606114048
             29.210155    0.23218442062076
              9.286663    0.46794134155879
              3.163927    0.36231203217765
 s    3 1.00
             7.8682724   -0.11933240861517
             1.8812885   -0.16085421161283
             0.5442493     1.1434564825515
 s    1 1.00
             0.1687144                   1
 p    3 1.00
             7.8682724   0.068999095584993
             1.8812885    0.31642397975315
             0.5442493    0.74430825237435
 p    1 1.00
             0.1687144                   1
 d    1 1.00
                   0.8                   1

17 0
 s    6 1.00
             3047.5249  0.0018347001629433
             457.36951    0.01403730124668
             103.94869   0.068842606114048
             29.210155    0.23218442062076
              9.286663    0.46794134155879
              3.163927    0.36231203217765
 s    3 1.00
             7.8682724   -0.11933240861517
             1.8812885   -0.16085421161283
             0.5442493     1.1434564825515
 s    1 1.00
             0.1687144                   1
 p    3 1.00
             7.8682724   0.068999095584993
             1.8812885    0.31642397975315
             0.5442493    0.74430825237435
 p    1 1.00
             0.1687144                   1
 d    1 1.00
                   0.8                   1

18 0
 s    6 1.00
             3047.5249  0.0018347001629433
             457.36951    0.01403730124668
             103.94869   0.068842606114048
             29.210155    0.23218442062076
              9.286663    0.46794134155879
              3.163927    0.36231203217765
 s    3 1.00
             7.8682724   -0.11933240861517
             1.8812885   -0.16085421161283
             0.5442493     1.1434564825515
 s    1 1.00
             0.1687144                   1
 p    3 1.00
             7.8682724   0.068999095584993
             1.8812885    0.31642397975315
             0.5442493    0.74430825237435
 p    1 1.00
             0.1687144                   1
 d    1 1.00
                   0.8                   1

19 0
 s    6 1.00
             3047.5249  0.0018347001629433
             457.36951    0.01403730124668
             103.94869   0.068842606114048
             29.210155    0.23218442062076
              9.286663    0.46794134155879
              3.163927    0.36231203217765
 s    3 1.00
             7.8682724   -0.11933240861517
             1.8812885   -0.16085421161283
             0.5442493     1.1434564825515
 s    1 1.00
             0.1687144                   1
 p    3 1.00
             7.8682724   0.068999095584993
             1.8812885    0.31642397975315
             0.5442493    0.74430825237435
 p    1 1.00
             0.1687144                   1
 d    1 1.00
                   0.8                   1

20 0
 s    6 1.00
             3047.5249  0.0018347001629433
             457.36951    0.01403730124668
             103.94869   0.068842606114048
             29.210155    0.23218442062076
              9.286663    0.46794134155879
              3.163927    0.36231203217765
 s    3 1.00
             7.8682724   -0.11933240861517
             1.8812885   -0.16085421161283
             0.5442493     1.1434564825515
 s    1 1.00
             0.1687144                   1
 p    3 1.00
             7.8682724   0.068999095584993
             1.8812885    0.31642397975315
             0.5442493    0.74430825237435
 p    1 1.00
             0.1687144                   1
 d    1 1.00
                   0.8                   1

21 0
 s    6 1.00
             3047.5249  0.0018347001629433
             457.36951    0.01403730124668
             103.94869   0.068842606114048
             29.210155    0.23218442062076
              9.286663    0.46794134155879
              3.163927    0.36231203217765
 s    3 1.00
             7.8682724   -0.11933240861517
             1.8812885   -0.16085421161283
             0.5442493     1.1434564825515
 s    1 1.00
             0.1687144                   1
 p    3 1.00
             7.8682724   0.068999095584993
             1.8812885    0.31642397975315
             0.5442493    0.74430825237435
 p    1 1.00
             0.1687144                   1
 d    1 1.00
                   0.8                   1

22 0
 s    3 1.00
             18.731137    0.03349459952309
             2.8253937    0.23472694665786
             0.6401217    0.81375731841339
 s    1 1.00
             0.1612778                   1

23 0
 s    3 1.00
             18.731137    0.03349459952309
             2.8253937    0.23472694665786
             0.6401217    0.81375731841339
 s    1 1.00
             0.1612778                   1

24 0
 s    3 1.00
             18.731137    0.03349459952309
             2.8253937    0.23472694665786
             0.6401217    0.81375731841339
 s    1 1.00
             0.1612778                   1

25 0
 s    3 1.00
             18.731137    0.03349459952309
             2.8253937    0.23472694665786
             0.6401217    0.81375731841339
 s    1 1.00
             0.1612778                   1

26 0
 s    3 1.00
             18.731137    0.03349459952309
             2.8253937    0.23472694665786
             0.6401217    0.81375731841339
 s    1 1.00
             0.1612778                   1

27 0
 s    3 1.00
             18.731137    0.03349459952309
             2.8253937    0.23472694665786
             0.6401217    0.81375731841339
 s    1 1.00
             0.1612778                   1

28 0
 s    3 1.00
             18.731137    0.03349459952309
             2.8253937    0.23472694665786
             0.6401217    0.81375731841339
 s    1 1.00
             0.1612778                   1

29 0
 s    3 1.00
             18.731137    0.03349459952309
             2.8253937    0.23472694665786
             0.6401217    0.81375731841339
 s    1 1.00
             0.1612778                   1

30 0
 s    3 1.00
             18.731137    0.03349459952309
             2.8253937    0.23472694665786
             0.6401217    0.81375731841339
 s    1 1.00
             0.1612778                   1

31 0
 s    3 1.00
             18.731137    0.03349459952309
             2.8253937    0.23472694665786
             0.6401217    0.81375731841339
 s    1 1.00
             0.1612778                   1

32 0
 s    3 1.00
             18.731137    0.03349459952309
             2.8253937    0.23472694665786
             0.6401217    0.81375731841339
 s    1 1.00
             0.1612778                   1

33 0
 s    6 1.00
             3047.5249  0.0018347001629433
             457.36951    0.01403730124668
             103.94869   0.068842606114048
             29.210155    0.23218442062076
              9.286663    0.46794134155879
              3.163927    0.36231203217765
 s    3 1.00
             7.8682724   -0.11933240861517
             1.8812885   -0.16085421161283
             0.5442493     1.1434564825515
 s    1 1.00
             0.1687144                   1
 p    3 1.00
             7.8682724   0.068999095584993
             1.8812885    0.31642397975315
             0.5442493    0.74430825237435
 p    1 1.00
             0.1687144                   1
 d    1 1.00
                   0.8                   1

34 0
 s    6 1.00
             3047.5249  0.0018347001629433
             457.36951    0.01403730124668
             103.94869   0.068842606114048
             29.210155    0.23218442062076
              9.286663    0.46794134155879
              3.163927    0.36231203217765
 s    3 1.00
             7.8682724   -0.11933240861517
             1.8812885   -0.16085421161283
             0.5442493     1.1434564825515
 s    1 1.00
             0.1687144                   1
 p    3 1.00
             7.8682724   0.068999095584993
             1.8812885    0.31642397975315
             0.5442493    0.74430825237435
 p    1 1.00
             0.1687144                   1
 d    1 1.00
                   0.8                   1

35 0
 s    3 1.00
             18.731137    0.03349459952309
             2.8253937    0.23472694665786
             0.6401217    0.81375731841339
 s    1 1.00
             0.1612778                   1

36 0
 s    6 1.00
             3047.5249  0.0018347001629433
             457.36951    0.01403730124668
             103.94869   0.068842606114048
             29.210155    0.23218442062076
              9.286663    0.46794134155879
              3.163927    0.36231203217765
 s    3 1.00
             7.8682724   -0.11933240861517
             1.8812885   -0.16085421161283
             0.5442493     1.1434564825515
 s    1 1.00
             0.1687144                   1
 p    3 1.00
             7.8682724   0.068999095584993
             1.8812885    0.31642397975315
             0.5442493    0.74430825237435
 p    1 1.00
             0.1687144                   1
 d    1 1.00
                   0.8                   1

37 0
 s    3 1.00
             18.731137    0.03349459952309
             2.8253937    0.23472694665786
             0.6401217    0.81375731841339
 s    1 1.00
             0.1612778                   1

38 0
 s    3 1.00
             18.731137    0.03349459952309
             2.8253937    0.23472694665786
             0.6401217    0.81375731841339
 s    1 1.00
             0.1612778                   1

39 0
 s    6 1.00
             3047.5249  0.0018347001629433
             457.36951    0.01403730124668
             103.94869   0.068842606114048
             29.210155    0.23218442062076
              9.286663    0.46794134155879
              3.163927    0.36231203217765
 s    3 1.00
             7.8682724   -0.11933240861517
             1.8812885   -0.16085421161283
             0.5442493     1.1434564825515
 s    1 1.00
             0.1687144                   1
 p    3 1.00
             7.8682724   0.068999095584993
             1.8812885    0.31642397975315
             0.5442493    0.74430825237435
 p    1 1.00
             0.1687144                   1
 d    1 1.00
                   0.8                   1

40 0
 s    6 1.00
             3047.5249  0.0018347001629433
             457.36951    0.01403730124668
             103.94869   0.068842606114048
             29.210155    0.23218442062076
              9.286663    0.46794134155879
              3.163927    0.36231203217765
 s    3 1.00
             7.8682724   -0.11933240861517
             1.8812885   -0.16085421161283
             0.5442493     1.1434564825515
 s    1 1.00
             0.1687144                   1
 p    3 1.00
             7.8682724   0.068999095584993
             1.8812885    0.31642397975315
             0.5442493    0.74430825237435
 p    1 1.00
             0.1687144                   1
 d    1 1.00
                   0.8                   1

41 0
 s    3 1.00
             18.731137    0.03349459952309
             2.8253937    0.23472694665786
             0.6401217    0.81375731841339
 s    1 1.00
             0.1612778                   1

42 0
 s    6 1.00
             5484.6717   0.001831099805527
             825.23495   0.013950098518422
             188.04696    0.06844509273075
               52.9645    0.23271427528445
              16.89757    0.47019295006289
             5.7996353    0.35852086192309
 s    3 1.00
             15.539616   -0.11077750382508
             3.5999336   -0.14802630511126
             1.0137618     1.1307670390447
 s    1 1.00
             0.2700058                   1
 p    3 1.00
             15.539616   0.070874299543311
             3.5999336    0.33975279781076
             1.0137618    0.72715859531445
 p    1 1.00
             0.2700058                   1
 d    1 1.00
                   0.8                   1

43 0
 s    3 1.00
             18.731137    0.03349459952309
             2.8253937    0.23472694665786
             0.6401217    0.81375731841339
 s    1 1.00
             0.1612778                   1

[5d]
[7f]
[9g]

[MO]
 Sym= A
 Ene=               0
 Spin= Alpha
 Occup=    1.00000
   1    -1.5045366771348e-05
   2    -0.0001000736715917
   3    0.0014130875459417
   4    -3.5321721770805e-05
   5    3.2994022066489e-06
   6     2.17747620101e-05
   7    -6.5666058494809e-05
   8    0.00021374687028377
   9    -0.0015832853910381
  10    4.3906867590009e-05
  11    4.8586093184956e-05
  12    2.0410055483727e-06
  13    6.5506196566557e-06
  14    -4.3876948391926e-06
  15    -4.928468283279e-05
  16    5.6709076297616e-05
  17    3.5061280143429e-05
  18    0.00019084398658308
  19    -0.0031111716519673
  20    -1.9943596057516e-05
  21    -1.9805271951457e-05
  22    8.5164181508071e-05
  23    -0.001976530378142
  24    -0.00029794466180425
  25    -0.00059585843795705
  26    -4.9590302301544e-05
  27    2.3806553252656e-05
  28    1.6500317126614e-05
  29    -2.7793965209988e-05
  30    -2.4985418428557e-05
  31    -7.17294308855e-05
  32    -0.00043570121996191
  33    -9.4606535181528e-05
  34    -0.00038031025281155
  35    0.0060289124440364
  36    0.00018351817425604
  37    4.6233755271781e-05
  38    -7.3860085070697e-05
  39     0.002810651125149
  40    -0.00014733830101102
  41    0.0017852955486903
  42    -1.7045723449586e-05
  43    -3.3399708958803e-05
  44    -4.186916798887e-05
  45    0.00015820862956433
  46    4.1290582605627e-05
  47    6.4367031411115e-05
  48    0.00059014816254167
  49    6.0783367814131e-05
  50    -0.0002708649570453
  51    -0.004396202311173
  52    -0.00061260941524653
  53    -8.4418177666796e-05
  54    8.285492453828e-05
  55    0.0046495567142624
  56    0.00049374074952185
  57    -7.1236195867364e-05
  58    0.00020677109426065
  59    -3.9909904548228e-05
  60    -8.2873929717872e-05
  61    -0.00011260671416165
  62    -8.1993201607171e-06
  63    -0.00035399293096897
  64    -0.00036437452410482
  65    -3.8098051662509e-07
  66    1.7652740050882e-06
  67    -1.2108261714792e-07
  68    -1.2520435241355e-06
  69    -7.1942279904666e-07
  70    8.0399789408727e-07
  71    -1.1571677701069e-06
  72    1.4873446080961e-07
  73    2.9065602099483e-06
  74    2.7545040191206e-06
  75    -1.5888849319643e-06
  76    3.6702374391571e-07
  77    2.028318192135e-07
  78    9.9632464726449e-08
  79    1.8331034559814e-07
  80    1.9536486752113e-07
  81    3.3363203669369e-07
  82    1.9149901631792e-06
  83    3.3012514883972e-07
  84    2.7531020843205e-06
  85    -7.9860527443105e-07
  86    -7.656094591962e-08
  87     8.80554374056e-07
  88    2.5710498293946e-07
  89    3.6629723468825e-06
  90    -1.2575852686513e-05
  91    -3.5847617908024e-06
  92    -1.4542793232643e-07
  93    -3.1146423757307e-07
  94    9.3302157020337e-07
  95    -4.8608247087933e-07
  96    6.979334069275e-08
  97    1.6649245984342e-06
  98    2.4509277674557e-06
  99    -1.1431661031624e-06
 100    -3.1528011581623e-06
 101    -7.6937639141428e-07
 102    -3.7233588396364e-06
 103    9.2805330501376e-05
 104    -2.3859776390457e-06
 105    -5.2917140124051e-07
 106    -1.381770509427e-06
 107    -2.6028780505987e-05
 108    3.1303699705183e-05
 109    -3.2963133648551e-05
 110    6.0844490571354e-07
 111    1.6276314805206e-06
 112    -6.9881470789186e-07
 113    -1.8717077897907e-07
 114    -1.4128752782127e-06
 115    2.864396112762e-07
 116    2.6966383980845e-06
 117    -1.2371779096999e-05
 118    4.8275619486448e-08
 119    1.819790115173e-06
 120    -1.4665600310999e-06
 121    8.6134020863167e-06
 122    -1.7879313251321e-05
 123    6.8615355635026e-06
 124    7.7506568917833e-07
 125    -2.7405955434932e-07
 126    -1.2413330544049e-06
 127    -4.5556444273672e-07
 128    9.3554425590132e-08
 129    9.3960995920477e-07
 130    4.3428220432889e-06
 131    -1.2434538991951e-05
 132    5.3403868877373e-06
 133    -7.279903345173e-07
 134    -2.3500485139564e-06
 135    -0.00011561906455038
 136    1.6024845269065e-05
 137    3.9156725351763e-05
 138    -1.6035956776625e-06
 139    1.6299807207619e-07
 140    3.0670167184008e-06
 141    -1.6018336002336e-07
 142    2.8229532354415e-06
 143    4.5279897450053e-07
 144    1.8464897863619e-06
 145    -6.6646264381698e-05
 146    6.6537129041626e-07
 147    -2.6123163916968e-07
 148    5.819286396885e-06
 149    -3.2409306580086e-05
 150    4.1384364465019e-05
 151    -2.4002080403973e-05
 152    -5.7474454326081e-07
 153    4.4918292561719e-08
 154    -2.2234002002981e-06
 155    -5.9686450265211e-07
 156    -3.5518536317064e-07
 157    8.2104869224582e-07
 158    7.1031834187461e-06
 159    -3.7916933595074e-05
 160    9.8455365261987e-07
 161    5.4518482000322e-07
 162    -1.1584909910233e-06
 163    -9.4755984725027e-06
 164      1.5172847218e-05
 165    4.9314906544516e-06
 166    9.1454799455191e-07
 167    -1.164994914685e-07
 168    1.4600366654923e-08
 169    9.0876703845918e-07
 170    3.978817334235e-07
 171    -1.7393117364228e-08
 172    -7.5071455177792e-07
 173    4.4298186184561e-07
 174    -1.2984786517375e-06
 175    -1.5677438285533e-07
 176    2.3781698635855e-06
 177    1.8668439819623e-05
 178    5.552838213094e-07
 179    4.1655081309886e-06
 180    -2.3473483920068e-07
 181    1.7774156791802e-06
 182    -1.7107400908771e-07
 183    1.1620098875733e-06
 184    1.3464539007421e-06
 185    -7.5718785369061e-07
 186    -5.8590780648875e-06
 187    4.0406808145802e-05
 188    -1.4019597945684e-06
 189    -3.624139839351e-07
 190    -1.2280347431356e-06
 191    -3.790871292709e-06
 192    -9.7332188535753e-06
 193    -1.8177222102295e-05
 194    8.7794109704038e-07
 195    1.106658472541e-06
 196    1.445113104452e-06
 197    -6.7129216324793e-07
 198    6.1710306846174e-07
 199    -2.0366331692877e-06
 200    1.3194640565827e-06
 201    -6.6570440563067e-07
 202    -2.8314572959429e-07
 203    -1.4935130949348e-06
 204    -7.8378216719491e-06
 205    3.1007266274571e-06
 206    2.4394141293479e-07
 207    2.9430377314639e-06
 208    1.5402867429057e-07
 209    2.9067260923579e-06
 210    3.0162571613003e-06
 211    1.9681696889494e-06
 212    3.9514672553242e-06
 213    8.1005848479021e-07
 214    -5.0075398413516e-06
 215    -4.2908994257349e-06
 216    2.2769571189693e-05
 217    1.4283366084449e-06
 218    3.7353537316124e-06
 219    2.5520032247796e-07
 220    -4.4777645133745e-06
 221    -5.6289502336343e-06
 222    -3.5693430441544e-05
 223    0.00046252675768629
 224    5.1524816784878e-06
 225    4.4883088697195e-06
 226    -5.8827165157927e-06
 227    0.00012422471851799
 228    6.6173503502996e-05
 229    -0.00025732530714434
 230    9.0123225398264e-06
 231    -9.2293345508659e-06
 232    -8.5958009106946e-06
 233    4.1489715407788e-06
 234    4.061385239358e-06
 235    5.9091761566406e-06
 236    2.6986230963459e-05
 237    -0.00078109105463874
 238    -9.745514306564e-06
 239    -9.2295396541807e-06
 240    2.7438927764801e-05
 241    0.00029725724233319
 242    8.4791806329816e-05
 243    -5.5404863250563e-05
 244    -1.4997920298074e-05
 245    8.8073990666048e-06
 246    8.6965222015699e-06
 247    1.0225888590119e-07
 248    -7.0478559286326e-07
 249    -5.2940608011083e-06
 250    -1.8997488417969e-05
 251    -5.0339174037826e-06
 252    -2.8538477586994e-05
 253    0.00078150909339701
 254    -1.1361434610153e-05
 255    -1.1190487222537e-06
 256    -3.2069737833148e-05
 257    0.00047053319671758
 258    0.00010837129311934
 259    0.00024633671601299
 260    7.2415738123834e-06
 261    -2.0874736134091e-06
 262    -7.4412392074681e-06
 263    4.8244381413701e-06
 264    8.6976679214368e-06
 265    -2.1233050823543e-05
 266    -9.5437407167487e-06
 267    2.8568274452694e-05
 268    0.00014785912216826
 269    7.2068374868272e-05
 270    -1.9090025395419e-06
 271    -0.0035292348310047
 272    -5.4861283714103e-06
 273    7.7153278787338e-05
 274    -0.00028535125867199
 275    -0.0026816391723006
 276    -0.001019242026434
 277    0.0025191946838583
 278    0.00014652745130135
 279    0.00032473598144598
 280    9.2866494845662e-06