[Molden Format]
made by pyscf v[2.0.1]
[Atoms] (AU)
C   1   6     0.69100024066471     0.64692934207205    -3.48223131169301
H   2   1     2.68052439830868     1.13355088658700    -3.25784032593313
C   3   6    -0.36286361513219     0.85440132524594    -5.97030179418974
H   4   1    -2.35448549047279     0.36322488579172    -6.17995817793143
C   5   6     0.93697958957450     1.61209284601821    -8.05828437677121
H   6   1     0.73648971111668     3.55370010139060    -8.71472010856714
C   7   6     2.58127687438623    -0.01872844577485    -9.47001807350619
H   8   1     2.76404479428938    -1.95840164828389    -8.78885291415754
H   9   1     1.55630230933075    -1.92953025305990    12.99630010416247
C   10   6     0.75233899775814    -2.21270439606481    11.10705728102219
H   11   1    -0.43433408177274    -3.90944857546550    11.22216085340412
C   12   6     2.86362581178706    -2.63237380607947     9.17926416456045
H   13   1     4.39038949912609    -1.24955421540245     9.49899813497433
H   14   1     3.74629220191363    -4.48798724300892     9.47414880959024
C   15   6     2.02478325613682    -2.42177285709634     6.44560829588644
C   16   6     3.88048732735477    -3.58795445234514     4.61402886975252
C   17   6    -0.18412382258602    -1.30464291234259     5.76021113872346
C   18   6    -2.10044360464350    -0.26837831858460     7.71610340967100
C   19   6    -3.08956938670431     2.35282328359417     6.88693925039594
C   20   6    -4.37372924086464    -2.09766595989678     7.93610724222001
C   21   6    -0.83850430601230     0.06372213486173    10.33002307638377
H   22   1     0.38411922151109     1.74281358582432    10.27380136542181
H   23   1    -2.30980003007874     0.45460143924521    11.73986301809809
H   24   1     4.58527064644668    -5.38706904487420     5.36778158031719
H   25   1     5.54944938085014    -2.37631462192748     4.35398898413318
H   26   1     3.06633019150423    -3.94118377050688     2.75255466040884
H   27   1    -4.17727778763735     2.26573369139522     5.12914900961283
H   28   1    -1.52662344944051     3.68001877445626     6.59540397144508
H   29   1    -4.32916174397830     3.13643051467482     8.35225460090378
H   30   1    -5.32329548508442    -2.36691813602939     6.11583672749896
H   31   1    -5.77989366602257    -1.33896741843465     9.25748940450990
H   32   1    -3.79310905208926    -3.96389819310853     8.61386170102686
C   33   6    -1.01100794811226    -1.06331657314144     3.11929490449947
C   34   6     0.37686231036534    -0.33275864505552     1.09165013605873
H   35   1    -3.01671213906703    -1.40297922279997     2.77827895090944
C   36   6    -0.64382707979370    -0.11591880174385    -1.42063131251064
H   37   1     2.35569259782137     0.17174499283897     1.33641070251401
H   38   1    -2.63317482980319    -0.60229203511219    -1.66119700387645
C   39   6     3.90960344721415     0.65123442372143   -11.55890098643101
C   40   6     5.53597339482346    -1.15257329589011   -12.86589030877460
H   41   1     3.81237322709460     2.55237110239842   -12.33607146621226
O   42   8     6.77935136485374    -0.67974925370394   -14.75037240649433
H   43   1     5.57867975922019    -3.07543379045103   -12.00509846248917
[GTO]
1 0
 s    6 1.00
             3047.5249  0.0018347001629433
             457.36951    0.01403730124668
             103.94869   0.068842606114048
             29.210155    0.23218442062076
              9.286663    0.46794134155879
              3.163927    0.36231203217765
 s    3 1.00
             7.8682724   -0.11933240861517
             1.8812885   -0.16085421161283
             0.5442493     1.1434564825515
 s    1 1.00
             0.1687144                   1
 p    3 1.00
             7.8682724   0.068999095584993
             1.8812885    0.31642397975315
             0.5442493    0.74430825237435
 p    1 1.00
             0.1687144                   1
 d    1 1.00
                   0.8                   1

2 0
 s    3 1.00
             18.731137    0.03349459952309
             2.8253937    0.23472694665786
             0.6401217    0.81375731841339
 s    1 1.00
             0.1612778                   1

3 0
 s    6 1.00
             3047.5249  0.0018347001629433
             457.36951    0.01403730124668
             103.94869   0.068842606114048
             29.210155    0.23218442062076
              9.286663    0.46794134155879
              3.163927    0.36231203217765
 s    3 1.00
             7.8682724   -0.11933240861517
             1.8812885   -0.16085421161283
             0.5442493     1.1434564825515
 s    1 1.00
             0.1687144                   1
 p    3 1.00
             7.8682724   0.068999095584993
             1.8812885    0.31642397975315
             0.5442493    0.74430825237435
 p    1 1.00
             0.1687144                   1
 d    1 1.00
                   0.8                   1

4 0
 s    3 1.00
             18.731137    0.03349459952309
             2.8253937    0.23472694665786
             0.6401217    0.81375731841339
 s    1 1.00
             0.1612778                   1

5 0
 s    6 1.00
             3047.5249  0.0018347001629433
             457.36951    0.01403730124668
             103.94869   0.068842606114048
             29.210155    0.23218442062076
              9.286663    0.46794134155879
              3.163927    0.36231203217765
 s    3 1.00
             7.8682724   -0.11933240861517
             1.8812885   -0.16085421161283
             0.5442493     1.1434564825515
 s    1 1.00
             0.1687144                   1
 p    3 1.00
             7.8682724   0.068999095584993
             1.8812885    0.31642397975315
             0.5442493    0.74430825237435
 p    1 1.00
             0.1687144                   1
 d    1 1.00
                   0.8                   1

6 0
 s    3 1.00
             18.731137    0.03349459952309
             2.8253937    0.23472694665786
             0.6401217    0.81375731841339
 s    1 1.00
             0.1612778                   1

7 0
 s    6 1.00
             3047.5249  0.0018347001629433
             457.36951    0.01403730124668
             103.94869   0.068842606114048
             29.210155    0.23218442062076
              9.286663    0.46794134155879
              3.163927    0.36231203217765
 s    3 1.00
             7.8682724   -0.11933240861517
             1.8812885   -0.16085421161283
             0.5442493     1.1434564825515
 s    1 1.00
             0.1687144                   1
 p    3 1.00
             7.8682724   0.068999095584993
             1.8812885    0.31642397975315
             0.5442493    0.74430825237435
 p    1 1.00
             0.1687144                   1
 d    1 1.00
                   0.8                   1

8 0
 s    3 1.00
             18.731137    0.03349459952309
             2.8253937    0.23472694665786
             0.6401217    0.81375731841339
 s    1 1.00
             0.1612778                   1

9 0
 s    3 1.00
             18.731137    0.03349459952309
             2.8253937    0.23472694665786
             0.6401217    0.81375731841339
 s    1 1.00
             0.1612778                   1

10 0
 s    6 1.00
             3047.5249  0.0018347001629433
             457.36951    0.01403730124668
             103.94869   0.068842606114048
             29.210155    0.23218442062076
              9.286663    0.46794134155879
              3.163927    0.36231203217765
 s    3 1.00
             7.8682724   -0.11933240861517
             1.8812885   -0.16085421161283
             0.5442493     1.1434564825515
 s    1 1.00
             0.1687144                   1
 p    3 1.00
             7.8682724   0.068999095584993
             1.8812885    0.31642397975315
             0.5442493    0.74430825237435
 p    1 1.00
             0.1687144                   1
 d    1 1.00
                   0.8                   1

11 0
 s    3 1.00
             18.731137    0.03349459952309
             2.8253937    0.23472694665786
             0.6401217    0.81375731841339
 s    1 1.00
             0.1612778                   1

12 0
 s    6 1.00
             3047.5249  0.0018347001629433
             457.36951    0.01403730124668
             103.94869   0.068842606114048
             29.210155    0.23218442062076
              9.286663    0.46794134155879
              3.163927    0.36231203217765
 s    3 1.00
             7.8682724   -0.11933240861517
             1.8812885   -0.16085421161283
             0.5442493     1.1434564825515
 s    1 1.00
             0.1687144                   1
 p    3 1.00
             7.8682724   0.068999095584993
             1.8812885    0.31642397975315
             0.5442493    0.74430825237435
 p    1 1.00
             0.1687144                   1
 d    1 1.00
                   0.8                   1

13 0
 s    3 1.00
             18.731137    0.03349459952309
             2.8253937    0.23472694665786
             0.6401217    0.81375731841339
 s    1 1.00
             0.1612778                   1

14 0
 s    3 1.00
             18.731137    0.03349459952309
             2.8253937    0.23472694665786
             0.6401217    0.81375731841339
 s    1 1.00
             0.1612778                   1

15 0
 s    6 1.00
             3047.5249  0.0018347001629433
             457.36951    0.01403730124668
             103.94869   0.068842606114048
             29.210155    0.23218442062076
              9.286663    0.46794134155879
              3.163927    0.36231203217765
 s    3 1.00
             7.8682724   -0.11933240861517
             1.8812885   -0.16085421161283
             0.5442493     1.1434564825515
 s    1 1.00
             0.1687144                   1
 p    3 1.00
             7.8682724   0.068999095584993
             1.8812885    0.31642397975315
             0.5442493    0.74430825237435
 p    1 1.00
             0.1687144                   1
 d    1 1.00
                   0.8                   1

16 0
 s    6 1.00
             3047.5249  0.0018347001629433
             457.36951    0.01403730124668
             103.94869   0.068842606114048
             29.210155    0.23218442062076
              9.286663    0.46794134155879
              3.163927    0.36231203217765
 s    3 1.00
             7.8682724   -0.11933240861517
             1.8812885   -0.16085421161283
             0.5442493     1.1434564825515
 s    1 1.00
             0.1687144                   1
 p    3 1.00
             7.8682724   0.068999095584993
             1.8812885    0.31642397975315
             0.5442493    0.74430825237435
 p    1 1.00
             0.1687144                   1
 d    1 1.00
                   0.8                   1

17 0
 s    6 1.00
             3047.5249  0.0018347001629433
             457.36951    0.01403730124668
             103.94869   0.068842606114048
             29.210155    0.23218442062076
              9.286663    0.46794134155879
              3.163927    0.36231203217765
 s    3 1.00
             7.8682724   -0.11933240861517
             1.8812885   -0.16085421161283
             0.5442493     1.1434564825515
 s    1 1.00
             0.1687144                   1
 p    3 1.00
             7.8682724   0.068999095584993
             1.8812885    0.31642397975315
             0.5442493    0.74430825237435
 p    1 1.00
             0.1687144                   1
 d    1 1.00
                   0.8                   1

18 0
 s    6 1.00
             3047.5249  0.0018347001629433
             457.36951    0.01403730124668
             103.94869   0.068842606114048
             29.210155    0.23218442062076
              9.286663    0.46794134155879
              3.163927    0.36231203217765
 s    3 1.00
             7.8682724   -0.11933240861517
             1.8812885   -0.16085421161283
             0.5442493     1.1434564825515
 s    1 1.00
             0.1687144                   1
 p    3 1.00
             7.8682724   0.068999095584993
             1.8812885    0.31642397975315
             0.5442493    0.74430825237435
 p    1 1.00
             0.1687144                   1
 d    1 1.00
                   0.8                   1

19 0
 s    6 1.00
             3047.5249  0.0018347001629433
             457.36951    0.01403730124668
             103.94869   0.068842606114048
             29.210155    0.23218442062076
              9.286663    0.46794134155879
              3.163927    0.36231203217765
 s    3 1.00
             7.8682724   -0.11933240861517
             1.8812885   -0.16085421161283
             0.5442493     1.1434564825515
 s    1 1.00
             0.1687144                   1
 p    3 1.00
             7.8682724   0.068999095584993
             1.8812885    0.31642397975315
             0.5442493    0.74430825237435
 p    1 1.00
             0.1687144                   1
 d    1 1.00
                   0.8                   1

20 0
 s    6 1.00
             3047.5249  0.0018347001629433
             457.36951    0.01403730124668
             103.94869   0.068842606114048
             29.210155    0.23218442062076
              9.286663    0.46794134155879
              3.163927    0.36231203217765
 s    3 1.00
             7.8682724   -0.11933240861517
             1.8812885   -0.16085421161283
             0.5442493     1.1434564825515
 s    1 1.00
             0.1687144                   1
 p    3 1.00
             7.8682724   0.068999095584993
             1.8812885    0.31642397975315
             0.5442493    0.74430825237435
 p    1 1.00
             0.1687144                   1
 d    1 1.00
                   0.8                   1

21 0
 s    6 1.00
             3047.5249  0.0018347001629433
             457.36951    0.01403730124668
             103.94869   0.068842606114048
             29.210155    0.23218442062076
              9.286663    0.46794134155879
              3.163927    0.36231203217765
 s    3 1.00
             7.8682724   -0.11933240861517
             1.8812885   -0.16085421161283
             0.5442493     1.1434564825515
 s    1 1.00
             0.1687144                   1
 p    3 1.00
             7.8682724   0.068999095584993
             1.8812885    0.31642397975315
             0.5442493    0.74430825237435
 p    1 1.00
             0.1687144                   1
 d    1 1.00
                   0.8                   1

22 0
 s    3 1.00
             18.731137    0.03349459952309
             2.8253937    0.23472694665786
             0.6401217    0.81375731841339
 s    1 1.00
             0.1612778                   1

23 0
 s    3 1.00
             18.731137    0.03349459952309
             2.8253937    0.23472694665786
             0.6401217    0.81375731841339
 s    1 1.00
             0.1612778                   1

24 0
 s    3 1.00
             18.731137    0.03349459952309
             2.8253937    0.23472694665786
             0.6401217    0.81375731841339
 s    1 1.00
             0.1612778                   1

25 0
 s    3 1.00
             18.731137    0.03349459952309
             2.8253937    0.23472694665786
             0.6401217    0.81375731841339
 s    1 1.00
             0.1612778                   1

26 0
 s    3 1.00
             18.731137    0.03349459952309
             2.8253937    0.23472694665786
             0.6401217    0.81375731841339
 s    1 1.00
             0.1612778                   1

27 0
 s    3 1.00
             18.731137    0.03349459952309
             2.8253937    0.23472694665786
             0.6401217    0.81375731841339
 s    1 1.00
             0.1612778                   1

28 0
 s    3 1.00
             18.731137    0.03349459952309
             2.8253937    0.23472694665786
             0.6401217    0.81375731841339
 s    1 1.00
             0.1612778                   1

29 0
 s    3 1.00
             18.731137    0.03349459952309
             2.8253937    0.23472694665786
             0.6401217    0.81375731841339
 s    1 1.00
             0.1612778                   1

30 0
 s    3 1.00
             18.731137    0.03349459952309
             2.8253937    0.23472694665786
             0.6401217    0.81375731841339
 s    1 1.00
             0.1612778                   1

31 0
 s    3 1.00
             18.731137    0.03349459952309
             2.8253937    0.23472694665786
             0.6401217    0.81375731841339
 s    1 1.00
             0.1612778                   1

32 0
 s    3 1.00
             18.731137    0.03349459952309
             2.8253937    0.23472694665786
             0.6401217    0.81375731841339
 s    1 1.00
             0.1612778                   1

33 0
 s    6 1.00
             3047.5249  0.0018347001629433
             457.36951    0.01403730124668
             103.94869   0.068842606114048
             29.210155    0.23218442062076
              9.286663    0.46794134155879
              3.163927    0.36231203217765
 s    3 1.00
             7.8682724   -0.11933240861517
             1.8812885   -0.16085421161283
             0.5442493     1.1434564825515
 s    1 1.00
             0.1687144                   1
 p    3 1.00
             7.8682724   0.068999095584993
             1.8812885    0.31642397975315
             0.5442493    0.74430825237435
 p    1 1.00
             0.1687144                   1
 d    1 1.00
                   0.8                   1

34 0
 s    6 1.00
             3047.5249  0.0018347001629433
             457.36951    0.01403730124668
             103.94869   0.068842606114048
             29.210155    0.23218442062076
              9.286663    0.46794134155879
              3.163927    0.36231203217765
 s    3 1.00
             7.8682724   -0.11933240861517
             1.8812885   -0.16085421161283
             0.5442493     1.1434564825515
 s    1 1.00
             0.1687144                   1
 p    3 1.00
             7.8682724   0.068999095584993
             1.8812885    0.31642397975315
             0.5442493    0.74430825237435
 p    1 1.00
             0.1687144                   1
 d    1 1.00
                   0.8                   1

35 0
 s    3 1.00
             18.731137    0.03349459952309
             2.8253937    0.23472694665786
             0.6401217    0.81375731841339
 s    1 1.00
             0.1612778                   1

36 0
 s    6 1.00
             3047.5249  0.0018347001629433
             457.36951    0.01403730124668
             103.94869   0.068842606114048
             29.210155    0.23218442062076
              9.286663    0.46794134155879
              3.163927    0.36231203217765
 s    3 1.00
             7.8682724   -0.11933240861517
             1.8812885   -0.16085421161283
             0.5442493     1.1434564825515
 s    1 1.00
             0.1687144                   1
 p    3 1.00
             7.8682724   0.068999095584993
             1.8812885    0.31642397975315
             0.5442493    0.74430825237435
 p    1 1.00
             0.1687144                   1
 d    1 1.00
                   0.8                   1

37 0
 s    3 1.00
             18.731137    0.03349459952309
             2.8253937    0.23472694665786
             0.6401217    0.81375731841339
 s    1 1.00
             0.1612778                   1

38 0
 s    3 1.00
             18.731137    0.03349459952309
             2.8253937    0.23472694665786
             0.6401217    0.81375731841339
 s    1 1.00
             0.1612778                   1

39 0
 s    6 1.00
             3047.5249  0.0018347001629433
             457.36951    0.01403730124668
             103.94869   0.068842606114048
             29.210155    0.23218442062076
              9.286663    0.46794134155879
              3.163927    0.36231203217765
 s    3 1.00
             7.8682724   -0.11933240861517
             1.8812885   -0.16085421161283
             0.5442493     1.1434564825515
 s    1 1.00
             0.1687144                   1
 p    3 1.00
             7.8682724   0.068999095584993
             1.8812885    0.31642397975315
             0.5442493    0.74430825237435
 p    1 1.00
             0.1687144                   1
 d    1 1.00
                   0.8                   1

40 0
 s    6 1.00
             3047.5249  0.0018347001629433
             457.36951    0.01403730124668
             103.94869   0.068842606114048
             29.210155    0.23218442062076
              9.286663    0.46794134155879
              3.163927    0.36231203217765
 s    3 1.00
             7.8682724   -0.11933240861517
             1.8812885   -0.16085421161283
             0.5442493     1.1434564825515
 s    1 1.00
             0.1687144                   1
 p    3 1.00
             7.8682724   0.068999095584993
             1.8812885    0.31642397975315
             0.5442493    0.74430825237435
 p    1 1.00
             0.1687144                   1
 d    1 1.00
                   0.8                   1

41 0
 s    3 1.00
             18.731137    0.03349459952309
             2.8253937    0.23472694665786
             0.6401217    0.81375731841339
 s    1 1.00
             0.1612778                   1

42 0
 s    6 1.00
             5484.6717   0.001831099805527
             825.23495   0.013950098518422
             188.04696    0.06844509273075
               52.9645    0.23271427528445
              16.89757    0.47019295006289
             5.7996353    0.35852086192309
 s    3 1.00
             15.539616   -0.11077750382508
             3.5999336   -0.14802630511126
             1.0137618     1.1307670390447
 s    1 1.00
             0.2700058                   1
 p    3 1.00
             15.539616   0.070874299543311
             3.5999336    0.33975279781076
             1.0137618    0.72715859531445
 p    1 1.00
             0.2700058                   1
 d    1 1.00
                   0.8                   1

43 0
 s    3 1.00
             18.731137    0.03349459952309
             2.8253937    0.23472694665786
             0.6401217    0.81375731841339
 s    1 1.00
             0.1612778                   1

[5d]
[7f]
[9g]

[MO]
 Sym= A
 Ene=               0
 Spin= Alpha
 Occup=    1.00000
   1    -1.8622024778743e-06
   2    -6.8646160706156e-06
   3    -9.7181748889269e-05
   4    4.7611495249627e-07
   5    -2.0612859380606e-05
   6    7.5441412776579e-06
   7    6.1110841306348e-05
   8    0.00013624735568563
   9    -0.00032355068620345
  10    -7.862263520602e-07
  11    8.1722167608692e-06
  12    -4.4572834166936e-08
  13    1.2921764210847e-05
  14    -7.5442607048076e-06
  15    -1.2693882082493e-05
  16    2.0922601438106e-06
  17    3.8040175568273e-06
  18    0.00015255582343682
  19    0.0004975494280004
  20    6.1811971883849e-05
  21    2.694466936219e-06
  22    -7.4870921350449e-05
  23    0.00024822082238475
  24    -0.00012332975454746
  25    -0.00051458736847403
  26    2.1394643044806e-05
  27    -2.202346406614e-05
  28    1.4419012633095e-05
  29    3.702248461346e-05
  30    7.8107887847817e-06
  31    -1.7265039551352e-05
  32    3.0831881229026e-05
  33    7.6535008801619e-05
  34    0.00028290182878554
  35    -0.0043509098748269
  36    -0.00016566259874063
  37    6.7540187540194e-05
  38    0.00017029218927087
  39    -0.00087709160481333
  40    0.0018355556461556
  41    0.00027420743202633
  42    -3.1843996267766e-06
  43    0.0001090709001324
  44    -4.3425638910935e-05
  45    5.4341335952484e-06
  46    7.6915581816281e-05
  47    -1.2028014953446e-05
  48    -0.00025526574295834
  49    -5.3842075969609e-05
  50    0.00030774104616927
  51    0.0036177857173041
  52    0.00039284610039602
  53    -0.00031588281737581
  54    -0.00035370727448021
  55    -0.0021679642998997
  56    0.0023556291212525
  57     0.001774193419495
  58    -5.3391401839196e-05
  59    1.7501462146644e-05
  60    0.00017266232847334
  61    4.1173977757968e-05
  62    -0.00011003483642426
  63    0.00039459741142824
  64    0.00013764465303014
  65    -1.9728718120827e-07
  66    -5.0591854572913e-07
  67    -6.0971661342397e-08
  68    -4.4706671754082e-07
  69    2.6303997217473e-06
  70    2.6686499694439e-07
  71    -3.5350082497681e-07
  72    1.1043650267925e-07
  73    3.2597113913307e-07
  74     1.20842808681e-06
  75    1.5132953149098e-07
  76    -6.6677412457945e-08
  77    -1.3239570643205e-07
  78    3.610131462869e-08
  79    4.7899594371148e-08
  80    -1.1826007237907e-07
  81    9.2482594342742e-08
  82    -4.4466905184073e-08
  83    -4.3073006272294e-08
  84    -3.1697374154868e-07
  85    -1.3597028586668e-05
  86    6.1935522118683e-07
  87    -5.6381017391131e-08
  88    7.3787357106439e-07
  89    3.0275215758381e-06
  90    -3.8880024371416e-06
  91    3.4175122116746e-06
  92    1.9928445582051e-07
  93    -3.0438858531784e-07
  94    2.7557877248274e-07
  95    6.2362774754742e-08
  96    -2.112524412241e-07
  97    3.2361644493041e-07
  98    -1.2925615733328e-07
  99    2.3188227850038e-07
 100    -4.6906219643148e-07
 101    1.128612637403e-07
 102    -6.7986483644841e-07
 103    6.0452790707311e-06
 104    1.3378535650443e-06
 105    2.3034287018448e-07
 106    -6.0753036588442e-07
 107    -1.7191580257756e-05
 108    1.852216811237e-05
 109    3.4361826175705e-05
 110    -6.0726543938726e-07
 111    -6.1241305496041e-07
 112    2.7460620829657e-07
 113    2.3366045822659e-07
 114    -4.5353733560563e-07
 115    -4.9380010009636e-07
 116    -4.3874514714777e-06
 117    3.6807454179325e-05
 118    -7.0772524016926e-07
 119    8.8245022899534e-07
 120    7.7708215899169e-07
 121    -9.5653470883248e-06
 122    2.7099883289124e-06
 123    3.713263095353e-06
 124    -1.2532261069075e-07
 125    -2.4912308655578e-07
 126    -8.8451701624367e-10
 127    1.550695542062e-07
 128    -4.5126153084902e-07
 129    -9.6093181020098e-07
 130    -8.8299899387536e-06
 131    5.6893107823011e-05
 132    -4.4118281261037e-07
 133    -7.080055198575e-07
 134    3.5230810934786e-06
 135    -1.9094366870824e-05
 136    -4.084854108655e-06
 137    -8.7630499431091e-05
 138    2.6418912621346e-06
 139    1.6624942834505e-06
 140    2.9683694232814e-07
 141    4.9978795356306e-07
 142    1.8434486145809e-08
 143    -6.499951706157e-07
 144    -4.4926761549754e-06
 145    2.7683462448631e-05
 146    4.6908318362603e-07
 147    3.3733045954743e-07
 148    -1.8275514575841e-07
 149    1.5538112507208e-05
 150    -5.850435292639e-06
 151    -4.3659956199113e-06
 152    -9.6009616676243e-07
 153    -4.2377561596828e-07
 154    -6.2064353564746e-08
 155    7.2384369748034e-07
 156    -8.7580535434821e-07
 157    -1.2288338849469e-09
 158    1.0365294987444e-06
 159    3.9733728323376e-07
 160    6.5585624093449e-07
 161    -2.1133466357634e-07
 162    -3.5943488616684e-07
 163    -7.0420978321996e-06
 164    6.7156788423869e-07
 165    7.6175025553255e-07
 166    4.834602076974e-07
 167    -2.2881390758515e-07
 168    1.6039175243981e-08
 169    -1.2535024391737e-07
 170    3.4301123259776e-07
 171    5.7470676817645e-08
 172    -5.6389933807966e-07
 173    -7.085881686188e-07
 174    -7.3892400241155e-07
 175    -2.8324267705278e-07
 176    7.3386830693335e-07
 177    -6.6029924237705e-07
 178    1.7968348990016e-06
 179    -1.625193226372e-06
 180    1.2082618557726e-07
 181    1.3722730066216e-07
 182    8.0902592711039e-08
 183    -3.9495212555658e-07
 184    1.4931450737794e-07
 185    -2.4356368409573e-07
 186    -2.8913040324322e-06
 187    2.1800569764447e-07
 188    -9.3283676243319e-08
 189    1.701815560434e-07
 190    1.3936208300804e-06
 191    2.422194399691e-06
 192    5.767228854906e-07
 193    -4.3406415193953e-06
 194    2.3417985680254e-07
 195    -9.0618583522711e-08
 196    2.1342650386133e-07
 197    1.3393910357039e-07
 198    -1.2700778050292e-07
 199    -6.792805325366e-07
 200    -1.1824501123887e-06
 201    1.657754779928e-07
 202    3.635808996824e-06
 203    -1.4036379984346e-06
 204    -8.0134386498165e-07
 205    -6.176794398894e-07
 206    -2.8695431513302e-06
 207    7.9213558731497e-07
 208    -8.9053518309028e-06
 209    1.2265136936467e-06
 210    -4.6702969188223e-06
 211    5.807147349402e-07
 212    2.7422042356653e-06
 213    -4.3294922237616e-07
 214    -2.6165414598901e-06
 215    -4.3229803948615e-07
 216    4.8091662738655e-08
 217    3.2055123263189e-07
 218    9.7295116119329e-07
 219    2.6735931377449e-07
 220    1.0495584121249e-06
 221    -5.9289925161187e-07
 222    -6.7169375354842e-06
 223    -2.5784144555904e-05
 224    1.4778707995555e-06
 225    -4.4197992550434e-06
 226    3.3231639749293e-06
 227    3.5909578539424e-06
 228    2.3310476477477e-05
 229    -9.4287769198266e-05
 230    -1.3924754137325e-06
 231    -4.0474120840434e-06
 232    -1.7419018695878e-06
 233    1.7078229312349e-06
 234    2.6309483928668e-06
 235    -7.8717431543313e-07
 236    -1.0228370968947e-05
 237    2.9674406453072e-05
 238    -1.4640088315251e-06
 239    6.5687980643604e-06
 240    5.0074727417904e-06
 241    -2.8895685468508e-05
 242    -4.4977452745682e-06
 243    -7.34318726136e-05
 244    9.1977674158243e-07
 245    6.3411358749462e-06
 246    7.1108949494626e-07
 247    2.6022116799037e-06
 248    6.6914822794537e-07
 249    -4.8360043121708e-06
 250    1.0058862127871e-05
 251    -4.4038347973664e-06
 252    -3.2483573721801e-05
 253    0.00027907628021714
 254    5.7559691649379e-07
 255    -2.8056017677833e-06
 256    7.7690675957792e-06
 257    0.00011016573897737
 258    8.5954233098009e-05
 259    -0.00025442635177885
 260    3.3798340876754e-06
 261    -1.2731908335464e-05
 262    -3.7408467712115e-06
 263    8.7029570038812e-06
 264    3.4195402788052e-06
 265    -3.1735658440028e-06
 266    2.7425703147348e-05
 267    -8.8944937438131e-06
 268    3.0461007924037e-05
 269    -6.8411469254107e-05
 270    2.4963505457477e-05
 271    0.0030990315814882
 272    -2.9684485279463e-05
 273    -0.00022395138320904
 274    0.00019782706986152
 275    0.0021576793641815
 276    0.00060462342824871
 277    -0.0031234691446512
 278    0.00016173347666349
 279    -0.00024063755658934
 280    0.00016111592558221