[Molden Format]
made by pyscf v[2.0.1]
[Atoms] (AU)
C   1   6     0.69100024066471     0.64692934207205    -3.48223131169301
H   2   1     2.68052439830868     1.13355088658700    -3.25784032593313
C   3   6    -0.36286361513219     0.85440132524594    -5.97030179418974
H   4   1    -2.35448549047279     0.36322488579172    -6.17995817793143
C   5   6     0.93697958957450     1.61209284601821    -8.05828437677121
H   6   1     1.52220939200985     3.58023657898303    -8.21595213017833
C   7   6     1.59282573286669    -0.05175011382745   -10.09734693546315
H   8   1     0.99474836942587    -2.01839690080961    -9.91207388765078
H   9   1     1.55630230933075    -1.92953025305990    12.99630010416247
C   10   6     0.75233899775814    -2.21270439606481    11.10705728102219
H   11   1    -0.43433408177274    -3.90944857546550    11.22216085340412
C   12   6     2.86362581178706    -2.63237380607947     9.17926416456045
H   13   1     4.39038949912609    -1.24955421540245     9.49899813497433
H   14   1     3.74629220191363    -4.48798724300892     9.47414880959024
C   15   6     2.02478325613682    -2.42177285709634     6.44560829588644
C   16   6     3.88048732735477    -3.58795445234514     4.61402886975252
C   17   6    -0.18412382258602    -1.30464291234259     5.76021113872346
C   18   6    -2.10044360464350    -0.26837831858460     7.71610340967100
C   19   6    -3.08956938670431     2.35282328359417     6.88693925039594
C   20   6    -4.37372924086464    -2.09766595989678     7.93610724222001
C   21   6    -0.83850430601230     0.06372213486173    10.33002307638377
H   22   1     0.38411922151109     1.74281358582432    10.27380136542181
H   23   1    -2.30980003007874     0.45460143924521    11.73986301809809
H   24   1     4.58527064644668    -5.38706904487420     5.36778158031719
H   25   1     5.54944938085014    -2.37631462192748     4.35398898413318
H   26   1     3.06633019150423    -3.94118377050688     2.75255466040884
H   27   1    -4.17727778763735     2.26573369139522     5.12914900961283
H   28   1    -1.52662344944051     3.68001877445626     6.59540397144508
H   29   1    -4.32916174397830     3.13643051467482     8.35225460090378
H   30   1    -5.32329548508442    -2.36691813602939     6.11583672749896
H   31   1    -5.77989366602257    -1.33896741843465     9.25748940450990
H   32   1    -3.79310905208926    -3.96389819310853     8.61386170102686
C   33   6    -1.01100794811226    -1.06331657314144     3.11929490449947
C   34   6     0.37686231036534    -0.33275864505552     1.09165013605873
H   35   1    -3.01671213906703    -1.40297922279997     2.77827895090944
C   36   6    -0.64382707979370    -0.11591880174385    -1.42063131251064
H   37   1     2.35569259782137     0.17174499283897     1.33641070251401
H   38   1    -2.63317482980319    -0.60229203511219    -1.66119700387645
C   39   6     2.88089126504443     0.61821658123040   -12.21129238571255
C   40   6     3.45664863859100    -1.22033421200677   -14.18493293343049
H   41   1     3.53070761900678     2.54536442784122   -12.51396089296279
O   42   8     4.60321296142939    -0.74877588551315   -16.13014426558594
H   43   1     2.75622344406002    -3.16930929543288   -13.79624335354022
[GTO]
1 0
 s    6 1.00
             3047.5249  0.0018347001629433
             457.36951    0.01403730124668
             103.94869   0.068842606114048
             29.210155    0.23218442062076
              9.286663    0.46794134155879
              3.163927    0.36231203217765
 s    3 1.00
             7.8682724   -0.11933240861517
             1.8812885   -0.16085421161283
             0.5442493     1.1434564825515
 s    1 1.00
             0.1687144                   1
 p    3 1.00
             7.8682724   0.068999095584993
             1.8812885    0.31642397975315
             0.5442493    0.74430825237435
 p    1 1.00
             0.1687144                   1
 d    1 1.00
                   0.8                   1

2 0
 s    3 1.00
             18.731137    0.03349459952309
             2.8253937    0.23472694665786
             0.6401217    0.81375731841339
 s    1 1.00
             0.1612778                   1

3 0
 s    6 1.00
             3047.5249  0.0018347001629433
             457.36951    0.01403730124668
             103.94869   0.068842606114048
             29.210155    0.23218442062076
              9.286663    0.46794134155879
              3.163927    0.36231203217765
 s    3 1.00
             7.8682724   -0.11933240861517
             1.8812885   -0.16085421161283
             0.5442493     1.1434564825515
 s    1 1.00
             0.1687144                   1
 p    3 1.00
             7.8682724   0.068999095584993
             1.8812885    0.31642397975315
             0.5442493    0.74430825237435
 p    1 1.00
             0.1687144                   1
 d    1 1.00
                   0.8                   1

4 0
 s    3 1.00
             18.731137    0.03349459952309
             2.8253937    0.23472694665786
             0.6401217    0.81375731841339
 s    1 1.00
             0.1612778                   1

5 0
 s    6 1.00
             3047.5249  0.0018347001629433
             457.36951    0.01403730124668
             103.94869   0.068842606114048
             29.210155    0.23218442062076
              9.286663    0.46794134155879
              3.163927    0.36231203217765
 s    3 1.00
             7.8682724   -0.11933240861517
             1.8812885   -0.16085421161283
             0.5442493     1.1434564825515
 s    1 1.00
             0.1687144                   1
 p    3 1.00
             7.8682724   0.068999095584993
             1.8812885    0.31642397975315
             0.5442493    0.74430825237435
 p    1 1.00
             0.1687144                   1
 d    1 1.00
                   0.8                   1

6 0
 s    3 1.00
             18.731137    0.03349459952309
             2.8253937    0.23472694665786
             0.6401217    0.81375731841339
 s    1 1.00
             0.1612778                   1

7 0
 s    6 1.00
             3047.5249  0.0018347001629433
             457.36951    0.01403730124668
             103.94869   0.068842606114048
             29.210155    0.23218442062076
              9.286663    0.46794134155879
              3.163927    0.36231203217765
 s    3 1.00
             7.8682724   -0.11933240861517
             1.8812885   -0.16085421161283
             0.5442493     1.1434564825515
 s    1 1.00
             0.1687144                   1
 p    3 1.00
             7.8682724   0.068999095584993
             1.8812885    0.31642397975315
             0.5442493    0.74430825237435
 p    1 1.00
             0.1687144                   1
 d    1 1.00
                   0.8                   1

8 0
 s    3 1.00
             18.731137    0.03349459952309
             2.8253937    0.23472694665786
             0.6401217    0.81375731841339
 s    1 1.00
             0.1612778                   1

9 0
 s    3 1.00
             18.731137    0.03349459952309
             2.8253937    0.23472694665786
             0.6401217    0.81375731841339
 s    1 1.00
             0.1612778                   1

10 0
 s    6 1.00
             3047.5249  0.0018347001629433
             457.36951    0.01403730124668
             103.94869   0.068842606114048
             29.210155    0.23218442062076
              9.286663    0.46794134155879
              3.163927    0.36231203217765
 s    3 1.00
             7.8682724   -0.11933240861517
             1.8812885   -0.16085421161283
             0.5442493     1.1434564825515
 s    1 1.00
             0.1687144                   1
 p    3 1.00
             7.8682724   0.068999095584993
             1.8812885    0.31642397975315
             0.5442493    0.74430825237435
 p    1 1.00
             0.1687144                   1
 d    1 1.00
                   0.8                   1

11 0
 s    3 1.00
             18.731137    0.03349459952309
             2.8253937    0.23472694665786
             0.6401217    0.81375731841339
 s    1 1.00
             0.1612778                   1

12 0
 s    6 1.00
             3047.5249  0.0018347001629433
             457.36951    0.01403730124668
             103.94869   0.068842606114048
             29.210155    0.23218442062076
              9.286663    0.46794134155879
              3.163927    0.36231203217765
 s    3 1.00
             7.8682724   -0.11933240861517
             1.8812885   -0.16085421161283
             0.5442493     1.1434564825515
 s    1 1.00
             0.1687144                   1
 p    3 1.00
             7.8682724   0.068999095584993
             1.8812885    0.31642397975315
             0.5442493    0.74430825237435
 p    1 1.00
             0.1687144                   1
 d    1 1.00
                   0.8                   1

13 0
 s    3 1.00
             18.731137    0.03349459952309
             2.8253937    0.23472694665786
             0.6401217    0.81375731841339
 s    1 1.00
             0.1612778                   1

14 0
 s    3 1.00
             18.731137    0.03349459952309
             2.8253937    0.23472694665786
             0.6401217    0.81375731841339
 s    1 1.00
             0.1612778                   1

15 0
 s    6 1.00
             3047.5249  0.0018347001629433
             457.36951    0.01403730124668
             103.94869   0.068842606114048
             29.210155    0.23218442062076
              9.286663    0.46794134155879
              3.163927    0.36231203217765
 s    3 1.00
             7.8682724   -0.11933240861517
             1.8812885   -0.16085421161283
             0.5442493     1.1434564825515
 s    1 1.00
             0.1687144                   1
 p    3 1.00
             7.8682724   0.068999095584993
             1.8812885    0.31642397975315
             0.5442493    0.74430825237435
 p    1 1.00
             0.1687144                   1
 d    1 1.00
                   0.8                   1

16 0
 s    6 1.00
             3047.5249  0.0018347001629433
             457.36951    0.01403730124668
             103.94869   0.068842606114048
             29.210155    0.23218442062076
              9.286663    0.46794134155879
              3.163927    0.36231203217765
 s    3 1.00
             7.8682724   -0.11933240861517
             1.8812885   -0.16085421161283
             0.5442493     1.1434564825515
 s    1 1.00
             0.1687144                   1
 p    3 1.00
             7.8682724   0.068999095584993
             1.8812885    0.31642397975315
             0.5442493    0.74430825237435
 p    1 1.00
             0.1687144                   1
 d    1 1.00
                   0.8                   1

17 0
 s    6 1.00
             3047.5249  0.0018347001629433
             457.36951    0.01403730124668
             103.94869   0.068842606114048
             29.210155    0.23218442062076
              9.286663    0.46794134155879
              3.163927    0.36231203217765
 s    3 1.00
             7.8682724   -0.11933240861517
             1.8812885   -0.16085421161283
             0.5442493     1.1434564825515
 s    1 1.00
             0.1687144                   1
 p    3 1.00
             7.8682724   0.068999095584993
             1.8812885    0.31642397975315
             0.5442493    0.74430825237435
 p    1 1.00
             0.1687144                   1
 d    1 1.00
                   0.8                   1

18 0
 s    6 1.00
             3047.5249  0.0018347001629433
             457.36951    0.01403730124668
             103.94869   0.068842606114048
             29.210155    0.23218442062076
              9.286663    0.46794134155879
              3.163927    0.36231203217765
 s    3 1.00
             7.8682724   -0.11933240861517
             1.8812885   -0.16085421161283
             0.5442493     1.1434564825515
 s    1 1.00
             0.1687144                   1
 p    3 1.00
             7.8682724   0.068999095584993
             1.8812885    0.31642397975315
             0.5442493    0.74430825237435
 p    1 1.00
             0.1687144                   1
 d    1 1.00
                   0.8                   1

19 0
 s    6 1.00
             3047.5249  0.0018347001629433
             457.36951    0.01403730124668
             103.94869   0.068842606114048
             29.210155    0.23218442062076
              9.286663    0.46794134155879
              3.163927    0.36231203217765
 s    3 1.00
             7.8682724   -0.11933240861517
             1.8812885   -0.16085421161283
             0.5442493     1.1434564825515
 s    1 1.00
             0.1687144                   1
 p    3 1.00
             7.8682724   0.068999095584993
             1.8812885    0.31642397975315
             0.5442493    0.74430825237435
 p    1 1.00
             0.1687144                   1
 d    1 1.00
                   0.8                   1

20 0
 s    6 1.00
             3047.5249  0.0018347001629433
             457.36951    0.01403730124668
             103.94869   0.068842606114048
             29.210155    0.23218442062076
              9.286663    0.46794134155879
              3.163927    0.36231203217765
 s    3 1.00
             7.8682724   -0.11933240861517
             1.8812885   -0.16085421161283
             0.5442493     1.1434564825515
 s    1 1.00
             0.1687144                   1
 p    3 1.00
             7.8682724   0.068999095584993
             1.8812885    0.31642397975315
             0.5442493    0.74430825237435
 p    1 1.00
             0.1687144                   1
 d    1 1.00
                   0.8                   1

21 0
 s    6 1.00
             3047.5249  0.0018347001629433
             457.36951    0.01403730124668
             103.94869   0.068842606114048
             29.210155    0.23218442062076
              9.286663    0.46794134155879
              3.163927    0.36231203217765
 s    3 1.00
             7.8682724   -0.11933240861517
             1.8812885   -0.16085421161283
             0.5442493     1.1434564825515
 s    1 1.00
             0.1687144                   1
 p    3 1.00
             7.8682724   0.068999095584993
             1.8812885    0.31642397975315
             0.5442493    0.74430825237435
 p    1 1.00
             0.1687144                   1
 d    1 1.00
                   0.8                   1

22 0
 s    3 1.00
             18.731137    0.03349459952309
             2.8253937    0.23472694665786
             0.6401217    0.81375731841339
 s    1 1.00
             0.1612778                   1

23 0
 s    3 1.00
             18.731137    0.03349459952309
             2.8253937    0.23472694665786
             0.6401217    0.81375731841339
 s    1 1.00
             0.1612778                   1

24 0
 s    3 1.00
             18.731137    0.03349459952309
             2.8253937    0.23472694665786
             0.6401217    0.81375731841339
 s    1 1.00
             0.1612778                   1

25 0
 s    3 1.00
             18.731137    0.03349459952309
             2.8253937    0.23472694665786
             0.6401217    0.81375731841339
 s    1 1.00
             0.1612778                   1

26 0
 s    3 1.00
             18.731137    0.03349459952309
             2.8253937    0.23472694665786
             0.6401217    0.81375731841339
 s    1 1.00
             0.1612778                   1

27 0
 s    3 1.00
             18.731137    0.03349459952309
             2.8253937    0.23472694665786
             0.6401217    0.81375731841339
 s    1 1.00
             0.1612778                   1

28 0
 s    3 1.00
             18.731137    0.03349459952309
             2.8253937    0.23472694665786
             0.6401217    0.81375731841339
 s    1 1.00
             0.1612778                   1

29 0
 s    3 1.00
             18.731137    0.03349459952309
             2.8253937    0.23472694665786
             0.6401217    0.81375731841339
 s    1 1.00
             0.1612778                   1

30 0
 s    3 1.00
             18.731137    0.03349459952309
             2.8253937    0.23472694665786
             0.6401217    0.81375731841339
 s    1 1.00
             0.1612778                   1

31 0
 s    3 1.00
             18.731137    0.03349459952309
             2.8253937    0.23472694665786
             0.6401217    0.81375731841339
 s    1 1.00
             0.1612778                   1

32 0
 s    3 1.00
             18.731137    0.03349459952309
             2.8253937    0.23472694665786
             0.6401217    0.81375731841339
 s    1 1.00
             0.1612778                   1

33 0
 s    6 1.00
             3047.5249  0.0018347001629433
             457.36951    0.01403730124668
             103.94869   0.068842606114048
             29.210155    0.23218442062076
              9.286663    0.46794134155879
              3.163927    0.36231203217765
 s    3 1.00
             7.8682724   -0.11933240861517
             1.8812885   -0.16085421161283
             0.5442493     1.1434564825515
 s    1 1.00
             0.1687144                   1
 p    3 1.00
             7.8682724   0.068999095584993
             1.8812885    0.31642397975315
             0.5442493    0.74430825237435
 p    1 1.00
             0.1687144                   1
 d    1 1.00
                   0.8                   1

34 0
 s    6 1.00
             3047.5249  0.0018347001629433
             457.36951    0.01403730124668
             103.94869   0.068842606114048
             29.210155    0.23218442062076
              9.286663    0.46794134155879
              3.163927    0.36231203217765
 s    3 1.00
             7.8682724   -0.11933240861517
             1.8812885   -0.16085421161283
             0.5442493     1.1434564825515
 s    1 1.00
             0.1687144                   1
 p    3 1.00
             7.8682724   0.068999095584993
             1.8812885    0.31642397975315
             0.5442493    0.74430825237435
 p    1 1.00
             0.1687144                   1
 d    1 1.00
                   0.8                   1

35 0
 s    3 1.00
             18.731137    0.03349459952309
             2.8253937    0.23472694665786
             0.6401217    0.81375731841339
 s    1 1.00
             0.1612778                   1

36 0
 s    6 1.00
             3047.5249  0.0018347001629433
             457.36951    0.01403730124668
             103.94869   0.068842606114048
             29.210155    0.23218442062076
              9.286663    0.46794134155879
              3.163927    0.36231203217765
 s    3 1.00
             7.8682724   -0.11933240861517
             1.8812885   -0.16085421161283
             0.5442493     1.1434564825515
 s    1 1.00
             0.1687144                   1
 p    3 1.00
             7.8682724   0.068999095584993
             1.8812885    0.31642397975315
             0.5442493    0.74430825237435
 p    1 1.00
             0.1687144                   1
 d    1 1.00
                   0.8                   1

37 0
 s    3 1.00
             18.731137    0.03349459952309
             2.8253937    0.23472694665786
             0.6401217    0.81375731841339
 s    1 1.00
             0.1612778                   1

38 0
 s    3 1.00
             18.731137    0.03349459952309
             2.8253937    0.23472694665786
             0.6401217    0.81375731841339
 s    1 1.00
             0.1612778                   1

39 0
 s    6 1.00
             3047.5249  0.0018347001629433
             457.36951    0.01403730124668
             103.94869   0.068842606114048
             29.210155    0.23218442062076
              9.286663    0.46794134155879
              3.163927    0.36231203217765
 s    3 1.00
             7.8682724   -0.11933240861517
             1.8812885   -0.16085421161283
             0.5442493     1.1434564825515
 s    1 1.00
             0.1687144                   1
 p    3 1.00
             7.8682724   0.068999095584993
             1.8812885    0.31642397975315
             0.5442493    0.74430825237435
 p    1 1.00
             0.1687144                   1
 d    1 1.00
                   0.8                   1

40 0
 s    6 1.00
             3047.5249  0.0018347001629433
             457.36951    0.01403730124668
             103.94869   0.068842606114048
             29.210155    0.23218442062076
              9.286663    0.46794134155879
              3.163927    0.36231203217765
 s    3 1.00
             7.8682724   -0.11933240861517
             1.8812885   -0.16085421161283
             0.5442493     1.1434564825515
 s    1 1.00
             0.1687144                   1
 p    3 1.00
             7.8682724   0.068999095584993
             1.8812885    0.31642397975315
             0.5442493    0.74430825237435
 p    1 1.00
             0.1687144                   1
 d    1 1.00
                   0.8                   1

41 0
 s    3 1.00
             18.731137    0.03349459952309
             2.8253937    0.23472694665786
             0.6401217    0.81375731841339
 s    1 1.00
             0.1612778                   1

42 0
 s    6 1.00
             5484.6717   0.001831099805527
             825.23495   0.013950098518422
             188.04696    0.06844509273075
               52.9645    0.23271427528445
              16.89757    0.47019295006289
             5.7996353    0.35852086192309
 s    3 1.00
             15.539616   -0.11077750382508
             3.5999336   -0.14802630511126
             1.0137618     1.1307670390447
 s    1 1.00
             0.2700058                   1
 p    3 1.00
             15.539616   0.070874299543311
             3.5999336    0.33975279781076
             1.0137618    0.72715859531445
 p    1 1.00
             0.2700058                   1
 d    1 1.00
                   0.8                   1

43 0
 s    3 1.00
             18.731137    0.03349459952309
             2.8253937    0.23472694665786
             0.6401217    0.81375731841339
 s    1 1.00
             0.1612778                   1

[5d]
[7f]
[9g]

[MO]
 Sym= A
 Ene=               0
 Spin= Alpha
 Occup=    1.00000
   1    -4.3667176308425e-07
   2    2.4394888904417e-05
   3    -9.5919493960185e-05
   4    1.4457850658105e-06
   5    -6.0185747188067e-06
   6    -2.0609117506495e-05
   7    3.2345700029965e-05
   8    1.463042088333e-05
   9    0.0002314165532191
  10    1.6632477858127e-06
  11    -7.9290591096971e-06
  12    -3.5972372267616e-06
  13    -1.1246352776595e-05
  14    6.0997985473737e-06
  15    8.8103863786683e-06
  16    -2.7196767635836e-05
  17     -2.6084952981e-06
  18    -0.00013520197095803
  19    -0.00057823698708869
  20    -4.9078387597777e-05
  21    8.5744461496242e-06
  22    7.8074538016868e-05
  23    -0.00015968334720403
  24    3.9680785631068e-05
  25    0.00067604531242761
  26    -2.2219083797081e-05
  27    2.0791408317662e-05
  28    1.8326749170805e-06
  29    -4.0403723526745e-05
  30    1.6452085329488e-05
  31    4.9867701720713e-06
  32    -1.6902041062853e-05
  33    -7.5738288813977e-05
  34    -0.0002694231055091
  35    0.0043965321284411
  36    7.8801524666443e-05
  37    -7.3594259930185e-05
  38    -0.000219166134486
  39    -8.8389138961244e-05
  40    -0.0018405885773353
  41    -0.00082190587372939
  42    5.9377316514584e-05
  43    -8.1326427491581e-05
  44    8.8888019563765e-05
  45    -4.15123289326e-05
  46    -1.0800513247146e-05
  47    8.6811580391677e-06
  48    0.00025117373695914
  49    5.3422232269141e-05
  50    -0.0003084655656712
  51    -0.0035993956124665
  52    -0.00016821684858985
  53    0.00032372888582022
  54    0.00049653411475756
  55    0.00078305936508099
  56    -0.0023905085565068
  57    -0.0026142710096973
  58    -1.9818302888395e-05
  59    -5.8278210436751e-05
  60    -0.00017604098028926
  61    1.668556961686e-06
  62    0.00010906367011383
  63     -0.00039539143938
  64    -0.0001359731587858
  65    2.1141709274897e-07
  66    5.2172513842726e-07
  67    3.4576731229145e-08
  68    3.5114963397283e-07
  69    -2.7827918656959e-06
  70    -1.8096719142441e-07
  71    2.3808720528268e-07
  72    -2.1068040546923e-08
  73    1.1997816210472e-08
  74    -1.1720236779342e-06
  75    -5.0246233742255e-07
  76    5.7207701878462e-08
  77    1.1463293258485e-07
  78    -3.6102647779139e-08
  79    -6.3381001605629e-08
  80    8.7209573930962e-08
  81    -4.2369809114322e-08
  82    3.2542202030294e-08
  83    1.7014103108388e-08
  84    1.2736516267599e-07
  85    8.4721064845418e-06
  86    -3.7928053373321e-07
  87    -1.5354105144749e-07
  88    -5.229706379141e-07
  89    -2.492675769576e-06
  90    3.3683510877409e-06
  91    -1.7267182594856e-06
  92    -1.4799563527265e-07
  93    2.0837193207083e-07
  94    -1.7161133123611e-07
  95    -2.3060925945535e-08
  96    1.3048813640188e-07
  97    -3.0170254772683e-07
  98    -3.4877667370533e-07
  99    2.5962342943646e-09
 100    6.8098935101111e-07
 101    9.0163034160637e-09
 102    1.1449877600081e-06
 103    -9.7936788685795e-06
 104    -4.6795787469751e-07
 105    2.4063678841107e-07
 106    1.4150413443192e-07
 107    1.3208619639834e-05
 108    -1.1950397607757e-05
 109    -2.0263086533123e-05
 110    4.9364149265329e-07
 111    4.5682894104775e-07
 112    -2.2764365930677e-07
 113    -5.5335987906315e-07
 114    2.6372853406439e-07
 115    4.6304508209888e-07
 116    4.1341209313674e-06
 117    -2.9909283469429e-05
 118    5.1674708128315e-07
 119    -9.130833820146e-07
 120    -5.6918889766408e-07
 121    5.8955074505003e-06
 122    9.4900266967382e-08
 123    7.8290692699157e-07
 124    4.9330523499162e-08
 125    -5.0881025099283e-09
 126    1.1743123539535e-07
 127    4.7687817418091e-08
 128    2.1265837460218e-07
 129    6.8398670492529e-07
 130    7.5985725043469e-06
 131    -2.9531939980964e-05
 132    4.4950551371999e-07
 133    1.6343235075825e-06
 134    -3.5124030665652e-06
 135    1.4308859837509e-05
 136    -3.8256022689698e-06
 137    5.4290239195432e-05
 138    -1.8231512247631e-06
 139    -9.1376795907456e-07
 140    -1.274353467476e-07
 141    -3.4046929429071e-07
 142    -6.7163623757758e-08
 143    2.6618897528308e-07
 144    1.5326788988134e-06
 145    -1.147652719067e-05
 146    -5.5388734452549e-07
 147    -8.3189663439924e-07
 148    3.6907274001358e-07
 149    -7.5142139366108e-06
 150    9.6153178401334e-06
 151    -1.5733991591523e-06
 152    8.3095264308037e-07
 153    2.106710744093e-07
 154    -1.1287375334129e-07
 155    -5.4805012628008e-07
 156    3.8459519117354e-07
 157    6.0859293910654e-08
 158    -3.1946351643675e-07
 159    -5.4132782663717e-06
 160    -6.7546916881992e-07
 161    4.3405606040299e-07
 162    -1.0247026265872e-07
 163    3.4932489415998e-06
 164    1.6375857848398e-06
 165    -3.9628318434941e-07
 166    -1.4554657870073e-07
 167    -4.9507593200505e-08
 168    4.2104634006872e-08
 169    1.4218654141175e-07
 170    -8.6281306348983e-08
 171    -5.6270469409019e-08
 172    3.763381345948e-07
 173    2.5825727475031e-06
 174    6.8571672667524e-07
 175    1.3827767003593e-07
 176    -5.4379698200296e-07
 177    1.3598597487411e-06
 178    -3.5356676364864e-07
 179    2.4686129133923e-06
 180    -1.7095413632396e-07
 181    -2.7139081147909e-08
 182    5.9126869797203e-08
 183    3.5614972557461e-07
 184    -4.4861462557012e-08
 185    1.6823733545514e-07
 186    1.9823110576413e-06
 187    -1.1449398264495e-07
 188    7.7197194527201e-08
 189    -1.1916186379292e-07
 190    -8.8085111141325e-07
 191    -2.4329816679524e-06
 192    -1.9743738183273e-06
 193    3.9466996699598e-06
 194    -3.1721620182576e-07
 195    1.046944755863e-07
 196    6.9032201877643e-08
 197    -5.583779105043e-08
 198    9.5264745621078e-08
 199    5.6497031246388e-07
 200    1.5567170790375e-06
 201    -1.7043285603178e-07
 202    -2.7731447367564e-06
 203    1.4195351000166e-06
 204    1.564168679656e-06
 205    5.5483645278733e-07
 206    2.1327193163402e-06
 207    -1.8254583218555e-06
 208    1.4374289854521e-05
 209    -5.8890800632119e-07
 210    3.3200197892877e-06
 211    -7.331415272247e-08
 212    -1.8781439702804e-06
 213    2.8286426582756e-07
 214    1.7718949130162e-06
 215    2.6885096654436e-07
 216    1.1103222315066e-06
 217    -3.331050934145e-07
 218    -1.1187976390495e-06
 219    -6.667612134085e-08
 220    -1.0405493067842e-06
 221    5.2661478716164e-07
 222    5.0322473378984e-06
 223    1.3346012005104e-05
 224    1.279096094339e-07
 225    9.2428368279181e-07
 226    -1.9070307644503e-06
 227    -1.5014533640933e-05
 228    -1.4164205409723e-05
 229    4.8026653144522e-05
 230    1.4277361027132e-06
 231    2.1947276764665e-06
 232    1.4318245441925e-06
 233    -1.0671899225054e-06
 234    -2.2881308982215e-06
 235    1.5825505591932e-06
 236    1.5700409058715e-05
 237    -9.0916133576505e-05
 238    1.206804131944e-06
 239    -5.798235261531e-06
 240    -3.4121661355032e-06
 241    3.4478352724723e-05
 242    1.254893040509e-05
 243    9.6396260204727e-05
 244    -4.3242679859854e-06
 245    -5.4281917603814e-06
 246    -1.9256849226104e-06
 247    -2.0280233010735e-06
 248    -2.5568296048147e-06
 249    1.4185118876449e-06
 250    -1.172151878525e-05
 251    2.8255990809914e-06
 252    1.4957507918886e-05
 253    -6.0856186019073e-05
 254    -7.7766782851784e-06
 255    1.0193647011489e-05
 256    -6.1209308657977e-06
 257    -2.9362763221844e-05
 258    -0.00010141345927316
 259    0.00018767772392608
 260    1.7513601236152e-06
 261    8.9100609632285e-06
 262    5.1932410274167e-06
 263    -4.2806898057749e-06
 264    -7.3410223973139e-06
 265    4.4549322674806e-06
 266    -2.2818156538506e-05
 267    9.1416025332696e-06
 268    -2.9167472603562e-05
 269    6.8263522185019e-05
 270    -2.709443573991e-05
 271    -0.0030837731719668
 272    0.00015103664316872
 273    0.0002294547333475
 274    -0.00012097824731193
 275    -0.001876388268967
 276    -0.00060307158578528
 277    0.0033175033987603
 278    -0.00027941336058706
 279    0.00017382966620385
 280    -0.00010570764232676