[Molden Format]
made by pyscf v[2.0.1]
[Atoms] (AU)
C   1   6     0.69100024066471     0.64692934207205    -3.48223131169301
H   2   1     2.68052439830868     1.13355088658700    -3.25784032593313
C   3   6    -0.36286361513219     0.85440132524594    -5.97030179418974
H   4   1    -2.35448549047279     0.36322488579172    -6.17995817793143
C   5   6     0.93697958957450     1.61209284601821    -8.05828437677121
H   6   1     0.14022243979667     3.08603065646166    -9.25562650474843
C   7   6     3.33155915073320     0.56926267114995    -8.78956929307971
H   8   1     4.10661901770469    -0.90506612570738    -7.57081623325171
H   9   1     1.55630230933075    -1.92953025305990    12.99630010416247
C   10   6     0.75233899775814    -2.21270439606481    11.10705728102219
H   11   1    -0.43433408177274    -3.90944857546550    11.22216085340412
C   12   6     2.86362581178706    -2.63237380607947     9.17926416456045
H   13   1     4.39038949912609    -1.24955421540245     9.49899813497433
H   14   1     3.74629220191363    -4.48798724300892     9.47414880959024
C   15   6     2.02478325613682    -2.42177285709634     6.44560829588644
C   16   6     3.88048732735477    -3.58795445234514     4.61402886975252
C   17   6    -0.18412382258602    -1.30464291234259     5.76021113872346
C   18   6    -2.10044360464350    -0.26837831858460     7.71610340967100
C   19   6    -3.08956938670431     2.35282328359417     6.88693925039594
C   20   6    -4.37372924086464    -2.09766595989678     7.93610724222001
C   21   6    -0.83850430601230     0.06372213486173    10.33002307638377
H   22   1     0.38411922151109     1.74281358582432    10.27380136542181
H   23   1    -2.30980003007874     0.45460143924521    11.73986301809809
H   24   1     4.58527064644668    -5.38706904487420     5.36778158031719
H   25   1     5.54944938085014    -2.37631462192748     4.35398898413318
H   26   1     3.06633019150423    -3.94118377050688     2.75255466040884
H   27   1    -4.17727778763735     2.26573369139522     5.12914900961283
H   28   1    -1.52662344944051     3.68001877445626     6.59540397144508
H   29   1    -4.32916174397830     3.13643051467482     8.35225460090378
H   30   1    -5.32329548508442    -2.36691813602939     6.11583672749896
H   31   1    -5.77989366602257    -1.33896741843465     9.25748940450990
H   32   1    -3.79310905208926    -3.96389819310853     8.61386170102686
C   33   6    -1.01100794811226    -1.06331657314144     3.11929490449947
C   34   6     0.37686231036534    -0.33275864505552     1.09165013605873
H   35   1    -3.01671213906703    -1.40297922279997     2.77827895090944
C   36   6    -0.64382707979370    -0.11591880174385    -1.42063131251064
H   37   1     2.35569259782137     0.17174499283897     1.33641070251401
H   38   1    -2.63317482980319    -0.60229203511219    -1.66119700387645
C   39   6     4.69106502259275     1.26188352336463   -10.85081981009206
C   40   6     7.11506387067225     0.08270412537969   -11.43459041306820
H   41   1     4.02727424636240     2.71762167762249   -12.14232148362751
O   42   8     8.43283181269616     0.61123359193353   -13.25254761350674
H   43   1     7.72125158488297    -1.39686243822724   -10.06214800755086
[GTO]
1 0
 s    6 1.00
             3047.5249  0.0018347001629433
             457.36951    0.01403730124668
             103.94869   0.068842606114048
             29.210155    0.23218442062076
              9.286663    0.46794134155879
              3.163927    0.36231203217765
 s    3 1.00
             7.8682724   -0.11933240861517
             1.8812885   -0.16085421161283
             0.5442493     1.1434564825515
 s    1 1.00
             0.1687144                   1
 p    3 1.00
             7.8682724   0.068999095584993
             1.8812885    0.31642397975315
             0.5442493    0.74430825237435
 p    1 1.00
             0.1687144                   1
 d    1 1.00
                   0.8                   1

2 0
 s    3 1.00
             18.731137    0.03349459952309
             2.8253937    0.23472694665786
             0.6401217    0.81375731841339
 s    1 1.00
             0.1612778                   1

3 0
 s    6 1.00
             3047.5249  0.0018347001629433
             457.36951    0.01403730124668
             103.94869   0.068842606114048
             29.210155    0.23218442062076
              9.286663    0.46794134155879
              3.163927    0.36231203217765
 s    3 1.00
             7.8682724   -0.11933240861517
             1.8812885   -0.16085421161283
             0.5442493     1.1434564825515
 s    1 1.00
             0.1687144                   1
 p    3 1.00
             7.8682724   0.068999095584993
             1.8812885    0.31642397975315
             0.5442493    0.74430825237435
 p    1 1.00
             0.1687144                   1
 d    1 1.00
                   0.8                   1

4 0
 s    3 1.00
             18.731137    0.03349459952309
             2.8253937    0.23472694665786
             0.6401217    0.81375731841339
 s    1 1.00
             0.1612778                   1

5 0
 s    6 1.00
             3047.5249  0.0018347001629433
             457.36951    0.01403730124668
             103.94869   0.068842606114048
             29.210155    0.23218442062076
              9.286663    0.46794134155879
              3.163927    0.36231203217765
 s    3 1.00
             7.8682724   -0.11933240861517
             1.8812885   -0.16085421161283
             0.5442493     1.1434564825515
 s    1 1.00
             0.1687144                   1
 p    3 1.00
             7.8682724   0.068999095584993
             1.8812885    0.31642397975315
             0.5442493    0.74430825237435
 p    1 1.00
             0.1687144                   1
 d    1 1.00
                   0.8                   1

6 0
 s    3 1.00
             18.731137    0.03349459952309
             2.8253937    0.23472694665786
             0.6401217    0.81375731841339
 s    1 1.00
             0.1612778                   1

7 0
 s    6 1.00
             3047.5249  0.0018347001629433
             457.36951    0.01403730124668
             103.94869   0.068842606114048
             29.210155    0.23218442062076
              9.286663    0.46794134155879
              3.163927    0.36231203217765
 s    3 1.00
             7.8682724   -0.11933240861517
             1.8812885   -0.16085421161283
             0.5442493     1.1434564825515
 s    1 1.00
             0.1687144                   1
 p    3 1.00
             7.8682724   0.068999095584993
             1.8812885    0.31642397975315
             0.5442493    0.74430825237435
 p    1 1.00
             0.1687144                   1
 d    1 1.00
                   0.8                   1

8 0
 s    3 1.00
             18.731137    0.03349459952309
             2.8253937    0.23472694665786
             0.6401217    0.81375731841339
 s    1 1.00
             0.1612778                   1

9 0
 s    3 1.00
             18.731137    0.03349459952309
             2.8253937    0.23472694665786
             0.6401217    0.81375731841339
 s    1 1.00
             0.1612778                   1

10 0
 s    6 1.00
             3047.5249  0.0018347001629433
             457.36951    0.01403730124668
             103.94869   0.068842606114048
             29.210155    0.23218442062076
              9.286663    0.46794134155879
              3.163927    0.36231203217765
 s    3 1.00
             7.8682724   -0.11933240861517
             1.8812885   -0.16085421161283
             0.5442493     1.1434564825515
 s    1 1.00
             0.1687144                   1
 p    3 1.00
             7.8682724   0.068999095584993
             1.8812885    0.31642397975315
             0.5442493    0.74430825237435
 p    1 1.00
             0.1687144                   1
 d    1 1.00
                   0.8                   1

11 0
 s    3 1.00
             18.731137    0.03349459952309
             2.8253937    0.23472694665786
             0.6401217    0.81375731841339
 s    1 1.00
             0.1612778                   1

12 0
 s    6 1.00
             3047.5249  0.0018347001629433
             457.36951    0.01403730124668
             103.94869   0.068842606114048
             29.210155    0.23218442062076
              9.286663    0.46794134155879
              3.163927    0.36231203217765
 s    3 1.00
             7.8682724   -0.11933240861517
             1.8812885   -0.16085421161283
             0.5442493     1.1434564825515
 s    1 1.00
             0.1687144                   1
 p    3 1.00
             7.8682724   0.068999095584993
             1.8812885    0.31642397975315
             0.5442493    0.74430825237435
 p    1 1.00
             0.1687144                   1
 d    1 1.00
                   0.8                   1

13 0
 s    3 1.00
             18.731137    0.03349459952309
             2.8253937    0.23472694665786
             0.6401217    0.81375731841339
 s    1 1.00
             0.1612778                   1

14 0
 s    3 1.00
             18.731137    0.03349459952309
             2.8253937    0.23472694665786
             0.6401217    0.81375731841339
 s    1 1.00
             0.1612778                   1

15 0
 s    6 1.00
             3047.5249  0.0018347001629433
             457.36951    0.01403730124668
             103.94869   0.068842606114048
             29.210155    0.23218442062076
              9.286663    0.46794134155879
              3.163927    0.36231203217765
 s    3 1.00
             7.8682724   -0.11933240861517
             1.8812885   -0.16085421161283
             0.5442493     1.1434564825515
 s    1 1.00
             0.1687144                   1
 p    3 1.00
             7.8682724   0.068999095584993
             1.8812885    0.31642397975315
             0.5442493    0.74430825237435
 p    1 1.00
             0.1687144                   1
 d    1 1.00
                   0.8                   1

16 0
 s    6 1.00
             3047.5249  0.0018347001629433
             457.36951    0.01403730124668
             103.94869   0.068842606114048
             29.210155    0.23218442062076
              9.286663    0.46794134155879
              3.163927    0.36231203217765
 s    3 1.00
             7.8682724   -0.11933240861517
             1.8812885   -0.16085421161283
             0.5442493     1.1434564825515
 s    1 1.00
             0.1687144                   1
 p    3 1.00
             7.8682724   0.068999095584993
             1.8812885    0.31642397975315
             0.5442493    0.74430825237435
 p    1 1.00
             0.1687144                   1
 d    1 1.00
                   0.8                   1

17 0
 s    6 1.00
             3047.5249  0.0018347001629433
             457.36951    0.01403730124668
             103.94869   0.068842606114048
             29.210155    0.23218442062076
              9.286663    0.46794134155879
              3.163927    0.36231203217765
 s    3 1.00
             7.8682724   -0.11933240861517
             1.8812885   -0.16085421161283
             0.5442493     1.1434564825515
 s    1 1.00
             0.1687144                   1
 p    3 1.00
             7.8682724   0.068999095584993
             1.8812885    0.31642397975315
             0.5442493    0.74430825237435
 p    1 1.00
             0.1687144                   1
 d    1 1.00
                   0.8                   1

18 0
 s    6 1.00
             3047.5249  0.0018347001629433
             457.36951    0.01403730124668
             103.94869   0.068842606114048
             29.210155    0.23218442062076
              9.286663    0.46794134155879
              3.163927    0.36231203217765
 s    3 1.00
             7.8682724   -0.11933240861517
             1.8812885   -0.16085421161283
             0.5442493     1.1434564825515
 s    1 1.00
             0.1687144                   1
 p    3 1.00
             7.8682724   0.068999095584993
             1.8812885    0.31642397975315
             0.5442493    0.74430825237435
 p    1 1.00
             0.1687144                   1
 d    1 1.00
                   0.8                   1

19 0
 s    6 1.00
             3047.5249  0.0018347001629433
             457.36951    0.01403730124668
             103.94869   0.068842606114048
             29.210155    0.23218442062076
              9.286663    0.46794134155879
              3.163927    0.36231203217765
 s    3 1.00
             7.8682724   -0.11933240861517
             1.8812885   -0.16085421161283
             0.5442493     1.1434564825515
 s    1 1.00
             0.1687144                   1
 p    3 1.00
             7.8682724   0.068999095584993
             1.8812885    0.31642397975315
             0.5442493    0.74430825237435
 p    1 1.00
             0.1687144                   1
 d    1 1.00
                   0.8                   1

20 0
 s    6 1.00
             3047.5249  0.0018347001629433
             457.36951    0.01403730124668
             103.94869   0.068842606114048
             29.210155    0.23218442062076
              9.286663    0.46794134155879
              3.163927    0.36231203217765
 s    3 1.00
             7.8682724   -0.11933240861517
             1.8812885   -0.16085421161283
             0.5442493     1.1434564825515
 s    1 1.00
             0.1687144                   1
 p    3 1.00
             7.8682724   0.068999095584993
             1.8812885    0.31642397975315
             0.5442493    0.74430825237435
 p    1 1.00
             0.1687144                   1
 d    1 1.00
                   0.8                   1

21 0
 s    6 1.00
             3047.5249  0.0018347001629433
             457.36951    0.01403730124668
             103.94869   0.068842606114048
             29.210155    0.23218442062076
              9.286663    0.46794134155879
              3.163927    0.36231203217765
 s    3 1.00
             7.8682724   -0.11933240861517
             1.8812885   -0.16085421161283
             0.5442493     1.1434564825515
 s    1 1.00
             0.1687144                   1
 p    3 1.00
             7.8682724   0.068999095584993
             1.8812885    0.31642397975315
             0.5442493    0.74430825237435
 p    1 1.00
             0.1687144                   1
 d    1 1.00
                   0.8                   1

22 0
 s    3 1.00
             18.731137    0.03349459952309
             2.8253937    0.23472694665786
             0.6401217    0.81375731841339
 s    1 1.00
             0.1612778                   1

23 0
 s    3 1.00
             18.731137    0.03349459952309
             2.8253937    0.23472694665786
             0.6401217    0.81375731841339
 s    1 1.00
             0.1612778                   1

24 0
 s    3 1.00
             18.731137    0.03349459952309
             2.8253937    0.23472694665786
             0.6401217    0.81375731841339
 s    1 1.00
             0.1612778                   1

25 0
 s    3 1.00
             18.731137    0.03349459952309
             2.8253937    0.23472694665786
             0.6401217    0.81375731841339
 s    1 1.00
             0.1612778                   1

26 0
 s    3 1.00
             18.731137    0.03349459952309
             2.8253937    0.23472694665786
             0.6401217    0.81375731841339
 s    1 1.00
             0.1612778                   1

27 0
 s    3 1.00
             18.731137    0.03349459952309
             2.8253937    0.23472694665786
             0.6401217    0.81375731841339
 s    1 1.00
             0.1612778                   1

28 0
 s    3 1.00
             18.731137    0.03349459952309
             2.8253937    0.23472694665786
             0.6401217    0.81375731841339
 s    1 1.00
             0.1612778                   1

29 0
 s    3 1.00
             18.731137    0.03349459952309
             2.8253937    0.23472694665786
             0.6401217    0.81375731841339
 s    1 1.00
             0.1612778                   1

30 0
 s    3 1.00
             18.731137    0.03349459952309
             2.8253937    0.23472694665786
             0.6401217    0.81375731841339
 s    1 1.00
             0.1612778                   1

31 0
 s    3 1.00
             18.731137    0.03349459952309
             2.8253937    0.23472694665786
             0.6401217    0.81375731841339
 s    1 1.00
             0.1612778                   1

32 0
 s    3 1.00
             18.731137    0.03349459952309
             2.8253937    0.23472694665786
             0.6401217    0.81375731841339
 s    1 1.00
             0.1612778                   1

33 0
 s    6 1.00
             3047.5249  0.0018347001629433
             457.36951    0.01403730124668
             103.94869   0.068842606114048
             29.210155    0.23218442062076
              9.286663    0.46794134155879
              3.163927    0.36231203217765
 s    3 1.00
             7.8682724   -0.11933240861517
             1.8812885   -0.16085421161283
             0.5442493     1.1434564825515
 s    1 1.00
             0.1687144                   1
 p    3 1.00
             7.8682724   0.068999095584993
             1.8812885    0.31642397975315
             0.5442493    0.74430825237435
 p    1 1.00
             0.1687144                   1
 d    1 1.00
                   0.8                   1

34 0
 s    6 1.00
             3047.5249  0.0018347001629433
             457.36951    0.01403730124668
             103.94869   0.068842606114048
             29.210155    0.23218442062076
              9.286663    0.46794134155879
              3.163927    0.36231203217765
 s    3 1.00
             7.8682724   -0.11933240861517
             1.8812885   -0.16085421161283
             0.5442493     1.1434564825515
 s    1 1.00
             0.1687144                   1
 p    3 1.00
             7.8682724   0.068999095584993
             1.8812885    0.31642397975315
             0.5442493    0.74430825237435
 p    1 1.00
             0.1687144                   1
 d    1 1.00
                   0.8                   1

35 0
 s    3 1.00
             18.731137    0.03349459952309
             2.8253937    0.23472694665786
             0.6401217    0.81375731841339
 s    1 1.00
             0.1612778                   1

36 0
 s    6 1.00
             3047.5249  0.0018347001629433
             457.36951    0.01403730124668
             103.94869   0.068842606114048
             29.210155    0.23218442062076
              9.286663    0.46794134155879
              3.163927    0.36231203217765
 s    3 1.00
             7.8682724   -0.11933240861517
             1.8812885   -0.16085421161283
             0.5442493     1.1434564825515
 s    1 1.00
             0.1687144                   1
 p    3 1.00
             7.8682724   0.068999095584993
             1.8812885    0.31642397975315
             0.5442493    0.74430825237435
 p    1 1.00
             0.1687144                   1
 d    1 1.00
                   0.8                   1

37 0
 s    3 1.00
             18.731137    0.03349459952309
             2.8253937    0.23472694665786
             0.6401217    0.81375731841339
 s    1 1.00
             0.1612778                   1

38 0
 s    3 1.00
             18.731137    0.03349459952309
             2.8253937    0.23472694665786
             0.6401217    0.81375731841339
 s    1 1.00
             0.1612778                   1

39 0
 s    6 1.00
             3047.5249  0.0018347001629433
             457.36951    0.01403730124668
             103.94869   0.068842606114048
             29.210155    0.23218442062076
              9.286663    0.46794134155879
              3.163927    0.36231203217765
 s    3 1.00
             7.8682724   -0.11933240861517
             1.8812885   -0.16085421161283
             0.5442493     1.1434564825515
 s    1 1.00
             0.1687144                   1
 p    3 1.00
             7.8682724   0.068999095584993
             1.8812885    0.31642397975315
             0.5442493    0.74430825237435
 p    1 1.00
             0.1687144                   1
 d    1 1.00
                   0.8                   1

40 0
 s    6 1.00
             3047.5249  0.0018347001629433
             457.36951    0.01403730124668
             103.94869   0.068842606114048
             29.210155    0.23218442062076
              9.286663    0.46794134155879
              3.163927    0.36231203217765
 s    3 1.00
             7.8682724   -0.11933240861517
             1.8812885   -0.16085421161283
             0.5442493     1.1434564825515
 s    1 1.00
             0.1687144                   1
 p    3 1.00
             7.8682724   0.068999095584993
             1.8812885    0.31642397975315
             0.5442493    0.74430825237435
 p    1 1.00
             0.1687144                   1
 d    1 1.00
                   0.8                   1

41 0
 s    3 1.00
             18.731137    0.03349459952309
             2.8253937    0.23472694665786
             0.6401217    0.81375731841339
 s    1 1.00
             0.1612778                   1

42 0
 s    6 1.00
             5484.6717   0.001831099805527
             825.23495   0.013950098518422
             188.04696    0.06844509273075
               52.9645    0.23271427528445
              16.89757    0.47019295006289
             5.7996353    0.35852086192309
 s    3 1.00
             15.539616   -0.11077750382508
             3.5999336   -0.14802630511126
             1.0137618     1.1307670390447
 s    1 1.00
             0.2700058                   1
 p    3 1.00
             15.539616   0.070874299543311
             3.5999336    0.33975279781076
             1.0137618    0.72715859531445
 p    1 1.00
             0.2700058                   1
 d    1 1.00
                   0.8                   1

43 0
 s    3 1.00
             18.731137    0.03349459952309
             2.8253937    0.23472694665786
             0.6401217    0.81375731841339
 s    1 1.00
             0.1612778                   1

[5d]
[7f]
[9g]

[MO]
 Sym= A
 Ene=               0
 Spin= Alpha
 Occup=    1.00000
   1    3.9599465924708e-06
   2    4.0288011144114e-05
   3    -0.00058593444264058
   4    1.4598958501671e-05
   5    -2.8375574227352e-05
   6    -5.3506008194807e-06
   7    6.9974300612761e-05
   8    0.00012138596399637
   9    0.00021380424188741
  10    -1.4598748050993e-05
  11    -8.3133529050499e-06
  12    -5.6764646569194e-06
  13    5.5096938038945e-06
  14    -4.8803802698593e-06
  15    2.7844300201761e-06
  16    1.2928874467044e-05
  17    -8.047511135125e-06
  18     3.66267522786e-05
  19    0.0012003392080139
  20    5.0164929965769e-05
  21     1.42534798872e-05
  22    -6.9953298331295e-05
  23    0.00073813276780076
  24    -8.2106399904575e-05
  25    -0.0001195569108809
  26    3.0431139677013e-05
  27    -2.4093371688703e-05
  28    1.700006931054e-05
  29    2.6845395055567e-05
  30    2.3136542695907e-05
  31    4.4887899517868e-06
  32    0.00012268501894542
  33    7.7421356351403e-05
  34    0.00027104732893514
  35    -0.0045433661753467
  36    -0.00019920944482171
  37    2.7398427134508e-05
  38    0.0001161217626235
  39    -0.0017120554187043
  40    0.0013811917699863
  41    -0.00042096874388138
  42    2.2524884795196e-05
  43    8.6399434053146e-05
  44    1.2092377662177e-05
  45    -7.7616664468121e-05
  46    8.5484760509443e-05
  47    -2.0075528888485e-05
  48    -0.00030914203919744
  49    -5.4854802490041e-05
  50    0.00030258168337427
  51    0.0037901114818229
  52    0.00054198043392752
  53    -0.00019717211424415
  54    -0.00021087290924787
  55    -0.0032850367094927
  56    0.0016247626294718
  57    0.00080944815050284
  58    -0.00012486342782964
  59    6.2017687904812e-06
  60    0.00014074282701453
  61    8.1174434356367e-05
  62    -8.0519293570888e-05
  63    0.00039235097531203
  64    0.00018179397599971
  65    3.6110859009213e-08
  66    -7.4636576852908e-07
  67    -8.5571774224793e-09
  68    6.008218077045e-09
  69    1.7613999827003e-06
  70    -7.4307938031294e-08
  71    1.1810979492079e-07
  72    1.0264235662775e-07
  73    -6.9444103266945e-07
  74    -1.1632680282358e-07
  75    1.7107673155053e-07
  76    -1.5987703927427e-07
  77    -1.5463053103303e-07
  78    -1.8151085823883e-08
  79    -4.1360403597824e-08
  80    -1.5831356299729e-07
  81    -3.5151983491301e-08
  82    -6.7679889391928e-07
  83    -1.3720720351853e-07
  84    -1.2516294382128e-06
  85    -1.1715814204844e-05
  86    5.5093562794663e-07
  87    -4.6798567126892e-07
  88    5.3646746098577e-07
  89    8.4301730802371e-07
  90    1.6019563574004e-06
  91    4.687383261733e-06
  92    1.8150526438855e-07
  93    -1.0097393232538e-07
  94    -7.1211592147585e-08
  95    2.3756256301372e-07
  96    -1.9467192835716e-07
  97    -2.6644656437904e-07
  98    -9.9000958659237e-07
  99    6.2505029774505e-07
 100    8.7768071643718e-07
 101    3.9751939178772e-07
 102    1.2924815774078e-06
 103    -3.2068596873595e-05
 104    1.9257886264867e-06
 105    2.6565595015817e-07
 106    -1.7588461275159e-07
 107    -2.6305251857594e-06
 108    3.6698974844004e-06
 109    4.1441802987749e-05
 110    -6.1535037123683e-07
 111    -1.0530207896218e-06
 112    4.3871143222533e-07
 113    -4.6340505077152e-08
 114    9.810246667794e-08
 115    -4.1097305421487e-07
 116    -3.7052313049894e-06
 117    3.0535776053154e-05
 118    -5.1130665169506e-07
 119    -7.0968136031351e-08
 120    1.2095916718864e-06
 121    -1.1413328127733e-05
 122    9.2050582334717e-06
 123    2.1556584251887e-06
 124    -4.0613293090095e-07
 125    -2.1462617396893e-07
 126    4.8153468907809e-07
 127    4.1204299088325e-07
 128    -4.3576654714664e-07
 129    -1.0490649627542e-06
 130    -7.5883221127509e-06
 131    5.8576830975488e-05
 132    -1.8829523605013e-06
 133    8.3376349318403e-07
 134    2.9126732770549e-06
 135    2.6734271291745e-05
 136    -1.4073409102098e-05
 137    -8.6966094583153e-05
 138    2.6033161827403e-06
 139    1.4028577076291e-06
 140    -7.7514911574307e-07
 141    4.480250521153e-07
 142    -1.0275959335216e-06
 143    -7.754917767816e-07
 144    -5.2854348307447e-06
 145    5.011804610359e-05
 146    -2.8366470429266e-08
 147    -1.1776740784737e-07
 148    -1.8657195460066e-06
 149    2.553488252123e-05
 150    -1.4313244292653e-05
 151    9.1081730863163e-07
 152    -4.0890118062196e-07
 153    -4.0915714881818e-07
 154    5.6607576734345e-07
 155    7.316609433129e-07
 156    -7.2822355990502e-07
 157    -1.9530361805577e-07
 158    -1.2074961273378e-06
 159    8.7157269054245e-06
 160    5.4568372034869e-08
 161    -1.0328313176643e-07
 162    -1.5122099664478e-07
 163    -3.5302500613812e-06
 164    -2.9319963646756e-06
 165    -7.9839944390002e-07
 166    2.130222943364e-07
 167    -3.2032212930135e-07
 168    5.3749787843811e-08
 169    -3.4509967043999e-07
 170    2.4036305289233e-07
 171    2.5963225309121e-08
 172    -1.2384307394468e-07
 173    3.134094926503e-07
 174    -3.6298633022903e-08
 175    -1.8757334799343e-07
 176    -2.5194049178567e-07
 177    -5.423409610513e-06
 178    2.0678410414179e-06
 179    -1.458330717862e-06
 180    1.0601720072619e-07
 181    -4.4057855414537e-07
 182    1.8513621592745e-07
 183    -6.2769176340382e-07
 184    -2.5312889959682e-07
 185    7.1281016305713e-08
 186    -2.8295986613792e-07
 187    -1.3518880725773e-05
 188    3.8373906526648e-07
 189    2.2912750486151e-07
 190    1.5521223494436e-06
 191    2.6186770888898e-06
 192    2.752497405928e-06
 193    3.3939890107213e-06
 194    -2.2688756319985e-07
 195    -4.1432870739178e-07
 196    -1.542563460762e-07
 197    3.5820318243101e-07
 198    -2.9153644241009e-07
 199    2.3158309774534e-07
 200    -8.8863621750023e-07
 201    3.1364716114243e-07
 202    2.7233910798428e-06
 203    -3.4121255681571e-07
 204    2.5625765861374e-06
 205    -1.484056028945e-06
 206    -1.4791101733219e-06
 207    -1.2052085567542e-06
 208    -2.7705116219863e-06
 209    2.2525760708243e-07
 210    -4.6419827041972e-06
 211    3.0122345082095e-08
 212    1.0832141685945e-06
 213    -5.7917640935281e-07
 214    -3.6863213002147e-07
 215    9.2556997395283e-07
 216    -5.5148830404963e-06
 217    -2.9256789839346e-07
 218    -7.1035382219407e-07
 219    2.2461641208702e-07
 220    2.0935953757778e-06
 221    1.3571440386289e-06
 222    6.5492316419372e-06
 223    -0.00017160014839077
 224    6.3240047804656e-07
 225    -5.8811028482303e-06
 226    4.7217384644788e-06
 227    -5.1154071229221e-05
 228    -3.8467404083593e-07
 229    -3.1530401670634e-06
 230    -3.6675306791014e-06
 231    -5.2107173200465e-07
 232    1.6203365477202e-06
 233    -2.3414458161911e-08
 234    4.8367747530246e-07
 235    -1.9124428851668e-06
 236    -1.267520655814e-05
 237    0.0002240247768748
 238    2.0797177630405e-06
 239    6.7735509471423e-06
 240    -4.5681569546804e-06
 241    -0.00010315514497599
 242    -2.7695333978115e-05
 243    -3.5279509569892e-06
 244    3.3727315905748e-06
 245    1.3320560625407e-06
 246    -3.2940213566627e-06
 247    2.0050534648967e-06
 248    -4.6684671518259e-07
 249    -3.2719666131341e-06
 250    6.9560011096023e-06
 251    -2.2802015927793e-06
 252    -1.9414759979931e-05
 253    5.8385551056792e-05
 254    1.198562760455e-06
 255    3.3267529011598e-06
 256    1.4161619418024e-05
 257    -1.1904061623096e-05
 258    7.8737369890567e-06
 259    -0.00026110321532608
 260    2.3468518653325e-06
 261    -9.7736682333102e-06
 262    8.4869809592773e-07
 263    7.2446856221728e-06
 264    -3.1734853039312e-06
 265    5.9540560578501e-06
 266    1.6388228200805e-05
 267    -1.3631446352377e-05
 268    -1.3360016366137e-05
 269    -6.7877885959433e-05
 270    2.8931745572412e-05
 271    0.0030545331947715
 272    1.3652598008697e-05
 273    -0.00017133977990079
 274    0.00024276070618933
 275    0.0023921001295842
 276    0.00073046033435145
 277    -0.0029863267223717
 278    1.2328968559288e-05
 279    -0.00030290059015521
 280    0.00014739113700512