[Molden Format]
made by pyscf v[2.0.1]
[Atoms] (AU)
C   1   6     0.69100024066471     0.64692934207205    -3.48223131169301
H   2   1     2.68052439830868     1.13355088658700    -3.25784032593313
C   3   6    -0.36286361513219     0.85440132524594    -5.97030179418974
H   4   1    -2.35448549047279     0.36322488579172    -6.17995817793143
C   5   6     0.93697958957450     1.61209284601821    -8.05828437677121
H   6   1     1.03927160684768     3.62047501567417    -8.50199621914587
C   7   6     2.20035018302409    -0.10258413888539    -9.73758817852609
H   8   1     2.08224949102462    -2.10886499715255    -9.26789512642378
H   9   1     1.55630230933075    -1.92953025305990    12.99630010416247
C   10   6     0.75233899775814    -2.21270439606481    11.10705728102219
H   11   1    -0.43433408177274    -3.90944857546550    11.22216085340412
C   12   6     2.86362581178706    -2.63237380607947     9.17926416456045
H   13   1     4.39038949912609    -1.24955421540245     9.49899813497433
H   14   1     3.74629220191363    -4.48798724300892     9.47414880959024
C   15   6     2.02478325613682    -2.42177285709634     6.44560829588644
C   16   6     3.88048732735477    -3.58795445234514     4.61402886975252
C   17   6    -0.18412382258602    -1.30464291234259     5.76021113872346
C   18   6    -2.10044360464350    -0.26837831858460     7.71610340967100
C   19   6    -3.08956938670431     2.35282328359417     6.88693925039594
C   20   6    -4.37372924086464    -2.09766595989678     7.93610724222001
C   21   6    -0.83850430601230     0.06372213486173    10.33002307638377
H   22   1     0.38411922151109     1.74281358582432    10.27380136542181
H   23   1    -2.30980003007874     0.45460143924521    11.73986301809809
H   24   1     4.58527064644668    -5.38706904487420     5.36778158031719
H   25   1     5.54944938085014    -2.37631462192748     4.35398898413318
H   26   1     3.06633019150423    -3.94118377050688     2.75255466040884
H   27   1    -4.17727778763735     2.26573369139522     5.12914900961283
H   28   1    -1.52662344944051     3.68001877445626     6.59540397144508
H   29   1    -4.32916174397830     3.13643051467482     8.35225460090378
H   30   1    -5.32329548508442    -2.36691813602939     6.11583672749896
H   31   1    -5.77989366602257    -1.33896741843465     9.25748940450990
H   32   1    -3.79310905208926    -3.96389819310853     8.61386170102686
C   33   6    -1.01100794811226    -1.06331657314144     3.11929490449947
C   34   6     0.37686231036534    -0.33275864505552     1.09165013605873
H   35   1    -3.01671213906703    -1.40297922279997     2.77827895090944
C   36   6    -0.64382707979370    -0.11591880174385    -1.42063131251064
H   37   1     2.35569259782137     0.17174499283897     1.33641070251401
H   38   1    -2.63317482980319    -0.60229203511219    -1.66119700387645
C   39   6     3.51308281939799     0.56451683374771   -11.83721740116087
C   40   6     4.73454985947753    -1.32827425009098   -13.42856361339847
H   41   1     3.70368628307445     2.52946227119814   -12.41204614817202
O   42   8     5.94050384923934    -0.86285538356078   -15.33903067176323
H   43   1     4.49094488416901    -3.31470750932465   -12.76908014850535
[GTO]
1 0
 s    6 1.00
             3047.5249  0.0018347001629433
             457.36951    0.01403730124668
             103.94869   0.068842606114048
             29.210155    0.23218442062076
              9.286663    0.46794134155879
              3.163927    0.36231203217765
 s    3 1.00
             7.8682724   -0.11933240861517
             1.8812885   -0.16085421161283
             0.5442493     1.1434564825515
 s    1 1.00
             0.1687144                   1
 p    3 1.00
             7.8682724   0.068999095584993
             1.8812885    0.31642397975315
             0.5442493    0.74430825237435
 p    1 1.00
             0.1687144                   1
 d    1 1.00
                   0.8                   1

2 0
 s    3 1.00
             18.731137    0.03349459952309
             2.8253937    0.23472694665786
             0.6401217    0.81375731841339
 s    1 1.00
             0.1612778                   1

3 0
 s    6 1.00
             3047.5249  0.0018347001629433
             457.36951    0.01403730124668
             103.94869   0.068842606114048
             29.210155    0.23218442062076
              9.286663    0.46794134155879
              3.163927    0.36231203217765
 s    3 1.00
             7.8682724   -0.11933240861517
             1.8812885   -0.16085421161283
             0.5442493     1.1434564825515
 s    1 1.00
             0.1687144                   1
 p    3 1.00
             7.8682724   0.068999095584993
             1.8812885    0.31642397975315
             0.5442493    0.74430825237435
 p    1 1.00
             0.1687144                   1
 d    1 1.00
                   0.8                   1

4 0
 s    3 1.00
             18.731137    0.03349459952309
             2.8253937    0.23472694665786
             0.6401217    0.81375731841339
 s    1 1.00
             0.1612778                   1

5 0
 s    6 1.00
             3047.5249  0.0018347001629433
             457.36951    0.01403730124668
             103.94869   0.068842606114048
             29.210155    0.23218442062076
              9.286663    0.46794134155879
              3.163927    0.36231203217765
 s    3 1.00
             7.8682724   -0.11933240861517
             1.8812885   -0.16085421161283
             0.5442493     1.1434564825515
 s    1 1.00
             0.1687144                   1
 p    3 1.00
             7.8682724   0.068999095584993
             1.8812885    0.31642397975315
             0.5442493    0.74430825237435
 p    1 1.00
             0.1687144                   1
 d    1 1.00
                   0.8                   1

6 0
 s    3 1.00
             18.731137    0.03349459952309
             2.8253937    0.23472694665786
             0.6401217    0.81375731841339
 s    1 1.00
             0.1612778                   1

7 0
 s    6 1.00
             3047.5249  0.0018347001629433
             457.36951    0.01403730124668
             103.94869   0.068842606114048
             29.210155    0.23218442062076
              9.286663    0.46794134155879
              3.163927    0.36231203217765
 s    3 1.00
             7.8682724   -0.11933240861517
             1.8812885   -0.16085421161283
             0.5442493     1.1434564825515
 s    1 1.00
             0.1687144                   1
 p    3 1.00
             7.8682724   0.068999095584993
             1.8812885    0.31642397975315
             0.5442493    0.74430825237435
 p    1 1.00
             0.1687144                   1
 d    1 1.00
                   0.8                   1

8 0
 s    3 1.00
             18.731137    0.03349459952309
             2.8253937    0.23472694665786
             0.6401217    0.81375731841339
 s    1 1.00
             0.1612778                   1

9 0
 s    3 1.00
             18.731137    0.03349459952309
             2.8253937    0.23472694665786
             0.6401217    0.81375731841339
 s    1 1.00
             0.1612778                   1

10 0
 s    6 1.00
             3047.5249  0.0018347001629433
             457.36951    0.01403730124668
             103.94869   0.068842606114048
             29.210155    0.23218442062076
              9.286663    0.46794134155879
              3.163927    0.36231203217765
 s    3 1.00
             7.8682724   -0.11933240861517
             1.8812885   -0.16085421161283
             0.5442493     1.1434564825515
 s    1 1.00
             0.1687144                   1
 p    3 1.00
             7.8682724   0.068999095584993
             1.8812885    0.31642397975315
             0.5442493    0.74430825237435
 p    1 1.00
             0.1687144                   1
 d    1 1.00
                   0.8                   1

11 0
 s    3 1.00
             18.731137    0.03349459952309
             2.8253937    0.23472694665786
             0.6401217    0.81375731841339
 s    1 1.00
             0.1612778                   1

12 0
 s    6 1.00
             3047.5249  0.0018347001629433
             457.36951    0.01403730124668
             103.94869   0.068842606114048
             29.210155    0.23218442062076
              9.286663    0.46794134155879
              3.163927    0.36231203217765
 s    3 1.00
             7.8682724   -0.11933240861517
             1.8812885   -0.16085421161283
             0.5442493     1.1434564825515
 s    1 1.00
             0.1687144                   1
 p    3 1.00
             7.8682724   0.068999095584993
             1.8812885    0.31642397975315
             0.5442493    0.74430825237435
 p    1 1.00
             0.1687144                   1
 d    1 1.00
                   0.8                   1

13 0
 s    3 1.00
             18.731137    0.03349459952309
             2.8253937    0.23472694665786
             0.6401217    0.81375731841339
 s    1 1.00
             0.1612778                   1

14 0
 s    3 1.00
             18.731137    0.03349459952309
             2.8253937    0.23472694665786
             0.6401217    0.81375731841339
 s    1 1.00
             0.1612778                   1

15 0
 s    6 1.00
             3047.5249  0.0018347001629433
             457.36951    0.01403730124668
             103.94869   0.068842606114048
             29.210155    0.23218442062076
              9.286663    0.46794134155879
              3.163927    0.36231203217765
 s    3 1.00
             7.8682724   -0.11933240861517
             1.8812885   -0.16085421161283
             0.5442493     1.1434564825515
 s    1 1.00
             0.1687144                   1
 p    3 1.00
             7.8682724   0.068999095584993
             1.8812885    0.31642397975315
             0.5442493    0.74430825237435
 p    1 1.00
             0.1687144                   1
 d    1 1.00
                   0.8                   1

16 0
 s    6 1.00
             3047.5249  0.0018347001629433
             457.36951    0.01403730124668
             103.94869   0.068842606114048
             29.210155    0.23218442062076
              9.286663    0.46794134155879
              3.163927    0.36231203217765
 s    3 1.00
             7.8682724   -0.11933240861517
             1.8812885   -0.16085421161283
             0.5442493     1.1434564825515
 s    1 1.00
             0.1687144                   1
 p    3 1.00
             7.8682724   0.068999095584993
             1.8812885    0.31642397975315
             0.5442493    0.74430825237435
 p    1 1.00
             0.1687144                   1
 d    1 1.00
                   0.8                   1

17 0
 s    6 1.00
             3047.5249  0.0018347001629433
             457.36951    0.01403730124668
             103.94869   0.068842606114048
             29.210155    0.23218442062076
              9.286663    0.46794134155879
              3.163927    0.36231203217765
 s    3 1.00
             7.8682724   -0.11933240861517
             1.8812885   -0.16085421161283
             0.5442493     1.1434564825515
 s    1 1.00
             0.1687144                   1
 p    3 1.00
             7.8682724   0.068999095584993
             1.8812885    0.31642397975315
             0.5442493    0.74430825237435
 p    1 1.00
             0.1687144                   1
 d    1 1.00
                   0.8                   1

18 0
 s    6 1.00
             3047.5249  0.0018347001629433
             457.36951    0.01403730124668
             103.94869   0.068842606114048
             29.210155    0.23218442062076
              9.286663    0.46794134155879
              3.163927    0.36231203217765
 s    3 1.00
             7.8682724   -0.11933240861517
             1.8812885   -0.16085421161283
             0.5442493     1.1434564825515
 s    1 1.00
             0.1687144                   1
 p    3 1.00
             7.8682724   0.068999095584993
             1.8812885    0.31642397975315
             0.5442493    0.74430825237435
 p    1 1.00
             0.1687144                   1
 d    1 1.00
                   0.8                   1

19 0
 s    6 1.00
             3047.5249  0.0018347001629433
             457.36951    0.01403730124668
             103.94869   0.068842606114048
             29.210155    0.23218442062076
              9.286663    0.46794134155879
              3.163927    0.36231203217765
 s    3 1.00
             7.8682724   -0.11933240861517
             1.8812885   -0.16085421161283
             0.5442493     1.1434564825515
 s    1 1.00
             0.1687144                   1
 p    3 1.00
             7.8682724   0.068999095584993
             1.8812885    0.31642397975315
             0.5442493    0.74430825237435
 p    1 1.00
             0.1687144                   1
 d    1 1.00
                   0.8                   1

20 0
 s    6 1.00
             3047.5249  0.0018347001629433
             457.36951    0.01403730124668
             103.94869   0.068842606114048
             29.210155    0.23218442062076
              9.286663    0.46794134155879
              3.163927    0.36231203217765
 s    3 1.00
             7.8682724   -0.11933240861517
             1.8812885   -0.16085421161283
             0.5442493     1.1434564825515
 s    1 1.00
             0.1687144                   1
 p    3 1.00
             7.8682724   0.068999095584993
             1.8812885    0.31642397975315
             0.5442493    0.74430825237435
 p    1 1.00
             0.1687144                   1
 d    1 1.00
                   0.8                   1

21 0
 s    6 1.00
             3047.5249  0.0018347001629433
             457.36951    0.01403730124668
             103.94869   0.068842606114048
             29.210155    0.23218442062076
              9.286663    0.46794134155879
              3.163927    0.36231203217765
 s    3 1.00
             7.8682724   -0.11933240861517
             1.8812885   -0.16085421161283
             0.5442493     1.1434564825515
 s    1 1.00
             0.1687144                   1
 p    3 1.00
             7.8682724   0.068999095584993
             1.8812885    0.31642397975315
             0.5442493    0.74430825237435
 p    1 1.00
             0.1687144                   1
 d    1 1.00
                   0.8                   1

22 0
 s    3 1.00
             18.731137    0.03349459952309
             2.8253937    0.23472694665786
             0.6401217    0.81375731841339
 s    1 1.00
             0.1612778                   1

23 0
 s    3 1.00
             18.731137    0.03349459952309
             2.8253937    0.23472694665786
             0.6401217    0.81375731841339
 s    1 1.00
             0.1612778                   1

24 0
 s    3 1.00
             18.731137    0.03349459952309
             2.8253937    0.23472694665786
             0.6401217    0.81375731841339
 s    1 1.00
             0.1612778                   1

25 0
 s    3 1.00
             18.731137    0.03349459952309
             2.8253937    0.23472694665786
             0.6401217    0.81375731841339
 s    1 1.00
             0.1612778                   1

26 0
 s    3 1.00
             18.731137    0.03349459952309
             2.8253937    0.23472694665786
             0.6401217    0.81375731841339
 s    1 1.00
             0.1612778                   1

27 0
 s    3 1.00
             18.731137    0.03349459952309
             2.8253937    0.23472694665786
             0.6401217    0.81375731841339
 s    1 1.00
             0.1612778                   1

28 0
 s    3 1.00
             18.731137    0.03349459952309
             2.8253937    0.23472694665786
             0.6401217    0.81375731841339
 s    1 1.00
             0.1612778                   1

29 0
 s    3 1.00
             18.731137    0.03349459952309
             2.8253937    0.23472694665786
             0.6401217    0.81375731841339
 s    1 1.00
             0.1612778                   1

30 0
 s    3 1.00
             18.731137    0.03349459952309
             2.8253937    0.23472694665786
             0.6401217    0.81375731841339
 s    1 1.00
             0.1612778                   1

31 0
 s    3 1.00
             18.731137    0.03349459952309
             2.8253937    0.23472694665786
             0.6401217    0.81375731841339
 s    1 1.00
             0.1612778                   1

32 0
 s    3 1.00
             18.731137    0.03349459952309
             2.8253937    0.23472694665786
             0.6401217    0.81375731841339
 s    1 1.00
             0.1612778                   1

33 0
 s    6 1.00
             3047.5249  0.0018347001629433
             457.36951    0.01403730124668
             103.94869   0.068842606114048
             29.210155    0.23218442062076
              9.286663    0.46794134155879
              3.163927    0.36231203217765
 s    3 1.00
             7.8682724   -0.11933240861517
             1.8812885   -0.16085421161283
             0.5442493     1.1434564825515
 s    1 1.00
             0.1687144                   1
 p    3 1.00
             7.8682724   0.068999095584993
             1.8812885    0.31642397975315
             0.5442493    0.74430825237435
 p    1 1.00
             0.1687144                   1
 d    1 1.00
                   0.8                   1

34 0
 s    6 1.00
             3047.5249  0.0018347001629433
             457.36951    0.01403730124668
             103.94869   0.068842606114048
             29.210155    0.23218442062076
              9.286663    0.46794134155879
              3.163927    0.36231203217765
 s    3 1.00
             7.8682724   -0.11933240861517
             1.8812885   -0.16085421161283
             0.5442493     1.1434564825515
 s    1 1.00
             0.1687144                   1
 p    3 1.00
             7.8682724   0.068999095584993
             1.8812885    0.31642397975315
             0.5442493    0.74430825237435
 p    1 1.00
             0.1687144                   1
 d    1 1.00
                   0.8                   1

35 0
 s    3 1.00
             18.731137    0.03349459952309
             2.8253937    0.23472694665786
             0.6401217    0.81375731841339
 s    1 1.00
             0.1612778                   1

36 0
 s    6 1.00
             3047.5249  0.0018347001629433
             457.36951    0.01403730124668
             103.94869   0.068842606114048
             29.210155    0.23218442062076
              9.286663    0.46794134155879
              3.163927    0.36231203217765
 s    3 1.00
             7.8682724   -0.11933240861517
             1.8812885   -0.16085421161283
             0.5442493     1.1434564825515
 s    1 1.00
             0.1687144                   1
 p    3 1.00
             7.8682724   0.068999095584993
             1.8812885    0.31642397975315
             0.5442493    0.74430825237435
 p    1 1.00
             0.1687144                   1
 d    1 1.00
                   0.8                   1

37 0
 s    3 1.00
             18.731137    0.03349459952309
             2.8253937    0.23472694665786
             0.6401217    0.81375731841339
 s    1 1.00
             0.1612778                   1

38 0
 s    3 1.00
             18.731137    0.03349459952309
             2.8253937    0.23472694665786
             0.6401217    0.81375731841339
 s    1 1.00
             0.1612778                   1

39 0
 s    6 1.00
             3047.5249  0.0018347001629433
             457.36951    0.01403730124668
             103.94869   0.068842606114048
             29.210155    0.23218442062076
              9.286663    0.46794134155879
              3.163927    0.36231203217765
 s    3 1.00
             7.8682724   -0.11933240861517
             1.8812885   -0.16085421161283
             0.5442493     1.1434564825515
 s    1 1.00
             0.1687144                   1
 p    3 1.00
             7.8682724   0.068999095584993
             1.8812885    0.31642397975315
             0.5442493    0.74430825237435
 p    1 1.00
             0.1687144                   1
 d    1 1.00
                   0.8                   1

40 0
 s    6 1.00
             3047.5249  0.0018347001629433
             457.36951    0.01403730124668
             103.94869   0.068842606114048
             29.210155    0.23218442062076
              9.286663    0.46794134155879
              3.163927    0.36231203217765
 s    3 1.00
             7.8682724   -0.11933240861517
             1.8812885   -0.16085421161283
             0.5442493     1.1434564825515
 s    1 1.00
             0.1687144                   1
 p    3 1.00
             7.8682724   0.068999095584993
             1.8812885    0.31642397975315
             0.5442493    0.74430825237435
 p    1 1.00
             0.1687144                   1
 d    1 1.00
                   0.8                   1

41 0
 s    3 1.00
             18.731137    0.03349459952309
             2.8253937    0.23472694665786
             0.6401217    0.81375731841339
 s    1 1.00
             0.1612778                   1

42 0
 s    6 1.00
             5484.6717   0.001831099805527
             825.23495   0.013950098518422
             188.04696    0.06844509273075
               52.9645    0.23271427528445
              16.89757    0.47019295006289
             5.7996353    0.35852086192309
 s    3 1.00
             15.539616   -0.11077750382508
             3.5999336   -0.14802630511126
             1.0137618     1.1307670390447
 s    1 1.00
             0.2700058                   1
 p    3 1.00
             15.539616   0.070874299543311
             3.5999336    0.33975279781076
             1.0137618    0.72715859531445
 p    1 1.00
             0.2700058                   1
 d    1 1.00
                   0.8                   1

43 0
 s    3 1.00
             18.731137    0.03349459952309
             2.8253937    0.23472694665786
             0.6401217    0.81375731841339
 s    1 1.00
             0.1612778                   1

[5d]
[7f]
[9g]

[MO]
 Sym= A
 Ene=               0
 Spin= Alpha
 Occup=    1.00000
   1    -5.0752435690241e-07
   2    -2.119089161706e-05
   3    -1.4896553633386e-06
   4    -7.990290819158e-07
   5    -1.3397808296687e-05
   6    2.0586789009928e-05
   7    3.3393230056628e-05
   8    8.8783859047541e-05
   9    -0.0003696685733612
  10    6.8777036259244e-07
  11    1.0494895972393e-05
  12    2.145196453174e-06
  13    1.3478286615087e-05
  14    -7.4401583696355e-06
  15    -1.4928168343887e-05
  16    1.5601338198448e-05
  17    5.1419380537367e-06
  18    0.00016377306161761
  19    0.00042632181388641
  20    5.8853033583254e-05
  21    -2.7346777256639e-06
  22    -7.8293450845244e-05
  23    0.0001690280762463
  24    -0.00010063231066817
  25    -0.00060510773276393
  26    1.8883103094534e-05
  27    -2.193641458692e-05
  28    8.8483828073898e-06
  29    4.0651571689012e-05
  30    -1.32559410487e-06
  31    -9.7008106041129e-06
  32    3.2241586076827e-05
  33    7.6574613729203e-05
  34    0.00028408136092049
  35    -0.0043591965345362
  36    -0.0001149490187465
  37    7.9047885278212e-05
  38    0.00020681706642846
  39    -0.00048461983714601
  40    0.0019031760549226
  41    0.0005313062127291
  42    -2.2523515169382e-05
  43    0.00010497512045026
  44    -6.5816592622384e-05
  45    2.7899078734984e-05
  46    5.3932537495313e-05
  47    -1.0145177480766e-05
  48    -0.00024914622875237
  49    -5.3647941609735e-05
  50    0.00030774942542297
  51    0.0035973385080252
  52    0.00029565712697059
  53    -0.00033701124745641
  54    -0.00042372796998319
  55    -0.0016463199954259
  56    0.0024621871166024
  57    0.0021442641455194
  58    -2.1407336288465e-05
  59    3.1553039036371e-05
  60    0.00017931227703943
  61    2.1517813355437e-05
  62    -0.00011301580055691
  63    0.00039400542967224
  64    0.00013612081206048
  65    -2.3213349719082e-07
  66    -4.7130324851181e-07
  67    -6.2488611136289e-08
  68    -4.9877989203032e-07
  69    2.8676310810926e-06
  70    3.0688371644167e-07
  71    -3.9649695362771e-07
  72    9.2046630825575e-08
  73    3.4973122224436e-07
  74    1.2771158221569e-06
  75    2.402624503155e-07
  76    -4.9510703803566e-08
  77    -1.2754477791485e-07
  78    4.7216217763196e-08
  79    6.5717503269451e-08
  80    -1.0566204893784e-07
  81    8.7741070366917e-08
  82    -2.4879750160095e-08
  83    -2.615769060652e-08
  84    -1.1252401278569e-07
  85    -1.2455346540378e-05
  86    5.5432591047529e-07
  87    5.9645314039125e-08
  88    6.8595331983819e-07
  89    3.2856114217966e-06
  90    -4.4383904278897e-06
  91    2.7275228252827e-06
  92    1.875918483279e-07
  93    -3.1608683980476e-07
  94    2.8845085576657e-07
  95    2.206348420728e-08
  96    -1.9458491430604e-07
  97    3.6816846650347e-07
  98    -7.6642010018256e-09
  99    1.348963596327e-07
 100    -6.435043369885e-07
 101    4.4718825729871e-08
 102    -1.1598049517334e-06
 103    1.3070303336124e-05
 104    1.1109738041821e-06
 105    2.4054519794673e-07
 106    -5.2251620193808e-07
 107    -1.8395476281794e-05
 108    1.8997320696329e-05
 109    2.9401635582543e-05
 110    -5.596207147162e-07
 111    -5.0003624874931e-07
 112    2.4501435302353e-07
 113    3.8680207947386e-07
 114    -4.8769846385026e-07
 115    -5.0835305259364e-07
 116    -4.3691215165162e-06
 117    3.5896251901144e-05
 118    -6.8813707798582e-07
 119    1.0581199594552e-06
 120    6.0686689119621e-07
 121    -8.2631817245787e-06
 122    9.0027735485639e-07
 123    2.6919772472085e-06
 124    -5.8862796461623e-08
 125    -1.6966535927269e-07
 126    -9.143626829905e-08
 127    5.2865137559607e-08
 128    -3.7954518017548e-07
 129    -8.4977176287199e-07
 130    -8.7536644998265e-06
 131    4.9419899885156e-05
 132    -2.1203682132628e-07
 133    -1.3662108050992e-06
 134    3.6211036948442e-06
 135    -2.485227131648e-05
 136    -6.3325277261928e-08
 137    -7.8891419078467e-05
 138    2.4850961541873e-06
 139    1.4600218491698e-06
 140    4.2244081872875e-07
 141    4.4762835837676e-07
 142    1.8589419186017e-07
 143    -5.3193785476042e-07
 144    -3.4139870411104e-06
 145    1.9613348857693e-05
 146    6.1667506648502e-07
 147    5.5516988000312e-07
 148    -2.6420700086313e-08
 149    1.1944990305834e-05
 150    -5.9406845360407e-06
 151    -3.0315017585812e-06
 152    -1.0328471598289e-06
 153    -3.4249069798342e-07
 154    -9.9462240049902e-08
 155    6.743153143674e-07
 156    -7.6118312880419e-07
 157    -1.3966749193104e-08
 158    1.1480507951288e-06
 159    1.0896423035423e-06
 160    7.5927562618362e-07
 161    -3.3599206252562e-07
 162    -2.5281711813103e-07
 163    -6.4927343389948e-06
 164      3.6014103123e-07
 165    8.1980344354561e-07
 166    4.1397621609375e-07
 167    -1.1793320230723e-07
 168    -8.4636247046303e-09
 169    -1.0851318056513e-07
 170    2.8438339296897e-07
 171    7.3061882854457e-08
 172    -5.3852980944335e-07
 173    -1.5684624281465e-06
 174    -8.3565731727564e-07
 175    -2.7009736059375e-07
 176    8.1272316291011e-07
 177    -2.3614293890957e-07
 178    1.3653574308334e-06
 179    -1.884569421523e-06
 180    1.3476322786891e-07
 181    1.7802787149286e-07
 182    1.8705285322517e-08
 183    -3.5439339624656e-07
 184    1.7380443073814e-07
 185    -2.6313845644201e-07
 186    -3.0339829263346e-06
 187    2.0232310046205e-06
 188    -1.4476594655419e-07
 189    1.5145200620275e-07
 190    1.2367542746082e-06
 191    2.6083340282425e-06
 192    7.1721649569566e-07
 193    -5.3093851098973e-06
 194    3.3669636051282e-07
 195    -5.5053315418532e-08
 196    1.805442484098e-07
 197    7.485890835874e-08
 198    -9.9193658246707e-08
 199    -7.9846452957638e-07
 200    -1.4180400488489e-06
 201    1.6788110604884e-07
 202    3.6441174912359e-06
 203    -1.5640345048753e-06
 204    -1.5821175057208e-06
 205    -4.9567089293242e-07
 206    -2.8454823684101e-06
 207    1.3970445313189e-06
 208    -1.1387486449003e-05
 209    1.1683148252991e-06
 210    -4.3331371531911e-06
 211    4.9844150265482e-07
 212    2.7039403747374e-06
 213    -3.9284560220466e-07
 214    -2.7499030291094e-06
 215    -5.8796830143606e-07
 216    5.7868778360604e-07
 217    4.352187729363e-07
 218    1.2876736737106e-06
 219    2.1946982058959e-07
 220    9.3399894270655e-07
 221    -8.8756290107708e-07
 222    -7.7282897676807e-06
 223    -3.5460947779215e-06
 224    1.3839512392347e-06
 225    -3.4475003069671e-06
 226    2.7028701149209e-06
 227    1.3391867637168e-05
 228    2.3153931439129e-05
 229    -9.4668823818928e-05
 230    -1.1631028757784e-06
 231    -3.9918113199211e-06
 232    -2.1494342703389e-06
 233    1.7354838799932e-06
 234    2.837871405553e-06
 235    -8.4197561914083e-07
 236    -1.1533583203449e-05
 237    1.8266451211799e-05
 238    -1.7802532878499e-06
 239    7.0309033757566e-06
 240    5.9168792238361e-06
 241    -2.016886645826e-05
 242    -3.9353191115662e-06
 243    -8.6334901695698e-05
 244    1.6385066719439e-06
 245    6.6432253685791e-06
 246    1.641017907097e-06
 247    2.4442029975037e-06
 248    1.4423623246314e-06
 249    -4.0468334662862e-06
 250     1.04294405051e-05
 251    -4.5172954735935e-06
 252    -2.7449699876385e-05
 253    0.00025628538751484
 254    5.1684685742697e-06
 255    -4.8149329310961e-06
 256    4.3514114893039e-06
 257    0.00011005001660962
 258    0.00010574837184732
 259    -0.00023610904048061
 260    2.0434841309194e-06
 261    -1.219445736815e-05
 262    -4.9640073315615e-06
 263    7.7289868256956e-06
 264    5.7958197337187e-06
 265    -4.8829982645663e-06
 266    2.6650624369773e-05
 267    -8.0203265438845e-06
 268    3.9366644767631e-05
 269    -6.854298081308e-05
 270    2.4354924101179e-05
 271    0.0031106292972366
 272    -0.00010933940115213
 273    -0.0002413883261963
 274    0.00014261045116275
 275    0.0020159952247376
 276    0.00057486622605894
 277    -0.0032158821862874
 278    0.00021398244381084
 279    -0.00021380923177515
 280    0.00014549733181825