[Molden Format]
made by pyscf v[2.0.1]
[Atoms] (AU)
C   1   6     0.69100024066471     0.64692934207205    -3.48223131169301
H   2   1     2.68052439830868     1.13355088658700    -3.25784032593313
C   3   6    -0.36286361513219     0.85440132524594    -5.97030179418974
H   4   1    -2.35448549047279     0.36322488579172    -6.17995817793143
C   5   6     0.93697958957450     1.61209284601821    -8.05828437677121
H   6   1     0.88481995546627     3.59633991549139    -8.60690604548455
C   7   6     2.39466048338875    -0.07229584893402    -9.60563204708460
H   8   1     2.43004158789144    -2.05446799383120    -9.03164251308345
H   9   1     1.55630230933075    -1.92953025305990    12.99630010416247
C   10   6     0.75233899775814    -2.21270439606481    11.10705728102219
H   11   1    -0.43433408177274    -3.90944857546550    11.22216085340412
C   12   6     2.86362581178706    -2.63237380607947     9.17926416456045
H   13   1     4.39038949912609    -1.24955421540245     9.49899813497433
H   14   1     3.74629220191363    -4.48798724300892     9.47414880959024
C   15   6     2.02478325613682    -2.42177285709634     6.44560829588644
C   16   6     3.88048732735477    -3.58795445234514     4.61402886975252
C   17   6    -0.18412382258602    -1.30464291234259     5.76021113872346
C   18   6    -2.10044360464350    -0.26837831858460     7.71610340967100
C   19   6    -3.08956938670431     2.35282328359417     6.88693925039594
C   20   6    -4.37372924086464    -2.09766595989678     7.93610724222001
C   21   6    -0.83850430601230     0.06372213486173    10.33002307638377
H   22   1     0.38411922151109     1.74281358582432    10.27380136542181
H   23   1    -2.30980003007874     0.45460143924521    11.73986301809809
H   24   1     4.58527064644668    -5.38706904487420     5.36778158031719
H   25   1     5.54944938085014    -2.37631462192748     4.35398898413318
H   26   1     3.06633019150423    -3.94118377050688     2.75255466040884
H   27   1    -4.17727778763735     2.26573369139522     5.12914900961283
H   28   1    -1.52662344944051     3.68001877445626     6.59540397144508
H   29   1    -4.32916174397830     3.13643051467482     8.35225460090378
H   30   1    -5.32329548508442    -2.36691813602939     6.11583672749896
H   31   1    -5.77989366602257    -1.33896741843465     9.25748940450990
H   32   1    -3.79310905208926    -3.96389819310853     8.61386170102686
C   33   6    -1.01100794811226    -1.06331657314144     3.11929490449947
C   34   6     0.37686231036534    -0.33275864505552     1.09165013605873
H   35   1    -3.01671213906703    -1.40297922279997     2.77827895090944
C   36   6    -0.64382707979370    -0.11591880174385    -1.42063131251064
H   37   1     2.35569259782137     0.17174499283897     1.33641070251401
H   38   1    -2.63317482980319    -0.60229203511219    -1.66119700387645
C   39   6     3.71533383510959     0.59576232705089   -11.69997054074953
C   40   6     5.14333780052268    -1.26490852400141   -13.15108433486960
H   41   1     3.75910290759049     2.53760054456126   -12.37459410036833
O   42   8     6.36836167706676    -0.79692659131490   -15.04874962161569
H   43   1     5.04579305514285    -3.22830651971947   -12.39231411193817
[GTO]
1 0
 s    6 1.00
             3047.5249  0.0018347001629433
             457.36951    0.01403730124668
             103.94869   0.068842606114048
             29.210155    0.23218442062076
              9.286663    0.46794134155879
              3.163927    0.36231203217765
 s    3 1.00
             7.8682724   -0.11933240861517
             1.8812885   -0.16085421161283
             0.5442493     1.1434564825515
 s    1 1.00
             0.1687144                   1
 p    3 1.00
             7.8682724   0.068999095584993
             1.8812885    0.31642397975315
             0.5442493    0.74430825237435
 p    1 1.00
             0.1687144                   1
 d    1 1.00
                   0.8                   1

2 0
 s    3 1.00
             18.731137    0.03349459952309
             2.8253937    0.23472694665786
             0.6401217    0.81375731841339
 s    1 1.00
             0.1612778                   1

3 0
 s    6 1.00
             3047.5249  0.0018347001629433
             457.36951    0.01403730124668
             103.94869   0.068842606114048
             29.210155    0.23218442062076
              9.286663    0.46794134155879
              3.163927    0.36231203217765
 s    3 1.00
             7.8682724   -0.11933240861517
             1.8812885   -0.16085421161283
             0.5442493     1.1434564825515
 s    1 1.00
             0.1687144                   1
 p    3 1.00
             7.8682724   0.068999095584993
             1.8812885    0.31642397975315
             0.5442493    0.74430825237435
 p    1 1.00
             0.1687144                   1
 d    1 1.00
                   0.8                   1

4 0
 s    3 1.00
             18.731137    0.03349459952309
             2.8253937    0.23472694665786
             0.6401217    0.81375731841339
 s    1 1.00
             0.1612778                   1

5 0
 s    6 1.00
             3047.5249  0.0018347001629433
             457.36951    0.01403730124668
             103.94869   0.068842606114048
             29.210155    0.23218442062076
              9.286663    0.46794134155879
              3.163927    0.36231203217765
 s    3 1.00
             7.8682724   -0.11933240861517
             1.8812885   -0.16085421161283
             0.5442493     1.1434564825515
 s    1 1.00
             0.1687144                   1
 p    3 1.00
             7.8682724   0.068999095584993
             1.8812885    0.31642397975315
             0.5442493    0.74430825237435
 p    1 1.00
             0.1687144                   1
 d    1 1.00
                   0.8                   1

6 0
 s    3 1.00
             18.731137    0.03349459952309
             2.8253937    0.23472694665786
             0.6401217    0.81375731841339
 s    1 1.00
             0.1612778                   1

7 0
 s    6 1.00
             3047.5249  0.0018347001629433
             457.36951    0.01403730124668
             103.94869   0.068842606114048
             29.210155    0.23218442062076
              9.286663    0.46794134155879
              3.163927    0.36231203217765
 s    3 1.00
             7.8682724   -0.11933240861517
             1.8812885   -0.16085421161283
             0.5442493     1.1434564825515
 s    1 1.00
             0.1687144                   1
 p    3 1.00
             7.8682724   0.068999095584993
             1.8812885    0.31642397975315
             0.5442493    0.74430825237435
 p    1 1.00
             0.1687144                   1
 d    1 1.00
                   0.8                   1

8 0
 s    3 1.00
             18.731137    0.03349459952309
             2.8253937    0.23472694665786
             0.6401217    0.81375731841339
 s    1 1.00
             0.1612778                   1

9 0
 s    3 1.00
             18.731137    0.03349459952309
             2.8253937    0.23472694665786
             0.6401217    0.81375731841339
 s    1 1.00
             0.1612778                   1

10 0
 s    6 1.00
             3047.5249  0.0018347001629433
             457.36951    0.01403730124668
             103.94869   0.068842606114048
             29.210155    0.23218442062076
              9.286663    0.46794134155879
              3.163927    0.36231203217765
 s    3 1.00
             7.8682724   -0.11933240861517
             1.8812885   -0.16085421161283
             0.5442493     1.1434564825515
 s    1 1.00
             0.1687144                   1
 p    3 1.00
             7.8682724   0.068999095584993
             1.8812885    0.31642397975315
             0.5442493    0.74430825237435
 p    1 1.00
             0.1687144                   1
 d    1 1.00
                   0.8                   1

11 0
 s    3 1.00
             18.731137    0.03349459952309
             2.8253937    0.23472694665786
             0.6401217    0.81375731841339
 s    1 1.00
             0.1612778                   1

12 0
 s    6 1.00
             3047.5249  0.0018347001629433
             457.36951    0.01403730124668
             103.94869   0.068842606114048
             29.210155    0.23218442062076
              9.286663    0.46794134155879
              3.163927    0.36231203217765
 s    3 1.00
             7.8682724   -0.11933240861517
             1.8812885   -0.16085421161283
             0.5442493     1.1434564825515
 s    1 1.00
             0.1687144                   1
 p    3 1.00
             7.8682724   0.068999095584993
             1.8812885    0.31642397975315
             0.5442493    0.74430825237435
 p    1 1.00
             0.1687144                   1
 d    1 1.00
                   0.8                   1

13 0
 s    3 1.00
             18.731137    0.03349459952309
             2.8253937    0.23472694665786
             0.6401217    0.81375731841339
 s    1 1.00
             0.1612778                   1

14 0
 s    3 1.00
             18.731137    0.03349459952309
             2.8253937    0.23472694665786
             0.6401217    0.81375731841339
 s    1 1.00
             0.1612778                   1

15 0
 s    6 1.00
             3047.5249  0.0018347001629433
             457.36951    0.01403730124668
             103.94869   0.068842606114048
             29.210155    0.23218442062076
              9.286663    0.46794134155879
              3.163927    0.36231203217765
 s    3 1.00
             7.8682724   -0.11933240861517
             1.8812885   -0.16085421161283
             0.5442493     1.1434564825515
 s    1 1.00
             0.1687144                   1
 p    3 1.00
             7.8682724   0.068999095584993
             1.8812885    0.31642397975315
             0.5442493    0.74430825237435
 p    1 1.00
             0.1687144                   1
 d    1 1.00
                   0.8                   1

16 0
 s    6 1.00
             3047.5249  0.0018347001629433
             457.36951    0.01403730124668
             103.94869   0.068842606114048
             29.210155    0.23218442062076
              9.286663    0.46794134155879
              3.163927    0.36231203217765
 s    3 1.00
             7.8682724   -0.11933240861517
             1.8812885   -0.16085421161283
             0.5442493     1.1434564825515
 s    1 1.00
             0.1687144                   1
 p    3 1.00
             7.8682724   0.068999095584993
             1.8812885    0.31642397975315
             0.5442493    0.74430825237435
 p    1 1.00
             0.1687144                   1
 d    1 1.00
                   0.8                   1

17 0
 s    6 1.00
             3047.5249  0.0018347001629433
             457.36951    0.01403730124668
             103.94869   0.068842606114048
             29.210155    0.23218442062076
              9.286663    0.46794134155879
              3.163927    0.36231203217765
 s    3 1.00
             7.8682724   -0.11933240861517
             1.8812885   -0.16085421161283
             0.5442493     1.1434564825515
 s    1 1.00
             0.1687144                   1
 p    3 1.00
             7.8682724   0.068999095584993
             1.8812885    0.31642397975315
             0.5442493    0.74430825237435
 p    1 1.00
             0.1687144                   1
 d    1 1.00
                   0.8                   1

18 0
 s    6 1.00
             3047.5249  0.0018347001629433
             457.36951    0.01403730124668
             103.94869   0.068842606114048
             29.210155    0.23218442062076
              9.286663    0.46794134155879
              3.163927    0.36231203217765
 s    3 1.00
             7.8682724   -0.11933240861517
             1.8812885   -0.16085421161283
             0.5442493     1.1434564825515
 s    1 1.00
             0.1687144                   1
 p    3 1.00
             7.8682724   0.068999095584993
             1.8812885    0.31642397975315
             0.5442493    0.74430825237435
 p    1 1.00
             0.1687144                   1
 d    1 1.00
                   0.8                   1

19 0
 s    6 1.00
             3047.5249  0.0018347001629433
             457.36951    0.01403730124668
             103.94869   0.068842606114048
             29.210155    0.23218442062076
              9.286663    0.46794134155879
              3.163927    0.36231203217765
 s    3 1.00
             7.8682724   -0.11933240861517
             1.8812885   -0.16085421161283
             0.5442493     1.1434564825515
 s    1 1.00
             0.1687144                   1
 p    3 1.00
             7.8682724   0.068999095584993
             1.8812885    0.31642397975315
             0.5442493    0.74430825237435
 p    1 1.00
             0.1687144                   1
 d    1 1.00
                   0.8                   1

20 0
 s    6 1.00
             3047.5249  0.0018347001629433
             457.36951    0.01403730124668
             103.94869   0.068842606114048
             29.210155    0.23218442062076
              9.286663    0.46794134155879
              3.163927    0.36231203217765
 s    3 1.00
             7.8682724   -0.11933240861517
             1.8812885   -0.16085421161283
             0.5442493     1.1434564825515
 s    1 1.00
             0.1687144                   1
 p    3 1.00
             7.8682724   0.068999095584993
             1.8812885    0.31642397975315
             0.5442493    0.74430825237435
 p    1 1.00
             0.1687144                   1
 d    1 1.00
                   0.8                   1

21 0
 s    6 1.00
             3047.5249  0.0018347001629433
             457.36951    0.01403730124668
             103.94869   0.068842606114048
             29.210155    0.23218442062076
              9.286663    0.46794134155879
              3.163927    0.36231203217765
 s    3 1.00
             7.8682724   -0.11933240861517
             1.8812885   -0.16085421161283
             0.5442493     1.1434564825515
 s    1 1.00
             0.1687144                   1
 p    3 1.00
             7.8682724   0.068999095584993
             1.8812885    0.31642397975315
             0.5442493    0.74430825237435
 p    1 1.00
             0.1687144                   1
 d    1 1.00
                   0.8                   1

22 0
 s    3 1.00
             18.731137    0.03349459952309
             2.8253937    0.23472694665786
             0.6401217    0.81375731841339
 s    1 1.00
             0.1612778                   1

23 0
 s    3 1.00
             18.731137    0.03349459952309
             2.8253937    0.23472694665786
             0.6401217    0.81375731841339
 s    1 1.00
             0.1612778                   1

24 0
 s    3 1.00
             18.731137    0.03349459952309
             2.8253937    0.23472694665786
             0.6401217    0.81375731841339
 s    1 1.00
             0.1612778                   1

25 0
 s    3 1.00
             18.731137    0.03349459952309
             2.8253937    0.23472694665786
             0.6401217    0.81375731841339
 s    1 1.00
             0.1612778                   1

26 0
 s    3 1.00
             18.731137    0.03349459952309
             2.8253937    0.23472694665786
             0.6401217    0.81375731841339
 s    1 1.00
             0.1612778                   1

27 0
 s    3 1.00
             18.731137    0.03349459952309
             2.8253937    0.23472694665786
             0.6401217    0.81375731841339
 s    1 1.00
             0.1612778                   1

28 0
 s    3 1.00
             18.731137    0.03349459952309
             2.8253937    0.23472694665786
             0.6401217    0.81375731841339
 s    1 1.00
             0.1612778                   1

29 0
 s    3 1.00
             18.731137    0.03349459952309
             2.8253937    0.23472694665786
             0.6401217    0.81375731841339
 s    1 1.00
             0.1612778                   1

30 0
 s    3 1.00
             18.731137    0.03349459952309
             2.8253937    0.23472694665786
             0.6401217    0.81375731841339
 s    1 1.00
             0.1612778                   1

31 0
 s    3 1.00
             18.731137    0.03349459952309
             2.8253937    0.23472694665786
             0.6401217    0.81375731841339
 s    1 1.00
             0.1612778                   1

32 0
 s    3 1.00
             18.731137    0.03349459952309
             2.8253937    0.23472694665786
             0.6401217    0.81375731841339
 s    1 1.00
             0.1612778                   1

33 0
 s    6 1.00
             3047.5249  0.0018347001629433
             457.36951    0.01403730124668
             103.94869   0.068842606114048
             29.210155    0.23218442062076
              9.286663    0.46794134155879
              3.163927    0.36231203217765
 s    3 1.00
             7.8682724   -0.11933240861517
             1.8812885   -0.16085421161283
             0.5442493     1.1434564825515
 s    1 1.00
             0.1687144                   1
 p    3 1.00
             7.8682724   0.068999095584993
             1.8812885    0.31642397975315
             0.5442493    0.74430825237435
 p    1 1.00
             0.1687144                   1
 d    1 1.00
                   0.8                   1

34 0
 s    6 1.00
             3047.5249  0.0018347001629433
             457.36951    0.01403730124668
             103.94869   0.068842606114048
             29.210155    0.23218442062076
              9.286663    0.46794134155879
              3.163927    0.36231203217765
 s    3 1.00
             7.8682724   -0.11933240861517
             1.8812885   -0.16085421161283
             0.5442493     1.1434564825515
 s    1 1.00
             0.1687144                   1
 p    3 1.00
             7.8682724   0.068999095584993
             1.8812885    0.31642397975315
             0.5442493    0.74430825237435
 p    1 1.00
             0.1687144                   1
 d    1 1.00
                   0.8                   1

35 0
 s    3 1.00
             18.731137    0.03349459952309
             2.8253937    0.23472694665786
             0.6401217    0.81375731841339
 s    1 1.00
             0.1612778                   1

36 0
 s    6 1.00
             3047.5249  0.0018347001629433
             457.36951    0.01403730124668
             103.94869   0.068842606114048
             29.210155    0.23218442062076
              9.286663    0.46794134155879
              3.163927    0.36231203217765
 s    3 1.00
             7.8682724   -0.11933240861517
             1.8812885   -0.16085421161283
             0.5442493     1.1434564825515
 s    1 1.00
             0.1687144                   1
 p    3 1.00
             7.8682724   0.068999095584993
             1.8812885    0.31642397975315
             0.5442493    0.74430825237435
 p    1 1.00
             0.1687144                   1
 d    1 1.00
                   0.8                   1

37 0
 s    3 1.00
             18.731137    0.03349459952309
             2.8253937    0.23472694665786
             0.6401217    0.81375731841339
 s    1 1.00
             0.1612778                   1

38 0
 s    3 1.00
             18.731137    0.03349459952309
             2.8253937    0.23472694665786
             0.6401217    0.81375731841339
 s    1 1.00
             0.1612778                   1

39 0
 s    6 1.00
             3047.5249  0.0018347001629433
             457.36951    0.01403730124668
             103.94869   0.068842606114048
             29.210155    0.23218442062076
              9.286663    0.46794134155879
              3.163927    0.36231203217765
 s    3 1.00
             7.8682724   -0.11933240861517
             1.8812885   -0.16085421161283
             0.5442493     1.1434564825515
 s    1 1.00
             0.1687144                   1
 p    3 1.00
             7.8682724   0.068999095584993
             1.8812885    0.31642397975315
             0.5442493    0.74430825237435
 p    1 1.00
             0.1687144                   1
 d    1 1.00
                   0.8                   1

40 0
 s    6 1.00
             3047.5249  0.0018347001629433
             457.36951    0.01403730124668
             103.94869   0.068842606114048
             29.210155    0.23218442062076
              9.286663    0.46794134155879
              3.163927    0.36231203217765
 s    3 1.00
             7.8682724   -0.11933240861517
             1.8812885   -0.16085421161283
             0.5442493     1.1434564825515
 s    1 1.00
             0.1687144                   1
 p    3 1.00
             7.8682724   0.068999095584993
             1.8812885    0.31642397975315
             0.5442493    0.74430825237435
 p    1 1.00
             0.1687144                   1
 d    1 1.00
                   0.8                   1

41 0
 s    3 1.00
             18.731137    0.03349459952309
             2.8253937    0.23472694665786
             0.6401217    0.81375731841339
 s    1 1.00
             0.1612778                   1

42 0
 s    6 1.00
             5484.6717   0.001831099805527
             825.23495   0.013950098518422
             188.04696    0.06844509273075
               52.9645    0.23271427528445
              16.89757    0.47019295006289
             5.7996353    0.35852086192309
 s    3 1.00
             15.539616   -0.11077750382508
             3.5999336   -0.14802630511126
             1.0137618     1.1307670390447
 s    1 1.00
             0.2700058                   1
 p    3 1.00
             15.539616   0.070874299543311
             3.5999336    0.33975279781076
             1.0137618    0.72715859531445
 p    1 1.00
             0.2700058                   1
 d    1 1.00
                   0.8                   1

43 0
 s    3 1.00
             18.731137    0.03349459952309
             2.8253937    0.23472694665786
             0.6401217    0.81375731841339
 s    1 1.00
             0.1612778                   1

[5d]
[7f]
[9g]

[MO]
 Sym= A
 Ene=               0
 Spin= Alpha
 Occup=    1.00000
   1    -2.2899374980705e-06
   2    -1.2983931127565e-05
   3    -3.2484862722903e-05
   4    -6.7415713045187e-07
   5    -1.6650081415867e-05
   6    9.7247113618683e-06
   7    4.646959175493e-05
   8    0.00011483998598868
   9    -0.0003614397088296
  10    1.6966945630431e-07
  11    9.8751923795602e-06
  12     1.24800978567e-06
  13    1.3458916335674e-05
  14    -7.6145606389828e-06
  15    -1.4037217966439e-05
  16    7.1064328885727e-06
  17    4.702417489739e-06
  18    0.00016148263250719
  19    0.00044694732929564
  20    6.1161578254859e-05
  21    1.0040514328597e-07
  22    -7.6207666339037e-05
  23    0.00020073243633613
  24    -0.00011323248660709
  25    -0.00056849924439949
  26    2.0805840637304e-05
  27    -2.1504082375189e-05
  28    1.1738303970353e-05
  29    3.8624806416223e-05
  30    2.9629173566333e-06
  31    -1.7642466323184e-05
  32    2.2906258893524e-05
  33    7.6634674902634e-05
  34    0.00028477693243403
  35    -0.0043564763228062
  36    -0.00015512919550764
  37    7.2483857494082e-05
  38    0.00017955334033189
  39    -0.00069725583921722
  40    0.0018788739001965
  41    0.00039554229550249
  42    -1.2571053105854e-05
  43    0.00010809655360315
  44    -5.5178342422317e-05
  45    1.8117291723791e-05
  46    6.6280885447305e-05
  47    -1.1071466135347e-05
  48    -0.00025172108809351
  49    -5.3762744693624e-05
  50    0.00030779875893889
  51    0.0036056733381853
  52    0.00035453454678284
  53    -0.00032783869387074
  54    -0.0003829915727082
  55    -0.0019078007525394
  56    0.0024248604584206
  57    0.0019686988033384
  58    -3.8711068997783e-05
  59    2.3257776114732e-05
  60    0.00017645247019203
  61    3.2055252895128e-05
  62    -0.00011231430818397
  63    0.0003942216763924
  64    0.00013630439158349
  65    -2.248678332937e-07
  66    -5.1099714132859e-07
  67    -6.7891554935531e-08
  68    -4.7486376979583e-07
  69    2.7992051822341e-06
  70    3.0494892782175e-07
  71    -3.9176130834149e-07
  72    9.2169606708807e-08
  73    3.8747447102407e-07
  74    1.2597802997284e-06
  75    2.0183550980127e-07
  76    -5.6620900530036e-08
  77    -1.3120311706448e-07
  78    4.3002222117582e-08
  79    5.8476620361471e-08
  80    -1.124220527593e-07
  81    9.3382911786892e-08
  82    -3.4111411229947e-08
  83    -3.5794370629306e-08
  84    -1.9148399938677e-07
  85    -1.3127313554467e-05
  86    5.8531143293477e-07
  87    1.3637574692966e-09
  88    7.1703170245725e-07
  89    3.2231205566923e-06
  90    -4.3003712564321e-06
  91    3.0403578122836e-06
  92    1.9635423981041e-07
  93    -3.2190254879274e-07
  94    2.8834096809673e-07
  95    3.6958056553365e-08
  96    -2.0817992811627e-07
  97    3.3449114003067e-07
  98    -1.2530436355776e-07
  99    1.9338394960644e-07
 100    -5.6033867750618e-07
 101    7.8143207996787e-08
 102    -9.7134098333449e-07
 103    1.0434691471294e-05
 104    1.2996332553364e-06
 105    3.4889822447327e-07
 106    -6.0644078530447e-07
 107    -1.817464440028e-05
 108    1.9375385931656e-05
 109    3.1944129025977e-05
 110    -5.8576894116944e-07
 111    -5.4461901994982e-07
 112    2.5555272400961e-07
 113    3.1168884719662e-07
 114    -4.867181749076e-07
 115    -4.9865042228562e-07
 116    -4.4172986839494e-06
 117    3.658891267041e-05
 118    -7.0896615429401e-07
 119    9.7736502425209e-07
 120    6.9326257537697e-07
 121    -8.9568374382491e-06
 122    1.734636691716e-06
 123    3.3056261786824e-06
 124    -8.5667779583311e-08
 125    -2.1221864291398e-07
 126    -5.2735937195342e-08
 127    9.6744629659881e-08
 128    -4.2503920745999e-07
 129    -9.2336604689998e-07
 130    -8.8020896182131e-06
 131    5.3873931180716e-05
 132    -3.5507283750792e-07
 133    -1.0967902804339e-06
 134    3.5604679751196e-06
 135    -2.3338551582349e-05
 136    -1.9929788907087e-06
 137    -8.3983084454944e-05
 138    2.5744223342917e-06
 139    1.581382610753e-06
 140    4.0086860409616e-07
 141    4.8419931360047e-07
 142    1.3078054651477e-07
 143    -5.9756353391446e-07
 144    -3.9858364252256e-06
 145    2.3356860098878e-05
 146    5.5602622744077e-07
 147    4.5332664124272e-07
 148    -9.3937564176507e-08
 149    1.3600091096855e-05
 150    -5.5605989931207e-06
 151    -3.9414764421089e-06
 152    -1.0113150713401e-06
 153    -3.8788351257283e-07
 154    -9.690490139315e-08
 155    7.0092055698296e-07
 156    -8.3302872237301e-07
 157    -4.5155504640541e-09
 158    1.1711236395391e-06
 159    4.2821972236225e-07
 160    7.1692136204767e-07
 161    -2.7307797344342e-07
 162    -3.3244556802562e-07
 163    -6.9376729753119e-06
 164    6.7677697328101e-07
 165    8.2442608321228e-07
 166    4.6128076664986e-07
 167    -1.7454999786682e-07
 168    3.4601264454433e-09
 169    -1.118879126531e-07
 170    3.2175137083055e-07
 171    6.8151165662306e-08
 172    -5.7251902136865e-07
 173    -1.1131237303597e-06
 174    -8.1988381695815e-07
 175    -2.9036932223201e-07
 176    8.0367149494264e-07
 177    -3.3074730264709e-07
 178    1.5754234632062e-06
 179    -1.7511654156248e-06
 180    1.2756661172406e-07
 181    1.7149643007721e-07
 182     5.03583826003e-08
 183    -3.6992071360746e-07
 184    1.725087660909e-07
 185    -2.647811129311e-07
 186    -3.0446904124102e-06
 187    1.5159160790616e-06
 188    -1.3653175366073e-07
 189    1.6343824401344e-07
 190    1.3302014819598e-06
 191    2.5064120037031e-06
 192    5.5144331876015e-07
 193    -5.0419806371732e-06
 194    2.9488636787059e-07
 195    -6.5747647882078e-08
 196    2.1123388703208e-07
 197    1.0085182368802e-07
 198    -1.111383480616e-07
 199    -7.6593201067566e-07
 200    -1.3049446136391e-06
 201    1.7011193187964e-07
 202    3.6752644131273e-06
 203    -1.4844890248969e-06
 204    -1.1691566950341e-06
 205    -5.7562554677813e-07
 206    -2.9369593398141e-06
 207    1.1247660242954e-06
 208    -1.0178426761402e-05
 209    1.2397494802864e-06
 210    -4.5285561744466e-06
 211    5.6423949097493e-07
 212    2.7805969987669e-06
 213    -4.1926306917889e-07
 214    -2.7787113881459e-06
 215    -5.4740028969159e-07
 216    4.3353979627858e-07
 217    4.0014259627553e-07
 218    1.1814020688085e-06
 219    2.4744195865876e-07
 220    9.5244712629226e-07
 221    -7.509492471113e-07
 222    -7.7180796685059e-06
 223    -1.1644055157345e-05
 224    1.4210906500471e-06
 225    -4.126783817282e-06
 226    2.9949761174232e-06
 227    9.6102458212746e-06
 228    2.3847296077237e-05
 229    -9.7701964157202e-05
 230    -1.1943452086624e-06
 231    -4.1413378430446e-06
 232    -2.0449725342449e-06
 233    1.7639247065719e-06
 234    2.7842004571472e-06
 235    -7.7157087418501e-07
 236    -1.0606133696909e-05
 237    1.8229183533211e-05
 238    -1.9475437051722e-06
 239    6.8160089165868e-06
 240    5.7700044761609e-06
 241    -2.2197831004094e-05
 242    -3.2640410770898e-06
 243    -8.1346781249671e-05
 244    1.0669540739908e-06
 245    6.675139539166e-06
 246    1.2730004054339e-06
 247    2.5673098118058e-06
 248    1.0480141846555e-06
 249    -4.6215812404322e-06
 250    1.0297264632642e-05
 251    -4.4249598950133e-06
 252    -3.2142265707929e-05
 253    0.00027308043884721
 254    9.9866396494872e-07
 255    -4.3514767549759e-06
 256    7.248434460427e-06
 257    0.00011179157510016
 258    9.6410883852118e-05
 259    -0.00024377743069789
 260    2.9050279528463e-06
 261    -1.2587184728767e-05
 262    -4.4302852498784e-06
 263    8.2719012168527e-06
 264    4.659672909358e-06
 265    -4.0721793895767e-06
 266    2.7438646369954e-05
 267    -8.4340724814139e-06
 268    3.4253102210218e-05
 269    -6.8489946021367e-05
 270    2.432890608483e-05
 271     0.003107958752134
 272    -4.1470066621176e-05
 273    -0.00023067317109253
 274    0.00018836508148313
 275    0.0021090179424595
 276    0.00058844034218022
 277    -0.0031541087957284
 278    0.00018880587130985
 279    -0.00022711605721548
 280    0.00015416687133374