[Molden Format]
made by pyscf v[2.0.1]
[Atoms] (AU)
C   1   6     0.69100024066471     0.64692934207205    -3.48223131169301
H   2   1     2.68052439830868     1.13355088658700    -3.25784032593313
C   3   6    -0.36286361513219     0.85440132524594    -5.97030179418974
H   4   1    -2.35448549047279     0.36322488579172    -6.17995817793143
C   5   6     0.93697958957450     1.61209284601821    -8.05828437677121
H   6   1     2.82520634269342     2.40231158819155    -7.83223822317356
C   7   6    -0.04591716574067     1.43050675384137   -10.57963800872440
H   8   1    -1.93966227025444     0.63380613673234   -10.77641154630544
H   9   1     1.55630230933075    -1.92953025305990    12.99630010416247
C   10   6     0.75233899775814    -2.21270439606481    11.10705728102219
H   11   1    -0.43433408177274    -3.90944857546550    11.22216085340412
C   12   6     2.86362581178706    -2.63237380607947     9.17926416456045
H   13   1     4.39038949912609    -1.24955421540245     9.49899813497433
H   14   1     3.74629220191363    -4.48798724300892     9.47414880959024
C   15   6     2.02478325613682    -2.42177285709634     6.44560829588644
C   16   6     3.88048732735477    -3.58795445234514     4.61402886975252
C   17   6    -0.18412382258602    -1.30464291234259     5.76021113872346
C   18   6    -2.10044360464350    -0.26837831858460     7.71610340967100
C   19   6    -3.08956938670431     2.35282328359417     6.88693925039594
C   20   6    -4.37372924086464    -2.09766595989678     7.93610724222001
C   21   6    -0.83850430601230     0.06372213486173    10.33002307638377
H   22   1     0.38411922151109     1.74281358582432    10.27380136542181
H   23   1    -2.30980003007874     0.45460143924521    11.73986301809809
H   24   1     4.58527064644668    -5.38706904487420     5.36778158031719
H   25   1     5.54944938085014    -2.37631462192748     4.35398898413318
H   26   1     3.06633019150423    -3.94118377050688     2.75255466040884
H   27   1    -4.17727778763735     2.26573369139522     5.12914900961283
H   28   1    -1.52662344944051     3.68001877445626     6.59540397144508
H   29   1    -4.32916174397830     3.13643051467482     8.35225460090378
H   30   1    -5.32329548508442    -2.36691813602939     6.11583672749896
H   31   1    -5.77989366602257    -1.33896741843465     9.25748940450990
H   32   1    -3.79310905208926    -3.96389819310853     8.61386170102686
C   33   6    -1.01100794811226    -1.06331657314144     3.11929490449947
C   34   6     0.37686231036534    -0.33275864505552     1.09165013605873
H   35   1    -3.01671213906703    -1.40297922279997     2.77827895090944
C   36   6    -0.64382707979370    -0.11591880174385    -1.42063131251064
H   37   1     2.35569259782137     0.17174499283897     1.33641070251401
H   38   1    -2.63317482980319    -0.60229203511219    -1.66119700387645
C   39   6     1.17709071185639     2.16235266520763   -12.71162929579923
C   40   6     0.01149368127442     1.89967079998079   -15.19747007607967
H   41   1     3.06674924318564     2.97042403350516   -12.64854490967844
O   42   8     1.00001917973751     2.51860460578581   -17.18758625638360
H   43   1    -1.92257659968242     1.06364005135718   -15.17290072571517
[GTO]
1 0
 s    6 1.00
             3047.5249  0.0018347001629433
             457.36951    0.01403730124668
             103.94869   0.068842606114048
             29.210155    0.23218442062076
              9.286663    0.46794134155879
              3.163927    0.36231203217765
 s    3 1.00
             7.8682724   -0.11933240861517
             1.8812885   -0.16085421161283
             0.5442493     1.1434564825515
 s    1 1.00
             0.1687144                   1
 p    3 1.00
             7.8682724   0.068999095584993
             1.8812885    0.31642397975315
             0.5442493    0.74430825237435
 p    1 1.00
             0.1687144                   1
 d    1 1.00
                   0.8                   1

2 0
 s    3 1.00
             18.731137    0.03349459952309
             2.8253937    0.23472694665786
             0.6401217    0.81375731841339
 s    1 1.00
             0.1612778                   1

3 0
 s    6 1.00
             3047.5249  0.0018347001629433
             457.36951    0.01403730124668
             103.94869   0.068842606114048
             29.210155    0.23218442062076
              9.286663    0.46794134155879
              3.163927    0.36231203217765
 s    3 1.00
             7.8682724   -0.11933240861517
             1.8812885   -0.16085421161283
             0.5442493     1.1434564825515
 s    1 1.00
             0.1687144                   1
 p    3 1.00
             7.8682724   0.068999095584993
             1.8812885    0.31642397975315
             0.5442493    0.74430825237435
 p    1 1.00
             0.1687144                   1
 d    1 1.00
                   0.8                   1

4 0
 s    3 1.00
             18.731137    0.03349459952309
             2.8253937    0.23472694665786
             0.6401217    0.81375731841339
 s    1 1.00
             0.1612778                   1

5 0
 s    6 1.00
             3047.5249  0.0018347001629433
             457.36951    0.01403730124668
             103.94869   0.068842606114048
             29.210155    0.23218442062076
              9.286663    0.46794134155879
              3.163927    0.36231203217765
 s    3 1.00
             7.8682724   -0.11933240861517
             1.8812885   -0.16085421161283
             0.5442493     1.1434564825515
 s    1 1.00
             0.1687144                   1
 p    3 1.00
             7.8682724   0.068999095584993
             1.8812885    0.31642397975315
             0.5442493    0.74430825237435
 p    1 1.00
             0.1687144                   1
 d    1 1.00
                   0.8                   1

6 0
 s    3 1.00
             18.731137    0.03349459952309
             2.8253937    0.23472694665786
             0.6401217    0.81375731841339
 s    1 1.00
             0.1612778                   1

7 0
 s    6 1.00
             3047.5249  0.0018347001629433
             457.36951    0.01403730124668
             103.94869   0.068842606114048
             29.210155    0.23218442062076
              9.286663    0.46794134155879
              3.163927    0.36231203217765
 s    3 1.00
             7.8682724   -0.11933240861517
             1.8812885   -0.16085421161283
             0.5442493     1.1434564825515
 s    1 1.00
             0.1687144                   1
 p    3 1.00
             7.8682724   0.068999095584993
             1.8812885    0.31642397975315
             0.5442493    0.74430825237435
 p    1 1.00
             0.1687144                   1
 d    1 1.00
                   0.8                   1

8 0
 s    3 1.00
             18.731137    0.03349459952309
             2.8253937    0.23472694665786
             0.6401217    0.81375731841339
 s    1 1.00
             0.1612778                   1

9 0
 s    3 1.00
             18.731137    0.03349459952309
             2.8253937    0.23472694665786
             0.6401217    0.81375731841339
 s    1 1.00
             0.1612778                   1

10 0
 s    6 1.00
             3047.5249  0.0018347001629433
             457.36951    0.01403730124668
             103.94869   0.068842606114048
             29.210155    0.23218442062076
              9.286663    0.46794134155879
              3.163927    0.36231203217765
 s    3 1.00
             7.8682724   -0.11933240861517
             1.8812885   -0.16085421161283
             0.5442493     1.1434564825515
 s    1 1.00
             0.1687144                   1
 p    3 1.00
             7.8682724   0.068999095584993
             1.8812885    0.31642397975315
             0.5442493    0.74430825237435
 p    1 1.00
             0.1687144                   1
 d    1 1.00
                   0.8                   1

11 0
 s    3 1.00
             18.731137    0.03349459952309
             2.8253937    0.23472694665786
             0.6401217    0.81375731841339
 s    1 1.00
             0.1612778                   1

12 0
 s    6 1.00
             3047.5249  0.0018347001629433
             457.36951    0.01403730124668
             103.94869   0.068842606114048
             29.210155    0.23218442062076
              9.286663    0.46794134155879
              3.163927    0.36231203217765
 s    3 1.00
             7.8682724   -0.11933240861517
             1.8812885   -0.16085421161283
             0.5442493     1.1434564825515
 s    1 1.00
             0.1687144                   1
 p    3 1.00
             7.8682724   0.068999095584993
             1.8812885    0.31642397975315
             0.5442493    0.74430825237435
 p    1 1.00
             0.1687144                   1
 d    1 1.00
                   0.8                   1

13 0
 s    3 1.00
             18.731137    0.03349459952309
             2.8253937    0.23472694665786
             0.6401217    0.81375731841339
 s    1 1.00
             0.1612778                   1

14 0
 s    3 1.00
             18.731137    0.03349459952309
             2.8253937    0.23472694665786
             0.6401217    0.81375731841339
 s    1 1.00
             0.1612778                   1

15 0
 s    6 1.00
             3047.5249  0.0018347001629433
             457.36951    0.01403730124668
             103.94869   0.068842606114048
             29.210155    0.23218442062076
              9.286663    0.46794134155879
              3.163927    0.36231203217765
 s    3 1.00
             7.8682724   -0.11933240861517
             1.8812885   -0.16085421161283
             0.5442493     1.1434564825515
 s    1 1.00
             0.1687144                   1
 p    3 1.00
             7.8682724   0.068999095584993
             1.8812885    0.31642397975315
             0.5442493    0.74430825237435
 p    1 1.00
             0.1687144                   1
 d    1 1.00
                   0.8                   1

16 0
 s    6 1.00
             3047.5249  0.0018347001629433
             457.36951    0.01403730124668
             103.94869   0.068842606114048
             29.210155    0.23218442062076
              9.286663    0.46794134155879
              3.163927    0.36231203217765
 s    3 1.00
             7.8682724   -0.11933240861517
             1.8812885   -0.16085421161283
             0.5442493     1.1434564825515
 s    1 1.00
             0.1687144                   1
 p    3 1.00
             7.8682724   0.068999095584993
             1.8812885    0.31642397975315
             0.5442493    0.74430825237435
 p    1 1.00
             0.1687144                   1
 d    1 1.00
                   0.8                   1

17 0
 s    6 1.00
             3047.5249  0.0018347001629433
             457.36951    0.01403730124668
             103.94869   0.068842606114048
             29.210155    0.23218442062076
              9.286663    0.46794134155879
              3.163927    0.36231203217765
 s    3 1.00
             7.8682724   -0.11933240861517
             1.8812885   -0.16085421161283
             0.5442493     1.1434564825515
 s    1 1.00
             0.1687144                   1
 p    3 1.00
             7.8682724   0.068999095584993
             1.8812885    0.31642397975315
             0.5442493    0.74430825237435
 p    1 1.00
             0.1687144                   1
 d    1 1.00
                   0.8                   1

18 0
 s    6 1.00
             3047.5249  0.0018347001629433
             457.36951    0.01403730124668
             103.94869   0.068842606114048
             29.210155    0.23218442062076
              9.286663    0.46794134155879
              3.163927    0.36231203217765
 s    3 1.00
             7.8682724   -0.11933240861517
             1.8812885   -0.16085421161283
             0.5442493     1.1434564825515
 s    1 1.00
             0.1687144                   1
 p    3 1.00
             7.8682724   0.068999095584993
             1.8812885    0.31642397975315
             0.5442493    0.74430825237435
 p    1 1.00
             0.1687144                   1
 d    1 1.00
                   0.8                   1

19 0
 s    6 1.00
             3047.5249  0.0018347001629433
             457.36951    0.01403730124668
             103.94869   0.068842606114048
             29.210155    0.23218442062076
              9.286663    0.46794134155879
              3.163927    0.36231203217765
 s    3 1.00
             7.8682724   -0.11933240861517
             1.8812885   -0.16085421161283
             0.5442493     1.1434564825515
 s    1 1.00
             0.1687144                   1
 p    3 1.00
             7.8682724   0.068999095584993
             1.8812885    0.31642397975315
             0.5442493    0.74430825237435
 p    1 1.00
             0.1687144                   1
 d    1 1.00
                   0.8                   1

20 0
 s    6 1.00
             3047.5249  0.0018347001629433
             457.36951    0.01403730124668
             103.94869   0.068842606114048
             29.210155    0.23218442062076
              9.286663    0.46794134155879
              3.163927    0.36231203217765
 s    3 1.00
             7.8682724   -0.11933240861517
             1.8812885   -0.16085421161283
             0.5442493     1.1434564825515
 s    1 1.00
             0.1687144                   1
 p    3 1.00
             7.8682724   0.068999095584993
             1.8812885    0.31642397975315
             0.5442493    0.74430825237435
 p    1 1.00
             0.1687144                   1
 d    1 1.00
                   0.8                   1

21 0
 s    6 1.00
             3047.5249  0.0018347001629433
             457.36951    0.01403730124668
             103.94869   0.068842606114048
             29.210155    0.23218442062076
              9.286663    0.46794134155879
              3.163927    0.36231203217765
 s    3 1.00
             7.8682724   -0.11933240861517
             1.8812885   -0.16085421161283
             0.5442493     1.1434564825515
 s    1 1.00
             0.1687144                   1
 p    3 1.00
             7.8682724   0.068999095584993
             1.8812885    0.31642397975315
             0.5442493    0.74430825237435
 p    1 1.00
             0.1687144                   1
 d    1 1.00
                   0.8                   1

22 0
 s    3 1.00
             18.731137    0.03349459952309
             2.8253937    0.23472694665786
             0.6401217    0.81375731841339
 s    1 1.00
             0.1612778                   1

23 0
 s    3 1.00
             18.731137    0.03349459952309
             2.8253937    0.23472694665786
             0.6401217    0.81375731841339
 s    1 1.00
             0.1612778                   1

24 0
 s    3 1.00
             18.731137    0.03349459952309
             2.8253937    0.23472694665786
             0.6401217    0.81375731841339
 s    1 1.00
             0.1612778                   1

25 0
 s    3 1.00
             18.731137    0.03349459952309
             2.8253937    0.23472694665786
             0.6401217    0.81375731841339
 s    1 1.00
             0.1612778                   1

26 0
 s    3 1.00
             18.731137    0.03349459952309
             2.8253937    0.23472694665786
             0.6401217    0.81375731841339
 s    1 1.00
             0.1612778                   1

27 0
 s    3 1.00
             18.731137    0.03349459952309
             2.8253937    0.23472694665786
             0.6401217    0.81375731841339
 s    1 1.00
             0.1612778                   1

28 0
 s    3 1.00
             18.731137    0.03349459952309
             2.8253937    0.23472694665786
             0.6401217    0.81375731841339
 s    1 1.00
             0.1612778                   1

29 0
 s    3 1.00
             18.731137    0.03349459952309
             2.8253937    0.23472694665786
             0.6401217    0.81375731841339
 s    1 1.00
             0.1612778                   1

30 0
 s    3 1.00
             18.731137    0.03349459952309
             2.8253937    0.23472694665786
             0.6401217    0.81375731841339
 s    1 1.00
             0.1612778                   1

31 0
 s    3 1.00
             18.731137    0.03349459952309
             2.8253937    0.23472694665786
             0.6401217    0.81375731841339
 s    1 1.00
             0.1612778                   1

32 0
 s    3 1.00
             18.731137    0.03349459952309
             2.8253937    0.23472694665786
             0.6401217    0.81375731841339
 s    1 1.00
             0.1612778                   1

33 0
 s    6 1.00
             3047.5249  0.0018347001629433
             457.36951    0.01403730124668
             103.94869   0.068842606114048
             29.210155    0.23218442062076
              9.286663    0.46794134155879
              3.163927    0.36231203217765
 s    3 1.00
             7.8682724   -0.11933240861517
             1.8812885   -0.16085421161283
             0.5442493     1.1434564825515
 s    1 1.00
             0.1687144                   1
 p    3 1.00
             7.8682724   0.068999095584993
             1.8812885    0.31642397975315
             0.5442493    0.74430825237435
 p    1 1.00
             0.1687144                   1
 d    1 1.00
                   0.8                   1

34 0
 s    6 1.00
             3047.5249  0.0018347001629433
             457.36951    0.01403730124668
             103.94869   0.068842606114048
             29.210155    0.23218442062076
              9.286663    0.46794134155879
              3.163927    0.36231203217765
 s    3 1.00
             7.8682724   -0.11933240861517
             1.8812885   -0.16085421161283
             0.5442493     1.1434564825515
 s    1 1.00
             0.1687144                   1
 p    3 1.00
             7.8682724   0.068999095584993
             1.8812885    0.31642397975315
             0.5442493    0.74430825237435
 p    1 1.00
             0.1687144                   1
 d    1 1.00
                   0.8                   1

35 0
 s    3 1.00
             18.731137    0.03349459952309
             2.8253937    0.23472694665786
             0.6401217    0.81375731841339
 s    1 1.00
             0.1612778                   1

36 0
 s    6 1.00
             3047.5249  0.0018347001629433
             457.36951    0.01403730124668
             103.94869   0.068842606114048
             29.210155    0.23218442062076
              9.286663    0.46794134155879
              3.163927    0.36231203217765
 s    3 1.00
             7.8682724   -0.11933240861517
             1.8812885   -0.16085421161283
             0.5442493     1.1434564825515
 s    1 1.00
             0.1687144                   1
 p    3 1.00
             7.8682724   0.068999095584993
             1.8812885    0.31642397975315
             0.5442493    0.74430825237435
 p    1 1.00
             0.1687144                   1
 d    1 1.00
                   0.8                   1

37 0
 s    3 1.00
             18.731137    0.03349459952309
             2.8253937    0.23472694665786
             0.6401217    0.81375731841339
 s    1 1.00
             0.1612778                   1

38 0
 s    3 1.00
             18.731137    0.03349459952309
             2.8253937    0.23472694665786
             0.6401217    0.81375731841339
 s    1 1.00
             0.1612778                   1

39 0
 s    6 1.00
             3047.5249  0.0018347001629433
             457.36951    0.01403730124668
             103.94869   0.068842606114048
             29.210155    0.23218442062076
              9.286663    0.46794134155879
              3.163927    0.36231203217765
 s    3 1.00
             7.8682724   -0.11933240861517
             1.8812885   -0.16085421161283
             0.5442493     1.1434564825515
 s    1 1.00
             0.1687144                   1
 p    3 1.00
             7.8682724   0.068999095584993
             1.8812885    0.31642397975315
             0.5442493    0.74430825237435
 p    1 1.00
             0.1687144                   1
 d    1 1.00
                   0.8                   1

40 0
 s    6 1.00
             3047.5249  0.0018347001629433
             457.36951    0.01403730124668
             103.94869   0.068842606114048
             29.210155    0.23218442062076
              9.286663    0.46794134155879
              3.163927    0.36231203217765
 s    3 1.00
             7.8682724   -0.11933240861517
             1.8812885   -0.16085421161283
             0.5442493     1.1434564825515
 s    1 1.00
             0.1687144                   1
 p    3 1.00
             7.8682724   0.068999095584993
             1.8812885    0.31642397975315
             0.5442493    0.74430825237435
 p    1 1.00
             0.1687144                   1
 d    1 1.00
                   0.8                   1

41 0
 s    3 1.00
             18.731137    0.03349459952309
             2.8253937    0.23472694665786
             0.6401217    0.81375731841339
 s    1 1.00
             0.1612778                   1

42 0
 s    6 1.00
             5484.6717   0.001831099805527
             825.23495   0.013950098518422
             188.04696    0.06844509273075
               52.9645    0.23271427528445
              16.89757    0.47019295006289
             5.7996353    0.35852086192309
 s    3 1.00
             15.539616   -0.11077750382508
             3.5999336   -0.14802630511126
             1.0137618     1.1307670390447
 s    1 1.00
             0.2700058                   1
 p    3 1.00
             15.539616   0.070874299543311
             3.5999336    0.33975279781076
             1.0137618    0.72715859531445
 p    1 1.00
             0.2700058                   1
 d    1 1.00
                   0.8                   1

43 0
 s    3 1.00
             18.731137    0.03349459952309
             2.8253937    0.23472694665786
             0.6401217    0.81375731841339
 s    1 1.00
             0.1612778                   1

[5d]
[7f]
[9g]

[MO]
 Sym= A
 Ene=               0
 Spin= Alpha
 Occup=    1.00000
   1    -1.1110941265113e-05
   2    -4.8749476123145e-05
   3    -2.0527894731084e-05
   4    -2.2576212444945e-05
   5    -2.2258754362447e-05
   6    2.9835258818483e-05
   7    0.00025342090154082
   8    0.00029740160661419
   9    -0.0010023890352894
  10    2.2409929867656e-05
  11    3.7552831706391e-05
  12    1.243811895475e-06
  13    7.5810611403212e-06
  14    -2.1264210028157e-06
  15    -5.0928599570172e-05
  16    -2.8424643599056e-05
  17    2.1603464681347e-05
  18    9.335589665509e-05
  19    -0.002219388262417
  20    -1.9420987797085e-05
  21    -9.0574756078499e-06
  22    7.1763057492966e-05
  23    -0.00045348552844618
  24    -0.00021809007295751
  25    0.0006921958509727
  26    -5.8248627485509e-05
  27    1.297332709491e-05
  28    2.4074440824108e-05
  29    -4.545134379667e-06
  30    1.2088336947931e-05
  31    -1.2424710556938e-06
  32    0.00010984727401702
  33    -8.7458374543653e-05
  34    -0.00032679882416652
  35    0.0055941898048943
  36    1.2548782575702e-06
  37    1.3262764412047e-05
  38    -0.00019205250140123
  39    -0.0019686413458464
  40    -0.00067806994268211
  41    -0.0014563956350137
  42    0.0001635475220778
  43    5.8523461973181e-05
  44    -4.1982431587198e-06
  45    3.6313521986415e-05
  46    3.4252252787866e-05
  47    4.1118801644709e-05
  48    0.00029953872230343
  49    6.2877605931693e-05
  50    -0.00025085170201867
  51    -0.0042695863955392
  52    0.00016730949284799
  53    1.8884659416544e-05
  54    0.00059226875242505
  55    -0.001666478288197
  56    -0.00037825001191962
  57    -0.0037899475130438
  58    -0.00010890578102209
  59    -0.00017829361077588
  60    -6.8558887883674e-05
  61    4.873121931962e-05
  62    7.4347281142789e-05
  63    -0.00038402055867881
  64    -0.00018886835913042
  65    -1.5504917528631e-07
  66    1.9229098731976e-06
  67    -1.4669248173215e-07
  68    -1.5148851194039e-06
  69    3.2269760403284e-07
  70    8.9628276466713e-07
  71    -9.8631525429495e-07
  72    4.1159427570107e-07
  73    2.1019264513969e-06
  74    7.7270363645755e-07
  75    -2.8103885071711e-06
  76    2.5515215621587e-07
  77    6.2291752802116e-08
  78    1.5961185707167e-07
  79    1.3534078583285e-07
  80    7.6076389997524e-08
  81    9.850871094081e-08
  82    6.8620805723729e-07
  83    2.9813108988588e-07
  84    2.1232254403776e-06
  85    -1.0983910304449e-05
  86    3.9897203688227e-07
  87    1.2657343732659e-07
  88    8.0922326645294e-07
  89    5.730438948601e-06
  90    -9.3893007871016e-06
  91    2.901895294577e-07
  92    -1.2609720039483e-07
  93    -5.2532852913234e-07
  94    9.8273271010838e-07
  95    -3.4524220917376e-07
  96    -8.4175192537536e-09
  97    1.448274812732e-06
  98    7.7123097573411e-07
  99    -3.8450970517234e-07
 100    -1.7264198095143e-06
 101    -7.0995643849678e-07
 102    -3.0777020887569e-06
 103    9.057783028883e-05
 104    -1.0993635804146e-06
 105    2.1647521334326e-07
 106    -2.4449844229668e-06
 107    -3.6364576774842e-05
 108    3.6814170316473e-05
 109    -5.9347991796051e-06
 110    7.4021219051502e-07
 111    1.1672256145361e-06
 112    -5.1213907495689e-07
 113    -3.9236850504591e-07
 114    -1.7357865298074e-06
 115    3.456986608683e-07
 116    3.8053438703902e-06
 117    -4.649164362353e-06
 118    -5.2629370261566e-07
 119    2.0372071200873e-06
 120    -1.4751331492359e-06
 121    4.0551143232487e-06
 122    -1.334463274231e-05
 123    1.5956683446389e-05
 124    5.8170726811971e-07
 125    -5.3547098343583e-07
 126    -7.9070194474455e-07
 127    -2.3653216006696e-07
 128    -1.8036325494746e-07
 129    2.2133684997034e-07
 130    2.3668249327656e-06
 131    4.8142102510881e-05
 132    5.6596455548526e-06
 133    1.1947207511959e-06
 134    -3.5413037258274e-06
 135    -0.00012013495025714
 136    1.272543950071e-05
 137    -3.5469509242149e-05
 138    1.223985217688e-06
 139    9.9223574519362e-07
 140    2.7723966342151e-06
 141    -3.3224828221216e-07
 142     1.85241493107e-06
 143    5.7497675980921e-08
 144    -1.6263014664815e-06
 145    -3.9801055148522e-05
 146    -3.4337587620017e-07
 147    -1.0823044828601e-06
 148    5.0761542128584e-06
 149    -1.2766970416078e-05
 150    3.5856538342473e-05
 151    -1.5638131594875e-05
 152    -1.1076407226804e-06
 153    2.4044549673596e-07
 154    -2.0715469520725e-06
 155    -8.2727848109077e-08
 156    -9.9631251689908e-07
 157    6.5576145756319e-07
 158    5.2871904620382e-06
 159    -3.0312159466812e-05
 160    5.3659126845996e-07
 161    7.4839729251908e-07
 162    -9.383445540576e-07
 163    -1.0835490432981e-05
 164    1.1708022352157e-05
 165    1.7724600410589e-06
 166    1.0483322701708e-06
 167    -2.4769465223001e-07
 168    2.2464167742903e-07
 169    4.3028984741165e-07
 170    8.048694106816e-07
 171    6.1806251769782e-08
 172    2.6226789037745e-07
 173    3.3058371560509e-06
 174    -2.3845858045633e-07
 175    -2.2164420443466e-07
 176    1.5622103064073e-06
 177    1.2001728310349e-05
 178    3.9598288549317e-06
 179    4.8879656009165e-06
 180    -2.8848502988897e-07
 181    1.4183657002361e-06
 182    -4.3190177423411e-08
 183    7.0228856585412e-07
 184    1.0779166891586e-06
 185    -7.4882677369199e-07
 186    -6.2786018894133e-06
 187    2.9012176258895e-05
 188    -1.2258434055093e-06
 189    -7.4744030662241e-08
 190    -8.8972684717008e-08
 191    -8.0893362320797e-09
 192    -9.4196784574303e-06
 193    -1.4535082307169e-05
 194    6.6955060459809e-07
 195    7.919822315473e-07
 196     1.49238857246e-06
 197    -4.9361392166765e-07
 198    3.5963261479099e-07
 199    -1.915323804248e-06
 200    1.1737073515462e-06
 201    -3.8521010745428e-07
 202    1.8854659736629e-06
 203    -1.2699762038842e-06
 204    -7.7468740260621e-06
 205    2.9898511605683e-06
 206    6.5164209930966e-07
 207    3.5389184998115e-07
 208    1.2366686580966e-05
 209    2.4078485550575e-06
 210    -4.0276315593268e-07
 211    1.8357065102387e-06
 212    3.8573591163395e-06
 213    5.3514970923329e-07
 214    -3.6398895949042e-06
 215    -2.8385444489243e-06
 216    1.721483391841e-05
 217    8.2487275184772e-07
 218    2.9199413659021e-07
 219    7.7129170991782e-07
 220    -2.1970256241626e-06
 221    -3.6716704840731e-06
 222    -2.3986702502504e-05
 223    0.00025770654054129
 224    5.7951284788019e-06
 225    5.6028383022173e-07
 226    5.9156808716218e-07
 227    4.9276656733903e-05
 228    5.5830980041333e-05
 229    -0.00027754822406762
 230    5.8271323725957e-06
 231    -9.2833789733437e-06
 232    -6.7654094283863e-06
 233    3.2915307292572e-06
 234    2.8112397482597e-06
 235    7.0429021477549e-06
 236    4.1008499566864e-05
 237    -0.00072619818484788
 238    -5.2992445628353e-06
 239    -6.2275731377384e-06
 240    1.8585813847795e-05
 241    0.0002310775269409
 242    5.2285150036301e-05
 243    8.3312928334009e-05
 244    -1.9285151039428e-05
 245    4.2258879187287e-06
 246    6.9067348124093e-06
 247    -1.2581399346503e-06
 248    -2.8145092075154e-06
 249    -1.09263322377e-05
 250    -1.7928552043309e-05
 251    -7.8168985729937e-06
 252    -5.4723222603057e-05
 253    0.0010568237444279
 254    -1.4095423314035e-05
 255    7.0019394203435e-06
 256    -3.1935266271763e-05
 257    0.00046898240348434
 258    8.4982145875997e-05
 259    9.1376262494129e-05
 260    1.9096318727999e-05
 261    -6.0515709113503e-06
 262    -8.0861942831456e-06
 263    6.2185302295349e-06
 264    3.1924439189316e-06
 265    -9.5419101131876e-06
 266    -3.6830722583304e-06
 267    2.5968259551944e-05
 268    6.9840926837146e-05
 269    6.791254606228e-05
 270    -2.7403249904174e-05
 271    -0.0031454007019778
 272    0.00025126490554938
 273    0.00011345659536781
 274    -0.00010250685901522
 275    -0.0013680136711087
 276    -0.00092920059060178
 277     0.003577562016983
 278    -0.00035485441332797
 279    6.2111365868999e-05
 280    7.2964128173569e-05