[Molden Format]
made by pyscf v[2.0.1]
[Atoms] (AU)
C   1   6     0.69100024066471     0.64692934207205    -3.48223131169301
H   2   1     2.68052439830868     1.13355088658700    -3.25784032593313
C   3   6    -0.36286361513219     0.85440132524594    -5.97030179418974
H   4   1    -2.35448549047279     0.36322488579172    -6.17995817793143
C   5   6     0.93697958957450     1.61209284601821    -8.05828437677121
H   6   1     1.06549067678056     3.62267689696451    -8.48487489511106
C   7   6     2.16736557798100    -0.10534186648568    -9.75912299477448
H   8   1     2.02320928491733    -2.11383137749881    -9.30645195914250
H   9   1     1.55630230933075    -1.92953025305990    12.99630010416247
C   10   6     0.75233899775814    -2.21270439606481    11.10705728102219
H   11   1    -0.43433408177274    -3.90944857546550    11.22216085340412
C   12   6     2.86362581178706    -2.63237380607947     9.17926416456045
H   13   1     4.39038949912609    -1.24955421540245     9.49899813497433
H   14   1     3.74629220191363    -4.48798724300892     9.47414880959024
C   15   6     2.02478325613682    -2.42177285709634     6.44560829588644
C   16   6     3.88048732735477    -3.58795445234514     4.61402886975252
C   17   6    -0.18412382258602    -1.30464291234259     5.76021113872346
C   18   6    -2.10044360464350    -0.26837831858460     7.71610340967100
C   19   6    -3.08956938670431     2.35282328359417     6.88693925039594
C   20   6    -4.37372924086464    -2.09766595989678     7.93610724222001
C   21   6    -0.83850430601230     0.06372213486173    10.33002307638377
H   22   1     0.38411922151109     1.74281358582432    10.27380136542181
H   23   1    -2.30980003007874     0.45460143924521    11.73986301809809
H   24   1     4.58527064644668    -5.38706904487420     5.36778158031719
H   25   1     5.54944938085014    -2.37631462192748     4.35398898413318
H   26   1     3.06633019150423    -3.94118377050688     2.75255466040884
H   27   1    -4.17727778763735     2.26573369139522     5.12914900961283
H   28   1    -1.52662344944051     3.68001877445626     6.59540397144508
H   29   1    -4.32916174397830     3.13643051467482     8.35225460090378
H   30   1    -5.32329548508442    -2.36691813602939     6.11583672749896
H   31   1    -5.77989366602257    -1.33896741843465     9.25748940450990
H   32   1    -3.79310905208926    -3.96389819310853     8.61386170102686
C   33   6    -1.01100794811226    -1.06331657314144     3.11929490449947
C   34   6     0.37686231036534    -0.33275864505552     1.09165013605873
H   35   1    -3.01671213906703    -1.40297922279997     2.77827895090944
C   36   6    -0.64382707979370    -0.11591880174385    -1.42063131251064
H   37   1     2.35569259782137     0.17174499283897     1.33641070251401
H   38   1    -2.63317482980319    -0.60229203511219    -1.66119700387645
C   39   6     3.47875288242203     0.56169257871714   -11.85961387583028
C   40   6     4.66516051155728    -1.33401759756945   -13.47384510134906
H   41   1     3.69428385946791     2.52875803282145   -12.41815504578381
O   42   8     5.86788117255002    -0.86880199432758   -15.38639878207248
H   43   1     4.39675898316744    -3.32256790318547   -12.83056660829343
[GTO]
1 0
 s    6 1.00
             3047.5249  0.0018347001629433
             457.36951    0.01403730124668
             103.94869   0.068842606114048
             29.210155    0.23218442062076
              9.286663    0.46794134155879
              3.163927    0.36231203217765
 s    3 1.00
             7.8682724   -0.11933240861517
             1.8812885   -0.16085421161283
             0.5442493     1.1434564825515
 s    1 1.00
             0.1687144                   1
 p    3 1.00
             7.8682724   0.068999095584993
             1.8812885    0.31642397975315
             0.5442493    0.74430825237435
 p    1 1.00
             0.1687144                   1
 d    1 1.00
                   0.8                   1

2 0
 s    3 1.00
             18.731137    0.03349459952309
             2.8253937    0.23472694665786
             0.6401217    0.81375731841339
 s    1 1.00
             0.1612778                   1

3 0
 s    6 1.00
             3047.5249  0.0018347001629433
             457.36951    0.01403730124668
             103.94869   0.068842606114048
             29.210155    0.23218442062076
              9.286663    0.46794134155879
              3.163927    0.36231203217765
 s    3 1.00
             7.8682724   -0.11933240861517
             1.8812885   -0.16085421161283
             0.5442493     1.1434564825515
 s    1 1.00
             0.1687144                   1
 p    3 1.00
             7.8682724   0.068999095584993
             1.8812885    0.31642397975315
             0.5442493    0.74430825237435
 p    1 1.00
             0.1687144                   1
 d    1 1.00
                   0.8                   1

4 0
 s    3 1.00
             18.731137    0.03349459952309
             2.8253937    0.23472694665786
             0.6401217    0.81375731841339
 s    1 1.00
             0.1612778                   1

5 0
 s    6 1.00
             3047.5249  0.0018347001629433
             457.36951    0.01403730124668
             103.94869   0.068842606114048
             29.210155    0.23218442062076
              9.286663    0.46794134155879
              3.163927    0.36231203217765
 s    3 1.00
             7.8682724   -0.11933240861517
             1.8812885   -0.16085421161283
             0.5442493     1.1434564825515
 s    1 1.00
             0.1687144                   1
 p    3 1.00
             7.8682724   0.068999095584993
             1.8812885    0.31642397975315
             0.5442493    0.74430825237435
 p    1 1.00
             0.1687144                   1
 d    1 1.00
                   0.8                   1

6 0
 s    3 1.00
             18.731137    0.03349459952309
             2.8253937    0.23472694665786
             0.6401217    0.81375731841339
 s    1 1.00
             0.1612778                   1

7 0
 s    6 1.00
             3047.5249  0.0018347001629433
             457.36951    0.01403730124668
             103.94869   0.068842606114048
             29.210155    0.23218442062076
              9.286663    0.46794134155879
              3.163927    0.36231203217765
 s    3 1.00
             7.8682724   -0.11933240861517
             1.8812885   -0.16085421161283
             0.5442493     1.1434564825515
 s    1 1.00
             0.1687144                   1
 p    3 1.00
             7.8682724   0.068999095584993
             1.8812885    0.31642397975315
             0.5442493    0.74430825237435
 p    1 1.00
             0.1687144                   1
 d    1 1.00
                   0.8                   1

8 0
 s    3 1.00
             18.731137    0.03349459952309
             2.8253937    0.23472694665786
             0.6401217    0.81375731841339
 s    1 1.00
             0.1612778                   1

9 0
 s    3 1.00
             18.731137    0.03349459952309
             2.8253937    0.23472694665786
             0.6401217    0.81375731841339
 s    1 1.00
             0.1612778                   1

10 0
 s    6 1.00
             3047.5249  0.0018347001629433
             457.36951    0.01403730124668
             103.94869   0.068842606114048
             29.210155    0.23218442062076
              9.286663    0.46794134155879
              3.163927    0.36231203217765
 s    3 1.00
             7.8682724   -0.11933240861517
             1.8812885   -0.16085421161283
             0.5442493     1.1434564825515
 s    1 1.00
             0.1687144                   1
 p    3 1.00
             7.8682724   0.068999095584993
             1.8812885    0.31642397975315
             0.5442493    0.74430825237435
 p    1 1.00
             0.1687144                   1
 d    1 1.00
                   0.8                   1

11 0
 s    3 1.00
             18.731137    0.03349459952309
             2.8253937    0.23472694665786
             0.6401217    0.81375731841339
 s    1 1.00
             0.1612778                   1

12 0
 s    6 1.00
             3047.5249  0.0018347001629433
             457.36951    0.01403730124668
             103.94869   0.068842606114048
             29.210155    0.23218442062076
              9.286663    0.46794134155879
              3.163927    0.36231203217765
 s    3 1.00
             7.8682724   -0.11933240861517
             1.8812885   -0.16085421161283
             0.5442493     1.1434564825515
 s    1 1.00
             0.1687144                   1
 p    3 1.00
             7.8682724   0.068999095584993
             1.8812885    0.31642397975315
             0.5442493    0.74430825237435
 p    1 1.00
             0.1687144                   1
 d    1 1.00
                   0.8                   1

13 0
 s    3 1.00
             18.731137    0.03349459952309
             2.8253937    0.23472694665786
             0.6401217    0.81375731841339
 s    1 1.00
             0.1612778                   1

14 0
 s    3 1.00
             18.731137    0.03349459952309
             2.8253937    0.23472694665786
             0.6401217    0.81375731841339
 s    1 1.00
             0.1612778                   1

15 0
 s    6 1.00
             3047.5249  0.0018347001629433
             457.36951    0.01403730124668
             103.94869   0.068842606114048
             29.210155    0.23218442062076
              9.286663    0.46794134155879
              3.163927    0.36231203217765
 s    3 1.00
             7.8682724   -0.11933240861517
             1.8812885   -0.16085421161283
             0.5442493     1.1434564825515
 s    1 1.00
             0.1687144                   1
 p    3 1.00
             7.8682724   0.068999095584993
             1.8812885    0.31642397975315
             0.5442493    0.74430825237435
 p    1 1.00
             0.1687144                   1
 d    1 1.00
                   0.8                   1

16 0
 s    6 1.00
             3047.5249  0.0018347001629433
             457.36951    0.01403730124668
             103.94869   0.068842606114048
             29.210155    0.23218442062076
              9.286663    0.46794134155879
              3.163927    0.36231203217765
 s    3 1.00
             7.8682724   -0.11933240861517
             1.8812885   -0.16085421161283
             0.5442493     1.1434564825515
 s    1 1.00
             0.1687144                   1
 p    3 1.00
             7.8682724   0.068999095584993
             1.8812885    0.31642397975315
             0.5442493    0.74430825237435
 p    1 1.00
             0.1687144                   1
 d    1 1.00
                   0.8                   1

17 0
 s    6 1.00
             3047.5249  0.0018347001629433
             457.36951    0.01403730124668
             103.94869   0.068842606114048
             29.210155    0.23218442062076
              9.286663    0.46794134155879
              3.163927    0.36231203217765
 s    3 1.00
             7.8682724   -0.11933240861517
             1.8812885   -0.16085421161283
             0.5442493     1.1434564825515
 s    1 1.00
             0.1687144                   1
 p    3 1.00
             7.8682724   0.068999095584993
             1.8812885    0.31642397975315
             0.5442493    0.74430825237435
 p    1 1.00
             0.1687144                   1
 d    1 1.00
                   0.8                   1

18 0
 s    6 1.00
             3047.5249  0.0018347001629433
             457.36951    0.01403730124668
             103.94869   0.068842606114048
             29.210155    0.23218442062076
              9.286663    0.46794134155879
              3.163927    0.36231203217765
 s    3 1.00
             7.8682724   -0.11933240861517
             1.8812885   -0.16085421161283
             0.5442493     1.1434564825515
 s    1 1.00
             0.1687144                   1
 p    3 1.00
             7.8682724   0.068999095584993
             1.8812885    0.31642397975315
             0.5442493    0.74430825237435
 p    1 1.00
             0.1687144                   1
 d    1 1.00
                   0.8                   1

19 0
 s    6 1.00
             3047.5249  0.0018347001629433
             457.36951    0.01403730124668
             103.94869   0.068842606114048
             29.210155    0.23218442062076
              9.286663    0.46794134155879
              3.163927    0.36231203217765
 s    3 1.00
             7.8682724   -0.11933240861517
             1.8812885   -0.16085421161283
             0.5442493     1.1434564825515
 s    1 1.00
             0.1687144                   1
 p    3 1.00
             7.8682724   0.068999095584993
             1.8812885    0.31642397975315
             0.5442493    0.74430825237435
 p    1 1.00
             0.1687144                   1
 d    1 1.00
                   0.8                   1

20 0
 s    6 1.00
             3047.5249  0.0018347001629433
             457.36951    0.01403730124668
             103.94869   0.068842606114048
             29.210155    0.23218442062076
              9.286663    0.46794134155879
              3.163927    0.36231203217765
 s    3 1.00
             7.8682724   -0.11933240861517
             1.8812885   -0.16085421161283
             0.5442493     1.1434564825515
 s    1 1.00
             0.1687144                   1
 p    3 1.00
             7.8682724   0.068999095584993
             1.8812885    0.31642397975315
             0.5442493    0.74430825237435
 p    1 1.00
             0.1687144                   1
 d    1 1.00
                   0.8                   1

21 0
 s    6 1.00
             3047.5249  0.0018347001629433
             457.36951    0.01403730124668
             103.94869   0.068842606114048
             29.210155    0.23218442062076
              9.286663    0.46794134155879
              3.163927    0.36231203217765
 s    3 1.00
             7.8682724   -0.11933240861517
             1.8812885   -0.16085421161283
             0.5442493     1.1434564825515
 s    1 1.00
             0.1687144                   1
 p    3 1.00
             7.8682724   0.068999095584993
             1.8812885    0.31642397975315
             0.5442493    0.74430825237435
 p    1 1.00
             0.1687144                   1
 d    1 1.00
                   0.8                   1

22 0
 s    3 1.00
             18.731137    0.03349459952309
             2.8253937    0.23472694665786
             0.6401217    0.81375731841339
 s    1 1.00
             0.1612778                   1

23 0
 s    3 1.00
             18.731137    0.03349459952309
             2.8253937    0.23472694665786
             0.6401217    0.81375731841339
 s    1 1.00
             0.1612778                   1

24 0
 s    3 1.00
             18.731137    0.03349459952309
             2.8253937    0.23472694665786
             0.6401217    0.81375731841339
 s    1 1.00
             0.1612778                   1

25 0
 s    3 1.00
             18.731137    0.03349459952309
             2.8253937    0.23472694665786
             0.6401217    0.81375731841339
 s    1 1.00
             0.1612778                   1

26 0
 s    3 1.00
             18.731137    0.03349459952309
             2.8253937    0.23472694665786
             0.6401217    0.81375731841339
 s    1 1.00
             0.1612778                   1

27 0
 s    3 1.00
             18.731137    0.03349459952309
             2.8253937    0.23472694665786
             0.6401217    0.81375731841339
 s    1 1.00
             0.1612778                   1

28 0
 s    3 1.00
             18.731137    0.03349459952309
             2.8253937    0.23472694665786
             0.6401217    0.81375731841339
 s    1 1.00
             0.1612778                   1

29 0
 s    3 1.00
             18.731137    0.03349459952309
             2.8253937    0.23472694665786
             0.6401217    0.81375731841339
 s    1 1.00
             0.1612778                   1

30 0
 s    3 1.00
             18.731137    0.03349459952309
             2.8253937    0.23472694665786
             0.6401217    0.81375731841339
 s    1 1.00
             0.1612778                   1

31 0
 s    3 1.00
             18.731137    0.03349459952309
             2.8253937    0.23472694665786
             0.6401217    0.81375731841339
 s    1 1.00
             0.1612778                   1

32 0
 s    3 1.00
             18.731137    0.03349459952309
             2.8253937    0.23472694665786
             0.6401217    0.81375731841339
 s    1 1.00
             0.1612778                   1

33 0
 s    6 1.00
             3047.5249  0.0018347001629433
             457.36951    0.01403730124668
             103.94869   0.068842606114048
             29.210155    0.23218442062076
              9.286663    0.46794134155879
              3.163927    0.36231203217765
 s    3 1.00
             7.8682724   -0.11933240861517
             1.8812885   -0.16085421161283
             0.5442493     1.1434564825515
 s    1 1.00
             0.1687144                   1
 p    3 1.00
             7.8682724   0.068999095584993
             1.8812885    0.31642397975315
             0.5442493    0.74430825237435
 p    1 1.00
             0.1687144                   1
 d    1 1.00
                   0.8                   1

34 0
 s    6 1.00
             3047.5249  0.0018347001629433
             457.36951    0.01403730124668
             103.94869   0.068842606114048
             29.210155    0.23218442062076
              9.286663    0.46794134155879
              3.163927    0.36231203217765
 s    3 1.00
             7.8682724   -0.11933240861517
             1.8812885   -0.16085421161283
             0.5442493     1.1434564825515
 s    1 1.00
             0.1687144                   1
 p    3 1.00
             7.8682724   0.068999095584993
             1.8812885    0.31642397975315
             0.5442493    0.74430825237435
 p    1 1.00
             0.1687144                   1
 d    1 1.00
                   0.8                   1

35 0
 s    3 1.00
             18.731137    0.03349459952309
             2.8253937    0.23472694665786
             0.6401217    0.81375731841339
 s    1 1.00
             0.1612778                   1

36 0
 s    6 1.00
             3047.5249  0.0018347001629433
             457.36951    0.01403730124668
             103.94869   0.068842606114048
             29.210155    0.23218442062076
              9.286663    0.46794134155879
              3.163927    0.36231203217765
 s    3 1.00
             7.8682724   -0.11933240861517
             1.8812885   -0.16085421161283
             0.5442493     1.1434564825515
 s    1 1.00
             0.1687144                   1
 p    3 1.00
             7.8682724   0.068999095584993
             1.8812885    0.31642397975315
             0.5442493    0.74430825237435
 p    1 1.00
             0.1687144                   1
 d    1 1.00
                   0.8                   1

37 0
 s    3 1.00
             18.731137    0.03349459952309
             2.8253937    0.23472694665786
             0.6401217    0.81375731841339
 s    1 1.00
             0.1612778                   1

38 0
 s    3 1.00
             18.731137    0.03349459952309
             2.8253937    0.23472694665786
             0.6401217    0.81375731841339
 s    1 1.00
             0.1612778                   1

39 0
 s    6 1.00
             3047.5249  0.0018347001629433
             457.36951    0.01403730124668
             103.94869   0.068842606114048
             29.210155    0.23218442062076
              9.286663    0.46794134155879
              3.163927    0.36231203217765
 s    3 1.00
             7.8682724   -0.11933240861517
             1.8812885   -0.16085421161283
             0.5442493     1.1434564825515
 s    1 1.00
             0.1687144                   1
 p    3 1.00
             7.8682724   0.068999095584993
             1.8812885    0.31642397975315
             0.5442493    0.74430825237435
 p    1 1.00
             0.1687144                   1
 d    1 1.00
                   0.8                   1

40 0
 s    6 1.00
             3047.5249  0.0018347001629433
             457.36951    0.01403730124668
             103.94869   0.068842606114048
             29.210155    0.23218442062076
              9.286663    0.46794134155879
              3.163927    0.36231203217765
 s    3 1.00
             7.8682724   -0.11933240861517
             1.8812885   -0.16085421161283
             0.5442493     1.1434564825515
 s    1 1.00
             0.1687144                   1
 p    3 1.00
             7.8682724   0.068999095584993
             1.8812885    0.31642397975315
             0.5442493    0.74430825237435
 p    1 1.00
             0.1687144                   1
 d    1 1.00
                   0.8                   1

41 0
 s    3 1.00
             18.731137    0.03349459952309
             2.8253937    0.23472694665786
             0.6401217    0.81375731841339
 s    1 1.00
             0.1612778                   1

42 0
 s    6 1.00
             5484.6717   0.001831099805527
             825.23495   0.013950098518422
             188.04696    0.06844509273075
               52.9645    0.23271427528445
              16.89757    0.47019295006289
             5.7996353    0.35852086192309
 s    3 1.00
             15.539616   -0.11077750382508
             3.5999336   -0.14802630511126
             1.0137618     1.1307670390447
 s    1 1.00
             0.2700058                   1
 p    3 1.00
             15.539616   0.070874299543311
             3.5999336    0.33975279781076
             1.0137618    0.72715859531445
 p    1 1.00
             0.2700058                   1
 d    1 1.00
                   0.8                   1

43 0
 s    3 1.00
             18.731137    0.03349459952309
             2.8253937    0.23472694665786
             0.6401217    0.81375731841339
 s    1 1.00
             0.1612778                   1

[5d]
[7f]
[9g]

[MO]
 Sym= A
 Ene=               0
 Spin= Alpha
 Occup=    1.00000
   1    -5.0736566119504e-07
   2    -2.1794370960313e-05
   3    6.288218934824e-06
   4    -9.6755537717219e-07
   5    -1.227923058954e-05
   6    2.0841849171638e-05
   7    3.013377412071e-05
   8    8.3903666604196e-05
   9    -0.0003683621965546
  10    6.7891353903981e-07
  11    1.0566097471431e-05
  12    2.3035657345472e-06
  13    1.3451307081061e-05
  14    -7.4014190102585e-06
  15    -1.4881540119361e-05
  16    1.6477350840412e-05
  17    5.1349672007924e-06
  18    0.00016356593329598
  19    0.00042691170890322
  20    5.8486228093787e-05
  21    -3.1990650466926e-06
  22    -7.8413935656905e-05
  23    0.00016531587781945
  24    -9.783225541825e-05
  25    -0.00061123472203005
  26    1.8939719095132e-05
  27    -2.1863455154997e-05
  28    8.3066295813074e-06
  29    4.0790140864138e-05
  30    -2.2035591654202e-06
  31    -9.5191095719492e-06
  32    3.1347292697823e-05
  33    7.6545258704506e-05
  34    0.00028371285550915
  35    -0.0043603433702269
  36    -0.00011290834080259
  37    7.904101255829e-05
  38    0.00020791852351779
  39    -0.00045317499429833
  40    0.0019041613202781
  41    0.00054942402062142
  42    -2.4402758113799e-05
  43    0.00010418753545678
  44    -6.7530123080111e-05
  45    2.9343160139803e-05
  46    5.1678450728424e-05
  47    -9.9656805511236e-06
  48    -0.00024888820303107
  49    -5.3629377820385e-05
  50    0.00030777042528325
  51    0.0035961636105337
  52    0.0002887063190492
  53    -0.00033741672207611
  54    -0.00042824940069802
  55    -0.0015995307416619
  56    0.0024655692230862
  57    0.0021736310412085
  58    -1.9013176993684e-05
  59    3.2866128557088e-05
  60    0.00017951333918658
  61    2.0093359985446e-05
  62    -0.00011299145077552
  63    0.00039400595531974
  64    0.00013603431012343
  65    -2.3324700515202e-07
  66    -4.6767488647968e-07
  67    -6.1472704157756e-08
  68    -4.9915988377192e-07
  69    2.8772563617551e-06
  70    3.0411298546634e-07
  71    -3.9327081424613e-07
  72    8.9863385932384e-08
  73    3.4058000165797e-07
  74    1.2855947694159e-06
  75    2.4712019781441e-07
  76    -4.8969633619069e-08
  77    -1.2694072787248e-07
  78    4.7601418054133e-08
  79    6.6698681703672e-08
  80    -1.0449709949897e-07
  81     8.64050579845e-08
  82    -1.8941436982411e-08
  83    -2.4015993689089e-08
  84    -1.0400475569138e-07
  85    -1.2313915404942e-05
  86    5.4821996450034e-07
  87    6.7787070474033e-08
  88    6.8381955679322e-07
  89    3.2808459863124e-06
  90    -4.4463038422252e-06
  91    2.6760884552589e-06
  92    1.8556779543262e-07
  93    -3.1324592672894e-07
  94    2.876262155819e-07
  95    2.0433197247061e-08
  96    -1.9123636549917e-07
  97    3.7523123082686e-07
  98    2.640125200021e-08
  99    1.2294635432161e-07
 100    -6.6384609236457e-07
 101    3.7602207356634e-08
 102    -1.1798352601973e-06
 103    1.3382407406737e-05
 104    1.0636491242308e-06
 105    2.0313629825935e-07
 106    -5.1164396719893e-07
 107    -1.8351385716983e-05
 108    1.8817374075835e-05
 109    2.8928847360439e-05
 110    -5.5576278445162e-07
 111    -4.9355612114406e-07
 112    2.4249554691982e-07
 113    3.9786001302165e-07
 114    -4.8441215589875e-07
 115    -5.0664317215908e-07
 116    -4.3630518960113e-06
 117    3.5684554175439e-05
 118    -6.8207547397931e-07
 119    1.0622289968832e-06
 120    6.0315723560884e-07
 121    -8.1360590150512e-06
 122    7.8697450910057e-07
 123    2.5546166321204e-06
 124    -5.5464909567239e-08
 125    -1.6234750731927e-07
 126    -9.7605857192771e-08
 127    4.6036267944374e-08
 128    -3.7116861442429e-07
 129    -8.4191467959695e-07
 130    -8.7135548058046e-06
 131    4.8578489841987e-05
 132    -1.9853243943605e-07
 133    -1.3820716284679e-06
 134    3.6185953898479e-06
 135    -2.4895831680201e-05
 136    2.7032523780674e-07
 137    -7.7855557367262e-05
 138    2.4596105309562e-06
 139    1.4370289637924e-06
 140    4.1831003358483e-07
 141    4.4117673281536e-07
 142    1.8892000830811e-07
 143    -5.1675229471086e-07
 144    -3.3183027633041e-06
 145    1.8973901808827e-05
 146    6.1480178595618e-07
 147    5.7194257471979e-07
 148    -2.0906010671783e-08
 149    1.1639088998443e-05
 150    -6.042320475275e-06
 151    -2.8403883110689e-06
 152    -1.0307957209102e-06
 153    -3.354254229562e-07
 154    -9.6443437739775e-08
 155    6.6936279716604e-07
 156    -7.4519531171328e-07
 157    -1.3310791717019e-08
 158    1.125891292854e-06
 159    1.221583196045e-06
 160    7.6067851458556e-07
 161    -3.3945924040382e-07
 162    -2.3496997427939e-07
 163    -6.3809847123654e-06
 164    2.9084238926511e-07
 165    8.1008610105751e-07
 166    4.0412032984818e-07
 167    -1.0889166741031e-07
 168    -9.964262805563e-09
 169    -1.0870564546743e-07
 170    2.7649579316486e-07
 171    7.2467354861755e-08
 172    -5.2939958082264e-07
 173    -1.6362606756651e-06
 174    -8.3232091546492e-07
 175    -2.6355373159632e-07
 176    8.0815487885274e-07
 177    -2.4709462775135e-07
 178    1.3238119234708e-06
 179    -1.9077352328587e-06
 180    1.3645835937906e-07
 181    1.7686195788312e-07
 182    1.3701758786141e-08
 183    -3.5286127243964e-07
 184    1.7178115440391e-07
 185    -2.6225571239709e-07
 186    -3.0138874468782e-06
 187    2.0705187460386e-06
 188    -1.475671790211e-07
 189    1.4957392543896e-07
 190    1.2187548595115e-06
 191    2.6052098582465e-06
 192    7.5630241623441e-07
 193    -5.3292571560086e-06
 194    3.4098959750514e-07
 195    -5.4222429208245e-08
 196    1.7252224162642e-07
 197    7.1487064584997e-08
 198    -9.7530612046425e-08
 199    -7.9717762294363e-07
 200    -1.4278581446129e-06
 201    1.6625696516008e-07
 202    3.6139108044154e-06
 203    -1.5695400642094e-06
 204    -1.6222097492186e-06
 205    -4.8761272672077e-07
 206    -2.8110395053608e-06
 207    1.4334102252444e-06
 208    -1.1585703222892e-05
 209    1.1482960491285e-06
 210    -4.2854601316182e-06
 211    4.8280662136071e-07
 212    2.6821769363756e-06
 213    -3.8417149704027e-07
 214    -2.7170185338158e-06
 215    -5.8510088179822e-07
 216    5.6369197544691e-07
 217    4.3515956739078e-07
 218    1.2865503938136e-06
 219    2.143586976143e-07
 220    9.3457333408887e-07
 221    -8.8908144464126e-07
 222    -7.7219275870617e-06
 223    -2.7517442904629e-06
 224    1.319682357858e-06
 225    -3.2851287627372e-06
 226    2.6646489542779e-06
 227    1.3887630347382e-05
 228    2.2982282151615e-05
 229    -9.3527170993527e-05
 230    -1.1551279179362e-06
 231    -3.944184215753e-06
 232    -2.147767530649e-06
 233    1.7204823784745e-06
 234    2.8311903630504e-06
 235    -8.6144450649963e-07
 236    -1.1687689541994e-05
 237    1.9499776202583e-05
 238    -1.7770254721023e-06
 239    6.9282961064093e-06
 240    5.8842109669841e-06
 241    -2.001962381249e-05
 242    -4.2063036980684e-06
 243    -8.7214830048568e-05
 244    1.7328613862564e-06
 245    6.6284437772315e-06
 246    1.7022502578077e-06
 247    2.4275576432541e-06
 248    1.5094134694256e-06
 249    -3.9452263166478e-06
 250    1.0483419267372e-05
 251    -4.4695340490414e-06
 252    -2.7038385168186e-05
 253    0.00024991605807993
 254    5.2951600407386e-06
 255    -5.1415416455828e-06
 256    4.3392557922532e-06
 257    0.0001077638152498
 258    0.00010646900050507
 259    -0.00023371594615666
 260    1.8881227358234e-06
 261    -1.2078831583491e-05
 262    -5.0443803218732e-06
 263    7.5808906730869e-06
 264    5.9528297419402e-06
 265    -4.9392062631933e-06
 266    2.651439784527e-05
 267    -8.0102884352605e-06
 268    3.9366658790514e-05
 269    -6.8545281322958e-05
 270    2.4404369677166e-05
 271    0.0031104710287961
 272    -0.00011170623887872
 273    -0.00024105005325572
 274    0.00014130587443395
 275    0.0020077253911177
 276    0.00057486137201523
 277    -0.003221333032057
 278    0.00021806829835765
 279    -0.00021153540039907
 280    0.00014371907685181