[Molden Format]
made by pyscf v[2.0.1]
[Atoms] (AU)
C   1   6     0.69100024066471     0.64692934207205    -3.48223131169301
H   2   1     2.68052439830868     1.13355088658700    -3.25784032593313
C   3   6    -0.36286361513219     0.85440132524594    -5.97030179418974
H   4   1    -2.35448549047279     0.36322488579172    -6.17995817793143
C   5   6     0.93697958957450     1.61209284601821    -8.05828437677121
H   6   1     1.09182490265505     3.62435627880799    -8.46787148771875
C   7   6     2.13423629966321    -0.10744231105711    -9.78050935942977
H   8   1     1.96390963868834    -2.11762116447114    -9.34474333768613
H   9   1     1.55630230933075    -1.92953025305990    12.99630010416247
C   10   6     0.75233899775814    -2.21270439606481    11.10705728102219
H   11   1    -0.43433408177274    -3.90944857546550    11.22216085340412
C   12   6     2.86362581178706    -2.63237380607947     9.17926416456045
H   13   1     4.39038949912609    -1.24955421540245     9.49899813497433
H   14   1     3.74629220191363    -4.48798724300892     9.47414880959024
C   15   6     2.02478325613682    -2.42177285709634     6.44560829588644
C   16   6     3.88048732735477    -3.58795445234514     4.61402886975252
C   17   6    -0.18412382258602    -1.30464291234259     5.76021113872346
C   18   6    -2.10044360464350    -0.26837831858460     7.71610340967100
C   19   6    -3.08956938670431     2.35282328359417     6.88693925039594
C   20   6    -4.37372924086464    -2.09766595989678     7.93610724222001
C   21   6    -0.83850430601230     0.06372213486173    10.33002307638377
H   22   1     0.38411922151109     1.74281358582432    10.27380136542181
H   23   1    -2.30980003007874     0.45460143924521    11.73986301809809
H   24   1     4.58527064644668    -5.38706904487420     5.36778158031719
H   25   1     5.54944938085014    -2.37631462192748     4.35398898413318
H   26   1     3.06633019150423    -3.94118377050688     2.75255466040884
H   27   1    -4.17727778763735     2.26573369139522     5.12914900961283
H   28   1    -1.52662344944051     3.68001877445626     6.59540397144508
H   29   1    -4.32916174397830     3.13643051467482     8.35225460090378
H   30   1    -5.32329548508442    -2.36691813602939     6.11583672749896
H   31   1    -5.77989366602257    -1.33896741843465     9.25748940450990
H   32   1    -3.79310905208926    -3.96389819310853     8.61386170102686
C   33   6    -1.01100794811226    -1.06331657314144     3.11929490449947
C   34   6     0.37686231036534    -0.33275864505552     1.09165013605873
H   35   1    -3.01671213906703    -1.40297922279997     2.77827895090944
C   36   6    -0.64382707979370    -0.11591880174385    -1.42063131251064
H   37   1     2.35569259782137     0.17174499283897     1.33641070251401
H   38   1    -2.63317482980319    -0.60229203511219    -1.66119700387645
C   39   6     3.44427310754987     0.55955226130243   -11.88185544133447
C   40   6     4.59546774580895    -1.33837842065929   -13.51881378425706
H   41   1     3.68484150802705     2.52824088205540   -12.42422090941845
O   42   8     5.79494197127018    -0.87330187518197   -15.43343894779829
H   43   1     4.30216020100717    -3.32855150553013   -12.89162904717628
[GTO]
1 0
 s    6 1.00
             3047.5249  0.0018347001629433
             457.36951    0.01403730124668
             103.94869   0.068842606114048
             29.210155    0.23218442062076
              9.286663    0.46794134155879
              3.163927    0.36231203217765
 s    3 1.00
             7.8682724   -0.11933240861517
             1.8812885   -0.16085421161283
             0.5442493     1.1434564825515
 s    1 1.00
             0.1687144                   1
 p    3 1.00
             7.8682724   0.068999095584993
             1.8812885    0.31642397975315
             0.5442493    0.74430825237435
 p    1 1.00
             0.1687144                   1
 d    1 1.00
                   0.8                   1

2 0
 s    3 1.00
             18.731137    0.03349459952309
             2.8253937    0.23472694665786
             0.6401217    0.81375731841339
 s    1 1.00
             0.1612778                   1

3 0
 s    6 1.00
             3047.5249  0.0018347001629433
             457.36951    0.01403730124668
             103.94869   0.068842606114048
             29.210155    0.23218442062076
              9.286663    0.46794134155879
              3.163927    0.36231203217765
 s    3 1.00
             7.8682724   -0.11933240861517
             1.8812885   -0.16085421161283
             0.5442493     1.1434564825515
 s    1 1.00
             0.1687144                   1
 p    3 1.00
             7.8682724   0.068999095584993
             1.8812885    0.31642397975315
             0.5442493    0.74430825237435
 p    1 1.00
             0.1687144                   1
 d    1 1.00
                   0.8                   1

4 0
 s    3 1.00
             18.731137    0.03349459952309
             2.8253937    0.23472694665786
             0.6401217    0.81375731841339
 s    1 1.00
             0.1612778                   1

5 0
 s    6 1.00
             3047.5249  0.0018347001629433
             457.36951    0.01403730124668
             103.94869   0.068842606114048
             29.210155    0.23218442062076
              9.286663    0.46794134155879
              3.163927    0.36231203217765
 s    3 1.00
             7.8682724   -0.11933240861517
             1.8812885   -0.16085421161283
             0.5442493     1.1434564825515
 s    1 1.00
             0.1687144                   1
 p    3 1.00
             7.8682724   0.068999095584993
             1.8812885    0.31642397975315
             0.5442493    0.74430825237435
 p    1 1.00
             0.1687144                   1
 d    1 1.00
                   0.8                   1

6 0
 s    3 1.00
             18.731137    0.03349459952309
             2.8253937    0.23472694665786
             0.6401217    0.81375731841339
 s    1 1.00
             0.1612778                   1

7 0
 s    6 1.00
             3047.5249  0.0018347001629433
             457.36951    0.01403730124668
             103.94869   0.068842606114048
             29.210155    0.23218442062076
              9.286663    0.46794134155879
              3.163927    0.36231203217765
 s    3 1.00
             7.8682724   -0.11933240861517
             1.8812885   -0.16085421161283
             0.5442493     1.1434564825515
 s    1 1.00
             0.1687144                   1
 p    3 1.00
             7.8682724   0.068999095584993
             1.8812885    0.31642397975315
             0.5442493    0.74430825237435
 p    1 1.00
             0.1687144                   1
 d    1 1.00
                   0.8                   1

8 0
 s    3 1.00
             18.731137    0.03349459952309
             2.8253937    0.23472694665786
             0.6401217    0.81375731841339
 s    1 1.00
             0.1612778                   1

9 0
 s    3 1.00
             18.731137    0.03349459952309
             2.8253937    0.23472694665786
             0.6401217    0.81375731841339
 s    1 1.00
             0.1612778                   1

10 0
 s    6 1.00
             3047.5249  0.0018347001629433
             457.36951    0.01403730124668
             103.94869   0.068842606114048
             29.210155    0.23218442062076
              9.286663    0.46794134155879
              3.163927    0.36231203217765
 s    3 1.00
             7.8682724   -0.11933240861517
             1.8812885   -0.16085421161283
             0.5442493     1.1434564825515
 s    1 1.00
             0.1687144                   1
 p    3 1.00
             7.8682724   0.068999095584993
             1.8812885    0.31642397975315
             0.5442493    0.74430825237435
 p    1 1.00
             0.1687144                   1
 d    1 1.00
                   0.8                   1

11 0
 s    3 1.00
             18.731137    0.03349459952309
             2.8253937    0.23472694665786
             0.6401217    0.81375731841339
 s    1 1.00
             0.1612778                   1

12 0
 s    6 1.00
             3047.5249  0.0018347001629433
             457.36951    0.01403730124668
             103.94869   0.068842606114048
             29.210155    0.23218442062076
              9.286663    0.46794134155879
              3.163927    0.36231203217765
 s    3 1.00
             7.8682724   -0.11933240861517
             1.8812885   -0.16085421161283
             0.5442493     1.1434564825515
 s    1 1.00
             0.1687144                   1
 p    3 1.00
             7.8682724   0.068999095584993
             1.8812885    0.31642397975315
             0.5442493    0.74430825237435
 p    1 1.00
             0.1687144                   1
 d    1 1.00
                   0.8                   1

13 0
 s    3 1.00
             18.731137    0.03349459952309
             2.8253937    0.23472694665786
             0.6401217    0.81375731841339
 s    1 1.00
             0.1612778                   1

14 0
 s    3 1.00
             18.731137    0.03349459952309
             2.8253937    0.23472694665786
             0.6401217    0.81375731841339
 s    1 1.00
             0.1612778                   1

15 0
 s    6 1.00
             3047.5249  0.0018347001629433
             457.36951    0.01403730124668
             103.94869   0.068842606114048
             29.210155    0.23218442062076
              9.286663    0.46794134155879
              3.163927    0.36231203217765
 s    3 1.00
             7.8682724   -0.11933240861517
             1.8812885   -0.16085421161283
             0.5442493     1.1434564825515
 s    1 1.00
             0.1687144                   1
 p    3 1.00
             7.8682724   0.068999095584993
             1.8812885    0.31642397975315
             0.5442493    0.74430825237435
 p    1 1.00
             0.1687144                   1
 d    1 1.00
                   0.8                   1

16 0
 s    6 1.00
             3047.5249  0.0018347001629433
             457.36951    0.01403730124668
             103.94869   0.068842606114048
             29.210155    0.23218442062076
              9.286663    0.46794134155879
              3.163927    0.36231203217765
 s    3 1.00
             7.8682724   -0.11933240861517
             1.8812885   -0.16085421161283
             0.5442493     1.1434564825515
 s    1 1.00
             0.1687144                   1
 p    3 1.00
             7.8682724   0.068999095584993
             1.8812885    0.31642397975315
             0.5442493    0.74430825237435
 p    1 1.00
             0.1687144                   1
 d    1 1.00
                   0.8                   1

17 0
 s    6 1.00
             3047.5249  0.0018347001629433
             457.36951    0.01403730124668
             103.94869   0.068842606114048
             29.210155    0.23218442062076
              9.286663    0.46794134155879
              3.163927    0.36231203217765
 s    3 1.00
             7.8682724   -0.11933240861517
             1.8812885   -0.16085421161283
             0.5442493     1.1434564825515
 s    1 1.00
             0.1687144                   1
 p    3 1.00
             7.8682724   0.068999095584993
             1.8812885    0.31642397975315
             0.5442493    0.74430825237435
 p    1 1.00
             0.1687144                   1
 d    1 1.00
                   0.8                   1

18 0
 s    6 1.00
             3047.5249  0.0018347001629433
             457.36951    0.01403730124668
             103.94869   0.068842606114048
             29.210155    0.23218442062076
              9.286663    0.46794134155879
              3.163927    0.36231203217765
 s    3 1.00
             7.8682724   -0.11933240861517
             1.8812885   -0.16085421161283
             0.5442493     1.1434564825515
 s    1 1.00
             0.1687144                   1
 p    3 1.00
             7.8682724   0.068999095584993
             1.8812885    0.31642397975315
             0.5442493    0.74430825237435
 p    1 1.00
             0.1687144                   1
 d    1 1.00
                   0.8                   1

19 0
 s    6 1.00
             3047.5249  0.0018347001629433
             457.36951    0.01403730124668
             103.94869   0.068842606114048
             29.210155    0.23218442062076
              9.286663    0.46794134155879
              3.163927    0.36231203217765
 s    3 1.00
             7.8682724   -0.11933240861517
             1.8812885   -0.16085421161283
             0.5442493     1.1434564825515
 s    1 1.00
             0.1687144                   1
 p    3 1.00
             7.8682724   0.068999095584993
             1.8812885    0.31642397975315
             0.5442493    0.74430825237435
 p    1 1.00
             0.1687144                   1
 d    1 1.00
                   0.8                   1

20 0
 s    6 1.00
             3047.5249  0.0018347001629433
             457.36951    0.01403730124668
             103.94869   0.068842606114048
             29.210155    0.23218442062076
              9.286663    0.46794134155879
              3.163927    0.36231203217765
 s    3 1.00
             7.8682724   -0.11933240861517
             1.8812885   -0.16085421161283
             0.5442493     1.1434564825515
 s    1 1.00
             0.1687144                   1
 p    3 1.00
             7.8682724   0.068999095584993
             1.8812885    0.31642397975315
             0.5442493    0.74430825237435
 p    1 1.00
             0.1687144                   1
 d    1 1.00
                   0.8                   1

21 0
 s    6 1.00
             3047.5249  0.0018347001629433
             457.36951    0.01403730124668
             103.94869   0.068842606114048
             29.210155    0.23218442062076
              9.286663    0.46794134155879
              3.163927    0.36231203217765
 s    3 1.00
             7.8682724   -0.11933240861517
             1.8812885   -0.16085421161283
             0.5442493     1.1434564825515
 s    1 1.00
             0.1687144                   1
 p    3 1.00
             7.8682724   0.068999095584993
             1.8812885    0.31642397975315
             0.5442493    0.74430825237435
 p    1 1.00
             0.1687144                   1
 d    1 1.00
                   0.8                   1

22 0
 s    3 1.00
             18.731137    0.03349459952309
             2.8253937    0.23472694665786
             0.6401217    0.81375731841339
 s    1 1.00
             0.1612778                   1

23 0
 s    3 1.00
             18.731137    0.03349459952309
             2.8253937    0.23472694665786
             0.6401217    0.81375731841339
 s    1 1.00
             0.1612778                   1

24 0
 s    3 1.00
             18.731137    0.03349459952309
             2.8253937    0.23472694665786
             0.6401217    0.81375731841339
 s    1 1.00
             0.1612778                   1

25 0
 s    3 1.00
             18.731137    0.03349459952309
             2.8253937    0.23472694665786
             0.6401217    0.81375731841339
 s    1 1.00
             0.1612778                   1

26 0
 s    3 1.00
             18.731137    0.03349459952309
             2.8253937    0.23472694665786
             0.6401217    0.81375731841339
 s    1 1.00
             0.1612778                   1

27 0
 s    3 1.00
             18.731137    0.03349459952309
             2.8253937    0.23472694665786
             0.6401217    0.81375731841339
 s    1 1.00
             0.1612778                   1

28 0
 s    3 1.00
             18.731137    0.03349459952309
             2.8253937    0.23472694665786
             0.6401217    0.81375731841339
 s    1 1.00
             0.1612778                   1

29 0
 s    3 1.00
             18.731137    0.03349459952309
             2.8253937    0.23472694665786
             0.6401217    0.81375731841339
 s    1 1.00
             0.1612778                   1

30 0
 s    3 1.00
             18.731137    0.03349459952309
             2.8253937    0.23472694665786
             0.6401217    0.81375731841339
 s    1 1.00
             0.1612778                   1

31 0
 s    3 1.00
             18.731137    0.03349459952309
             2.8253937    0.23472694665786
             0.6401217    0.81375731841339
 s    1 1.00
             0.1612778                   1

32 0
 s    3 1.00
             18.731137    0.03349459952309
             2.8253937    0.23472694665786
             0.6401217    0.81375731841339
 s    1 1.00
             0.1612778                   1

33 0
 s    6 1.00
             3047.5249  0.0018347001629433
             457.36951    0.01403730124668
             103.94869   0.068842606114048
             29.210155    0.23218442062076
              9.286663    0.46794134155879
              3.163927    0.36231203217765
 s    3 1.00
             7.8682724   -0.11933240861517
             1.8812885   -0.16085421161283
             0.5442493     1.1434564825515
 s    1 1.00
             0.1687144                   1
 p    3 1.00
             7.8682724   0.068999095584993
             1.8812885    0.31642397975315
             0.5442493    0.74430825237435
 p    1 1.00
             0.1687144                   1
 d    1 1.00
                   0.8                   1

34 0
 s    6 1.00
             3047.5249  0.0018347001629433
             457.36951    0.01403730124668
             103.94869   0.068842606114048
             29.210155    0.23218442062076
              9.286663    0.46794134155879
              3.163927    0.36231203217765
 s    3 1.00
             7.8682724   -0.11933240861517
             1.8812885   -0.16085421161283
             0.5442493     1.1434564825515
 s    1 1.00
             0.1687144                   1
 p    3 1.00
             7.8682724   0.068999095584993
             1.8812885    0.31642397975315
             0.5442493    0.74430825237435
 p    1 1.00
             0.1687144                   1
 d    1 1.00
                   0.8                   1

35 0
 s    3 1.00
             18.731137    0.03349459952309
             2.8253937    0.23472694665786
             0.6401217    0.81375731841339
 s    1 1.00
             0.1612778                   1

36 0
 s    6 1.00
             3047.5249  0.0018347001629433
             457.36951    0.01403730124668
             103.94869   0.068842606114048
             29.210155    0.23218442062076
              9.286663    0.46794134155879
              3.163927    0.36231203217765
 s    3 1.00
             7.8682724   -0.11933240861517
             1.8812885   -0.16085421161283
             0.5442493     1.1434564825515
 s    1 1.00
             0.1687144                   1
 p    3 1.00
             7.8682724   0.068999095584993
             1.8812885    0.31642397975315
             0.5442493    0.74430825237435
 p    1 1.00
             0.1687144                   1
 d    1 1.00
                   0.8                   1

37 0
 s    3 1.00
             18.731137    0.03349459952309
             2.8253937    0.23472694665786
             0.6401217    0.81375731841339
 s    1 1.00
             0.1612778                   1

38 0
 s    3 1.00
             18.731137    0.03349459952309
             2.8253937    0.23472694665786
             0.6401217    0.81375731841339
 s    1 1.00
             0.1612778                   1

39 0
 s    6 1.00
             3047.5249  0.0018347001629433
             457.36951    0.01403730124668
             103.94869   0.068842606114048
             29.210155    0.23218442062076
              9.286663    0.46794134155879
              3.163927    0.36231203217765
 s    3 1.00
             7.8682724   -0.11933240861517
             1.8812885   -0.16085421161283
             0.5442493     1.1434564825515
 s    1 1.00
             0.1687144                   1
 p    3 1.00
             7.8682724   0.068999095584993
             1.8812885    0.31642397975315
             0.5442493    0.74430825237435
 p    1 1.00
             0.1687144                   1
 d    1 1.00
                   0.8                   1

40 0
 s    6 1.00
             3047.5249  0.0018347001629433
             457.36951    0.01403730124668
             103.94869   0.068842606114048
             29.210155    0.23218442062076
              9.286663    0.46794134155879
              3.163927    0.36231203217765
 s    3 1.00
             7.8682724   -0.11933240861517
             1.8812885   -0.16085421161283
             0.5442493     1.1434564825515
 s    1 1.00
             0.1687144                   1
 p    3 1.00
             7.8682724   0.068999095584993
             1.8812885    0.31642397975315
             0.5442493    0.74430825237435
 p    1 1.00
             0.1687144                   1
 d    1 1.00
                   0.8                   1

41 0
 s    3 1.00
             18.731137    0.03349459952309
             2.8253937    0.23472694665786
             0.6401217    0.81375731841339
 s    1 1.00
             0.1612778                   1

42 0
 s    6 1.00
             5484.6717   0.001831099805527
             825.23495   0.013950098518422
             188.04696    0.06844509273075
               52.9645    0.23271427528445
              16.89757    0.47019295006289
             5.7996353    0.35852086192309
 s    3 1.00
             15.539616   -0.11077750382508
             3.5999336   -0.14802630511126
             1.0137618     1.1307670390447
 s    1 1.00
             0.2700058                   1
 p    3 1.00
             15.539616   0.070874299543311
             3.5999336    0.33975279781076
             1.0137618    0.72715859531445
 p    1 1.00
             0.2700058                   1
 d    1 1.00
                   0.8                   1

43 0
 s    3 1.00
             18.731137    0.03349459952309
             2.8253937    0.23472694665786
             0.6401217    0.81375731841339
 s    1 1.00
             0.1612778                   1

[5d]
[7f]
[9g]

[MO]
 Sym= A
 Ene=               0
 Spin= Alpha
 Occup=    1.00000
   1    -5.00639371839e-07
   2    -2.2348808003073e-05
   3    1.3764283907209e-05
   4    -1.1204722599088e-06
   5    -1.115893040976e-05
   6    2.1069145568304e-05
   7    2.6818006811114e-05
   8    7.8881291461531e-05
   9    -0.00036625268199369
  10    6.534163935978e-07
  11    1.0612848419707e-05
  12    2.4535581456525e-06
  13    1.3411846628213e-05
  14    -7.3577063823801e-06
  15    -1.4801004242558e-05
  16    1.7332809283431e-05
  17    5.1109860900263e-06
  18    0.0001631805719803
  19    0.00042847336994129
  20    5.8091806667565e-05
  21    -3.6468739931449e-06
  22    -7.8518189006877e-05
  23    0.00016202417859151
  24    -9.4936300012475e-05
  25    -0.00061706752195179
  26    1.9011998879908e-05
  27    -2.1790893956028e-05
  28    7.7543634474198e-06
  29    4.0911082323624e-05
  30    -3.0829987169869e-06
  31    -9.3212204015643e-06
  32    3.0473032710337e-05
  33    7.6512275020451e-05
  34    0.00028327406305833
  35    -0.0043615247525873
  36    -0.00011086606840104
  37    7.8998594800406e-05
  38    0.00020896923411239
  39    -0.00042164867866194
  40    0.0019045673414575
  41    0.00056730586789821
  42    -2.6308701884676e-05
  43    0.00010333191947388
  44    -6.9202215241207e-05
  45    3.0708753214025e-05
  46    4.9388381232457e-05
  47    -9.7933688814871e-06
  48    -0.00024867202762613
  49    -5.3610677601347e-05
  50    0.00030779753412515
  51    0.0035950995425109
  52    0.00028172280602569
  53    -0.00033768586226414
  54    -0.00043272248312549
  55    -0.0015524748411448
  56    0.0024680593484956
  57    0.0022026080770142
  58    -1.66283299591e-05
  59    3.4204873363787e-05
  60    0.00017966979792332
  61    1.8684319670788e-05
  62    -0.00011293677717546
  63    0.00039401673465341
  64    0.00013596295923693
  65    -2.3407976928667e-07
  66    -4.6475896616998e-07
  67    -6.0391572519229e-08
  68    -4.9853842273217e-07
  69    2.8853571901961e-06
  70     3.00835697863e-07
  71    -3.8933689589059e-07
  72    8.7462745923676e-08
  73    3.2996157330275e-07
  74    1.2922148843116e-06
  75    2.5482879278549e-07
  76    -4.8544135932299e-08
  77    -1.2632601526473e-07
  78    4.7873611811419e-08
  79    6.7551986450478e-08
  80    -1.0334746514092e-07
  81    8.4887312814565e-08
  82    -1.3863255318146e-08
  83    -2.2052238659816e-08
  84    -9.6552133643247e-08
  85    -1.2162277053505e-05
  86    5.4164993142542e-07
  87    7.5584162671254e-08
  88    6.8087225188725e-07
  89    3.2714748854302e-06
  90    -4.4459054599271e-06
  91    2.6239537345979e-06
  92    1.8350145310416e-07
  93    -3.1001933751109e-07
  94    2.8610996065836e-07
  95    1.8996748169914e-08
  96    -1.8784142218611e-07
  97    3.8101140228764e-07
  98    5.8805072537149e-08
  99    1.1149134639901e-07
 100    -6.8198830510089e-07
 101    3.0908501568027e-08
 102    -1.1974877736253e-06
 103    1.3638189185285e-05
 104    1.017441792364e-06
 105    1.6690178220128e-07
 106    -4.9956153961278e-07
 107    -1.8278048861586e-05
 108    1.8610880403089e-05
 109    2.8449099269052e-05
 110    -5.5186121090341e-07
 111    -4.8752907459112e-07
 112    2.4015146949386e-07
 113    4.0878650163353e-07
 114    -4.800203900335e-07
 115    -5.0481784247035e-07
 116    -4.3558795844906e-06
 117    3.5456499351024e-05
 118    -6.7560794014097e-07
 119    1.0649285990751e-06
 120    5.9954008106285e-07
 121    -8.007439994619e-06
 122    6.7969752086819e-07
 123    2.4099320244442e-06
 124    -5.2391137060762e-08
 125    -1.5468815549965e-07
 126     -1.0322788988e-07
 127    3.9299485650694e-08
 128    -3.6262817132482e-07
 129    -8.3387022540694e-07
 130    -8.6702091848555e-06
 131    4.7702530979593e-05
 132    -1.8808675605499e-07
 133    -1.3979208390365e-06
 134    3.6154384975624e-06
 135    -2.486496846504e-05
 136    5.9249231173947e-07
 137    -7.6775297514501e-05
 138    2.4327213290892e-06
 139    1.4129864015498e-06
 140    4.1265767917137e-07
 141    4.3470954477985e-07
 142    1.907562804202e-07
 143    -5.0149142451121e-07
 144    -3.220902126978e-06
 145    1.835251988606e-05
 146    6.126100558557e-07
 147    5.8861600022652e-07
 148    -1.8274650713682e-08
 149    1.1338736604172e-05
 150    -6.1572168889267e-06
 151    -2.6391782971012e-06
 152    -1.0276559167374e-06
 153    -3.2823579846412e-07
 154    -9.2342889866632e-08
 155    6.6413815176459e-07
 156    -7.2851890468055e-07
 157    -1.305010872054e-08
 158    1.1005723743065e-06
 159    1.3680588858677e-06
 160    7.6132965427734e-07
 161    -3.4317859328247e-07
 162    -2.1670961323797e-07
 163    -6.2617429565985e-06
 164    2.1573122885807e-07
 165    7.9840966005994e-07
 166    3.9358036032208e-07
 167    -9.9747361746283e-08
 168    -1.1506507385463e-08
 169    -1.091318303593e-07
 170    2.6819506835847e-07
 171    7.1838398979458e-08
 172    -5.2010917149266e-07
 173    -1.7032003697067e-06
 174    -8.2828634208236e-07
 175    -2.5687588841452e-07
 176    8.0223666392322e-07
 177    -2.6461992937308e-07
 178    1.2803697265886e-06
 179    -1.9320955893751e-06
 180    1.3819620593041e-07
 181    1.7479546664906e-07
 182    8.7410006708533e-09
 183    -3.5153178538626e-07
 184    1.6911276961371e-07
 185    -2.608442595392e-07
 186    -2.9890256163737e-06
 187    2.0992031378894e-06
 188    -1.496056835772e-07
 189    1.4770645078234e-07
 190    1.2004243439884e-06
 191    2.601557313963e-06
 192    7.9942015891266e-07
 193    -5.3375954832856e-06
 194    3.4466093483065e-07
 195    -5.383168228947e-08
 196    1.6373813576319e-07
 197    6.8370856537119e-08
 198    -9.6041942424243e-08
 199    -7.9447162983477e-07
 200    -1.4375575628524e-06
 201    1.6484646461104e-07
 202    3.5813671986941e-06
 203    -1.5734248814588e-06
 204    -1.6577882160695e-06
 205    -4.8087035569029e-07
 206    -2.7756268995328e-06
 207    1.4684167690427e-06
 208    -1.1780889499728e-05
 209    1.1266009543788e-06
 210    -4.2365357444248e-06
 211    4.6606564236716e-07
 212    2.6573426054858e-06
 213    -3.7574078447247e-07
 214    -2.6811998060684e-06
 215    -5.8036297909199e-07
 216    5.3899843628833e-07
 217    4.3439946605954e-07
 218    1.2842393369777e-06
 219    2.0883543562688e-07
 220    9.3591578295599e-07
 221    -8.8789062584857e-07
 222    -7.6975933494606e-06
 223    -2.1236183204493e-06
 224    1.2524977576829e-06
 225    -3.1239065513359e-06
 226    2.6258983156352e-06
 227    1.4332902926648e-05
 228    2.2769200179697e-05
 229    -9.2203721933457e-05
 230    -1.1499625170329e-06
 231    -3.8898509461184e-06
 232    -2.1414163066621e-06
 233    1.7025941806435e-06
 234    2.8214933188298e-06
 235    -8.8357483680781e-07
 236    -1.1851099858719e-05
 237    2.107705976143e-05
 238    -1.770170280183e-06
 239    6.8293009342227e-06
 240    5.8379460770651e-06
 241    -1.9984310791615e-05
 242    -4.5064086143955e-06
 243    -8.8050622471314e-05
 244    1.834209545372e-06
 245    6.6067513289989e-06
 246    1.7585715832191e-06
 247    2.4098718451081e-06
 248    1.5763151517165e-06
 249    -3.8378128987753e-06
 250    1.0538956056456e-05
 251    -4.4159740140192e-06
 252    -2.6591090838703e-05
 253    0.00024297740774688
 254    5.4253728663057e-06
 255    -5.4694174746758e-06
 256    4.3393924110277e-06
 257    0.0001052000453444
 258    0.00010707804076233
 259    -0.00023127063183544
 260    1.7256951687113e-06
 261    -1.1954486736065e-05
 262    -5.1175139697372e-06
 263    7.4263509327823e-06
 264    6.102376605686e-06
 265    -4.9854132318466e-06
 266    2.6367157773409e-05
 267    -8.0086035140153e-06
 268    3.9295955866784e-05
 269    -6.8545549837766e-05
 270    2.4469499770472e-05
 271    0.0031101164403249
 272    -0.00011406572623298
 273    -0.00024067282654165
 274    0.0001400132085239
 275    0.0019995028649295
 276    0.00057506331028736
 277    -0.0032268252607418
 278    0.00022210378603755
 279    -0.00020926502019446
 280    0.00014188233580218