[Molden Format]
made by pyscf v[2.0.1]
[Atoms] (AU)
C   1   6     0.69100024066471     0.64692934207205    -3.48223131169301
H   2   1     2.68052439830868     1.13355088658700    -3.25784032593313
C   3   6    -0.36286361513219     0.85440132524594    -5.97030179418974
H   4   1    -2.35448549047279     0.36322488579172    -6.17995817793143
C   5   6     0.93697958957450     1.61209284601821    -8.05828437677121
H   6   1     2.04771873455416     3.34419409619576    -7.97445952172335
C   7   6     0.93181860145248     0.24539724069794   -10.40101785795171
H   8   1    -0.18866463604211    -1.48700602985521   -10.45595821195799
H   9   1     1.55630230933075    -1.92953025305990    12.99630010416247
C   10   6     0.75233899775814    -2.21270439606481    11.10705728102219
H   11   1    -0.43433408177274    -3.90944857546550    11.22216085340412
C   12   6     2.86362581178706    -2.63237380607947     9.17926416456045
H   13   1     4.39038949912609    -1.24955421540245     9.49899813497433
H   14   1     3.74629220191363    -4.48798724300892     9.47414880959024
C   15   6     2.02478325613682    -2.42177285709634     6.44560829588644
C   16   6     3.88048732735477    -3.58795445234514     4.61402886975252
C   17   6    -0.18412382258602    -1.30464291234259     5.76021113872346
C   18   6    -2.10044360464350    -0.26837831858460     7.71610340967100
C   19   6    -3.08956938670431     2.35282328359417     6.88693925039594
C   20   6    -4.37372924086464    -2.09766595989678     7.93610724222001
C   21   6    -0.83850430601230     0.06372213486173    10.33002307638377
H   22   1     0.38411922151109     1.74281358582432    10.27380136542181
H   23   1    -2.30980003007874     0.45460143924521    11.73986301809809
H   24   1     4.58527064644668    -5.38706904487420     5.36778158031719
H   25   1     5.54944938085014    -2.37631462192748     4.35398898413318
H   26   1     3.06633019150423    -3.94118377050688     2.75255466040884
H   27   1    -4.17727778763735     2.26573369139522     5.12914900961283
H   28   1    -1.52662344944051     3.68001877445626     6.59540397144508
H   29   1    -4.32916174397830     3.13643051467482     8.35225460090378
H   30   1    -5.32329548508442    -2.36691813602939     6.11583672749896
H   31   1    -5.77989366602257    -1.33896741843465     9.25748940450990
H   32   1    -3.79310905208926    -3.96389819310853     8.61386170102686
C   33   6    -1.01100794811226    -1.06331657314144     3.11929490449947
C   34   6     0.37686231036534    -0.33275864505552     1.09165013605873
H   35   1    -3.01671213906703    -1.40297922279997     2.77827895090944
C   36   6    -0.64382707979370    -0.11591880174385    -1.42063131251064
H   37   1     2.35569259782137     0.17174499283897     1.33641070251401
H   38   1    -2.63317482980319    -0.60229203511219    -1.66119700387645
C   39   6     2.19331151370285     0.92821726401642   -12.52684146370420
C   40   6     2.06658501336205    -0.59430170292716   -14.82312084011087
H   41   1     3.34297492540252     2.63137484242591   -12.59961951178576
O   42   8     3.14891962090165    -0.09254461622574   -16.79735885819125
H   43   1     0.86886987612456    -2.32059369084518   -14.66320417409860
[GTO]
1 0
 s    6 1.00
             3047.5249  0.0018347001629433
             457.36951    0.01403730124668
             103.94869   0.068842606114048
             29.210155    0.23218442062076
              9.286663    0.46794134155879
              3.163927    0.36231203217765
 s    3 1.00
             7.8682724   -0.11933240861517
             1.8812885   -0.16085421161283
             0.5442493     1.1434564825515
 s    1 1.00
             0.1687144                   1
 p    3 1.00
             7.8682724   0.068999095584993
             1.8812885    0.31642397975315
             0.5442493    0.74430825237435
 p    1 1.00
             0.1687144                   1
 d    1 1.00
                   0.8                   1

2 0
 s    3 1.00
             18.731137    0.03349459952309
             2.8253937    0.23472694665786
             0.6401217    0.81375731841339
 s    1 1.00
             0.1612778                   1

3 0
 s    6 1.00
             3047.5249  0.0018347001629433
             457.36951    0.01403730124668
             103.94869   0.068842606114048
             29.210155    0.23218442062076
              9.286663    0.46794134155879
              3.163927    0.36231203217765
 s    3 1.00
             7.8682724   -0.11933240861517
             1.8812885   -0.16085421161283
             0.5442493     1.1434564825515
 s    1 1.00
             0.1687144                   1
 p    3 1.00
             7.8682724   0.068999095584993
             1.8812885    0.31642397975315
             0.5442493    0.74430825237435
 p    1 1.00
             0.1687144                   1
 d    1 1.00
                   0.8                   1

4 0
 s    3 1.00
             18.731137    0.03349459952309
             2.8253937    0.23472694665786
             0.6401217    0.81375731841339
 s    1 1.00
             0.1612778                   1

5 0
 s    6 1.00
             3047.5249  0.0018347001629433
             457.36951    0.01403730124668
             103.94869   0.068842606114048
             29.210155    0.23218442062076
              9.286663    0.46794134155879
              3.163927    0.36231203217765
 s    3 1.00
             7.8682724   -0.11933240861517
             1.8812885   -0.16085421161283
             0.5442493     1.1434564825515
 s    1 1.00
             0.1687144                   1
 p    3 1.00
             7.8682724   0.068999095584993
             1.8812885    0.31642397975315
             0.5442493    0.74430825237435
 p    1 1.00
             0.1687144                   1
 d    1 1.00
                   0.8                   1

6 0
 s    3 1.00
             18.731137    0.03349459952309
             2.8253937    0.23472694665786
             0.6401217    0.81375731841339
 s    1 1.00
             0.1612778                   1

7 0
 s    6 1.00
             3047.5249  0.0018347001629433
             457.36951    0.01403730124668
             103.94869   0.068842606114048
             29.210155    0.23218442062076
              9.286663    0.46794134155879
              3.163927    0.36231203217765
 s    3 1.00
             7.8682724   -0.11933240861517
             1.8812885   -0.16085421161283
             0.5442493     1.1434564825515
 s    1 1.00
             0.1687144                   1
 p    3 1.00
             7.8682724   0.068999095584993
             1.8812885    0.31642397975315
             0.5442493    0.74430825237435
 p    1 1.00
             0.1687144                   1
 d    1 1.00
                   0.8                   1

8 0
 s    3 1.00
             18.731137    0.03349459952309
             2.8253937    0.23472694665786
             0.6401217    0.81375731841339
 s    1 1.00
             0.1612778                   1

9 0
 s    3 1.00
             18.731137    0.03349459952309
             2.8253937    0.23472694665786
             0.6401217    0.81375731841339
 s    1 1.00
             0.1612778                   1

10 0
 s    6 1.00
             3047.5249  0.0018347001629433
             457.36951    0.01403730124668
             103.94869   0.068842606114048
             29.210155    0.23218442062076
              9.286663    0.46794134155879
              3.163927    0.36231203217765
 s    3 1.00
             7.8682724   -0.11933240861517
             1.8812885   -0.16085421161283
             0.5442493     1.1434564825515
 s    1 1.00
             0.1687144                   1
 p    3 1.00
             7.8682724   0.068999095584993
             1.8812885    0.31642397975315
             0.5442493    0.74430825237435
 p    1 1.00
             0.1687144                   1
 d    1 1.00
                   0.8                   1

11 0
 s    3 1.00
             18.731137    0.03349459952309
             2.8253937    0.23472694665786
             0.6401217    0.81375731841339
 s    1 1.00
             0.1612778                   1

12 0
 s    6 1.00
             3047.5249  0.0018347001629433
             457.36951    0.01403730124668
             103.94869   0.068842606114048
             29.210155    0.23218442062076
              9.286663    0.46794134155879
              3.163927    0.36231203217765
 s    3 1.00
             7.8682724   -0.11933240861517
             1.8812885   -0.16085421161283
             0.5442493     1.1434564825515
 s    1 1.00
             0.1687144                   1
 p    3 1.00
             7.8682724   0.068999095584993
             1.8812885    0.31642397975315
             0.5442493    0.74430825237435
 p    1 1.00
             0.1687144                   1
 d    1 1.00
                   0.8                   1

13 0
 s    3 1.00
             18.731137    0.03349459952309
             2.8253937    0.23472694665786
             0.6401217    0.81375731841339
 s    1 1.00
             0.1612778                   1

14 0
 s    3 1.00
             18.731137    0.03349459952309
             2.8253937    0.23472694665786
             0.6401217    0.81375731841339
 s    1 1.00
             0.1612778                   1

15 0
 s    6 1.00
             3047.5249  0.0018347001629433
             457.36951    0.01403730124668
             103.94869   0.068842606114048
             29.210155    0.23218442062076
              9.286663    0.46794134155879
              3.163927    0.36231203217765
 s    3 1.00
             7.8682724   -0.11933240861517
             1.8812885   -0.16085421161283
             0.5442493     1.1434564825515
 s    1 1.00
             0.1687144                   1
 p    3 1.00
             7.8682724   0.068999095584993
             1.8812885    0.31642397975315
             0.5442493    0.74430825237435
 p    1 1.00
             0.1687144                   1
 d    1 1.00
                   0.8                   1

16 0
 s    6 1.00
             3047.5249  0.0018347001629433
             457.36951    0.01403730124668
             103.94869   0.068842606114048
             29.210155    0.23218442062076
              9.286663    0.46794134155879
              3.163927    0.36231203217765
 s    3 1.00
             7.8682724   -0.11933240861517
             1.8812885   -0.16085421161283
             0.5442493     1.1434564825515
 s    1 1.00
             0.1687144                   1
 p    3 1.00
             7.8682724   0.068999095584993
             1.8812885    0.31642397975315
             0.5442493    0.74430825237435
 p    1 1.00
             0.1687144                   1
 d    1 1.00
                   0.8                   1

17 0
 s    6 1.00
             3047.5249  0.0018347001629433
             457.36951    0.01403730124668
             103.94869   0.068842606114048
             29.210155    0.23218442062076
              9.286663    0.46794134155879
              3.163927    0.36231203217765
 s    3 1.00
             7.8682724   -0.11933240861517
             1.8812885   -0.16085421161283
             0.5442493     1.1434564825515
 s    1 1.00
             0.1687144                   1
 p    3 1.00
             7.8682724   0.068999095584993
             1.8812885    0.31642397975315
             0.5442493    0.74430825237435
 p    1 1.00
             0.1687144                   1
 d    1 1.00
                   0.8                   1

18 0
 s    6 1.00
             3047.5249  0.0018347001629433
             457.36951    0.01403730124668
             103.94869   0.068842606114048
             29.210155    0.23218442062076
              9.286663    0.46794134155879
              3.163927    0.36231203217765
 s    3 1.00
             7.8682724   -0.11933240861517
             1.8812885   -0.16085421161283
             0.5442493     1.1434564825515
 s    1 1.00
             0.1687144                   1
 p    3 1.00
             7.8682724   0.068999095584993
             1.8812885    0.31642397975315
             0.5442493    0.74430825237435
 p    1 1.00
             0.1687144                   1
 d    1 1.00
                   0.8                   1

19 0
 s    6 1.00
             3047.5249  0.0018347001629433
             457.36951    0.01403730124668
             103.94869   0.068842606114048
             29.210155    0.23218442062076
              9.286663    0.46794134155879
              3.163927    0.36231203217765
 s    3 1.00
             7.8682724   -0.11933240861517
             1.8812885   -0.16085421161283
             0.5442493     1.1434564825515
 s    1 1.00
             0.1687144                   1
 p    3 1.00
             7.8682724   0.068999095584993
             1.8812885    0.31642397975315
             0.5442493    0.74430825237435
 p    1 1.00
             0.1687144                   1
 d    1 1.00
                   0.8                   1

20 0
 s    6 1.00
             3047.5249  0.0018347001629433
             457.36951    0.01403730124668
             103.94869   0.068842606114048
             29.210155    0.23218442062076
              9.286663    0.46794134155879
              3.163927    0.36231203217765
 s    3 1.00
             7.8682724   -0.11933240861517
             1.8812885   -0.16085421161283
             0.5442493     1.1434564825515
 s    1 1.00
             0.1687144                   1
 p    3 1.00
             7.8682724   0.068999095584993
             1.8812885    0.31642397975315
             0.5442493    0.74430825237435
 p    1 1.00
             0.1687144                   1
 d    1 1.00
                   0.8                   1

21 0
 s    6 1.00
             3047.5249  0.0018347001629433
             457.36951    0.01403730124668
             103.94869   0.068842606114048
             29.210155    0.23218442062076
              9.286663    0.46794134155879
              3.163927    0.36231203217765
 s    3 1.00
             7.8682724   -0.11933240861517
             1.8812885   -0.16085421161283
             0.5442493     1.1434564825515
 s    1 1.00
             0.1687144                   1
 p    3 1.00
             7.8682724   0.068999095584993
             1.8812885    0.31642397975315
             0.5442493    0.74430825237435
 p    1 1.00
             0.1687144                   1
 d    1 1.00
                   0.8                   1

22 0
 s    3 1.00
             18.731137    0.03349459952309
             2.8253937    0.23472694665786
             0.6401217    0.81375731841339
 s    1 1.00
             0.1612778                   1

23 0
 s    3 1.00
             18.731137    0.03349459952309
             2.8253937    0.23472694665786
             0.6401217    0.81375731841339
 s    1 1.00
             0.1612778                   1

24 0
 s    3 1.00
             18.731137    0.03349459952309
             2.8253937    0.23472694665786
             0.6401217    0.81375731841339
 s    1 1.00
             0.1612778                   1

25 0
 s    3 1.00
             18.731137    0.03349459952309
             2.8253937    0.23472694665786
             0.6401217    0.81375731841339
 s    1 1.00
             0.1612778                   1

26 0
 s    3 1.00
             18.731137    0.03349459952309
             2.8253937    0.23472694665786
             0.6401217    0.81375731841339
 s    1 1.00
             0.1612778                   1

27 0
 s    3 1.00
             18.731137    0.03349459952309
             2.8253937    0.23472694665786
             0.6401217    0.81375731841339
 s    1 1.00
             0.1612778                   1

28 0
 s    3 1.00
             18.731137    0.03349459952309
             2.8253937    0.23472694665786
             0.6401217    0.81375731841339
 s    1 1.00
             0.1612778                   1

29 0
 s    3 1.00
             18.731137    0.03349459952309
             2.8253937    0.23472694665786
             0.6401217    0.81375731841339
 s    1 1.00
             0.1612778                   1

30 0
 s    3 1.00
             18.731137    0.03349459952309
             2.8253937    0.23472694665786
             0.6401217    0.81375731841339
 s    1 1.00
             0.1612778                   1

31 0
 s    3 1.00
             18.731137    0.03349459952309
             2.8253937    0.23472694665786
             0.6401217    0.81375731841339
 s    1 1.00
             0.1612778                   1

32 0
 s    3 1.00
             18.731137    0.03349459952309
             2.8253937    0.23472694665786
             0.6401217    0.81375731841339
 s    1 1.00
             0.1612778                   1

33 0
 s    6 1.00
             3047.5249  0.0018347001629433
             457.36951    0.01403730124668
             103.94869   0.068842606114048
             29.210155    0.23218442062076
              9.286663    0.46794134155879
              3.163927    0.36231203217765
 s    3 1.00
             7.8682724   -0.11933240861517
             1.8812885   -0.16085421161283
             0.5442493     1.1434564825515
 s    1 1.00
             0.1687144                   1
 p    3 1.00
             7.8682724   0.068999095584993
             1.8812885    0.31642397975315
             0.5442493    0.74430825237435
 p    1 1.00
             0.1687144                   1
 d    1 1.00
                   0.8                   1

34 0
 s    6 1.00
             3047.5249  0.0018347001629433
             457.36951    0.01403730124668
             103.94869   0.068842606114048
             29.210155    0.23218442062076
              9.286663    0.46794134155879
              3.163927    0.36231203217765
 s    3 1.00
             7.8682724   -0.11933240861517
             1.8812885   -0.16085421161283
             0.5442493     1.1434564825515
 s    1 1.00
             0.1687144                   1
 p    3 1.00
             7.8682724   0.068999095584993
             1.8812885    0.31642397975315
             0.5442493    0.74430825237435
 p    1 1.00
             0.1687144                   1
 d    1 1.00
                   0.8                   1

35 0
 s    3 1.00
             18.731137    0.03349459952309
             2.8253937    0.23472694665786
             0.6401217    0.81375731841339
 s    1 1.00
             0.1612778                   1

36 0
 s    6 1.00
             3047.5249  0.0018347001629433
             457.36951    0.01403730124668
             103.94869   0.068842606114048
             29.210155    0.23218442062076
              9.286663    0.46794134155879
              3.163927    0.36231203217765
 s    3 1.00
             7.8682724   -0.11933240861517
             1.8812885   -0.16085421161283
             0.5442493     1.1434564825515
 s    1 1.00
             0.1687144                   1
 p    3 1.00
             7.8682724   0.068999095584993
             1.8812885    0.31642397975315
             0.5442493    0.74430825237435
 p    1 1.00
             0.1687144                   1
 d    1 1.00
                   0.8                   1

37 0
 s    3 1.00
             18.731137    0.03349459952309
             2.8253937    0.23472694665786
             0.6401217    0.81375731841339
 s    1 1.00
             0.1612778                   1

38 0
 s    3 1.00
             18.731137    0.03349459952309
             2.8253937    0.23472694665786
             0.6401217    0.81375731841339
 s    1 1.00
             0.1612778                   1

39 0
 s    6 1.00
             3047.5249  0.0018347001629433
             457.36951    0.01403730124668
             103.94869   0.068842606114048
             29.210155    0.23218442062076
              9.286663    0.46794134155879
              3.163927    0.36231203217765
 s    3 1.00
             7.8682724   -0.11933240861517
             1.8812885   -0.16085421161283
             0.5442493     1.1434564825515
 s    1 1.00
             0.1687144                   1
 p    3 1.00
             7.8682724   0.068999095584993
             1.8812885    0.31642397975315
             0.5442493    0.74430825237435
 p    1 1.00
             0.1687144                   1
 d    1 1.00
                   0.8                   1

40 0
 s    6 1.00
             3047.5249  0.0018347001629433
             457.36951    0.01403730124668
             103.94869   0.068842606114048
             29.210155    0.23218442062076
              9.286663    0.46794134155879
              3.163927    0.36231203217765
 s    3 1.00
             7.8682724   -0.11933240861517
             1.8812885   -0.16085421161283
             0.5442493     1.1434564825515
 s    1 1.00
             0.1687144                   1
 p    3 1.00
             7.8682724   0.068999095584993
             1.8812885    0.31642397975315
             0.5442493    0.74430825237435
 p    1 1.00
             0.1687144                   1
 d    1 1.00
                   0.8                   1

41 0
 s    3 1.00
             18.731137    0.03349459952309
             2.8253937    0.23472694665786
             0.6401217    0.81375731841339
 s    1 1.00
             0.1612778                   1

42 0
 s    6 1.00
             5484.6717   0.001831099805527
             825.23495   0.013950098518422
             188.04696    0.06844509273075
               52.9645    0.23271427528445
              16.89757    0.47019295006289
             5.7996353    0.35852086192309
 s    3 1.00
             15.539616   -0.11077750382508
             3.5999336   -0.14802630511126
             1.0137618     1.1307670390447
 s    1 1.00
             0.2700058                   1
 p    3 1.00
             15.539616   0.070874299543311
             3.5999336    0.33975279781076
             1.0137618    0.72715859531445
 p    1 1.00
             0.2700058                   1
 d    1 1.00
                   0.8                   1

43 0
 s    3 1.00
             18.731137    0.03349459952309
             2.8253937    0.23472694665786
             0.6401217    0.81375731841339
 s    1 1.00
             0.1612778                   1

[5d]
[7f]
[9g]

[MO]
 Sym= A
 Ene=               0
 Spin= Alpha
 Occup=    1.00000
   1    -3.2900940477835e-06
   2    1.0096148983126e-05
   3    -0.00012406719965834
   4    -3.3543894370262e-06
   5    -2.1831783076532e-05
   6    -9.3894934589992e-06
   7    0.00011660616542503
   8    0.00013972255519738
   9    -0.0001330765654128
  10    7.6939573892241e-06
  11    3.6338526969771e-06
  12    -2.1904116615986e-06
  13    -5.7134332824333e-06
  14    3.6431900534352e-06
  15    -8.8783173599781e-06
  16    -3.1379032800417e-05
  17    4.5104907662897e-06
  18    -6.2455726459715e-05
  19    -0.0010272275435143
  20    -3.6150167649673e-05
  21    9.2299662356931e-06
  22    7.4419151687245e-05
  23    -0.00024374950483372
  24    -3.9558404477535e-05
  25    0.00069865768010178
  26    -3.1072148140687e-05
  27    1.9950310814046e-05
  28    1.2873053815435e-05
  29    -3.3850245262603e-05
  30    2.7458774956193e-05
  31    6.6777003189446e-07
  32    9.5420339636356e-06
  33    -7.6233018279003e-05
  34    -0.00025758180809665
  35    0.0045851785193025
  36    4.4074393115762e-05
  37    -5.4991984077543e-05
  38    -0.00021769071247721
  39    -0.00072965722838507
  40    -0.0016235891457613
  41    -0.0010826925142523
  42    0.00010314096928208
  43    -3.8551500014633e-05
  44    9.050839609282e-05
  45    -2.9085709324516e-05
  46    2.9624395770379e-05
  47    1.4502248258113e-05
  48    0.00026789204659348
  49    5.4547395706345e-05
  50    -0.00030272882298721
  51    -0.0037090741190517
  52    -3.3697210820195e-05
  53    0.00026213118374185
  54    0.00055328353176408
  55    -0.00013875879275168
  56    -0.0020231727180287
  57    -0.0030475024755743
  58    -6.0050285600316e-05
  59    -9.2567185830862e-05
  60    -0.00015756430926876
  61    2.340711584212e-05
  62    9.9363673838837e-05
  63    -0.00039670112426121
  64    -0.00014055366967665
  65    1.1031883321492e-07
  66    8.4539760346741e-07
  67    -1.7036222283029e-08
  68    -1.389869411045e-07
  69    -2.0810525591855e-06
  70    1.1945430394398e-07
  71    -1.2639590249658e-07
  72    1.1589626789818e-07
  73    7.3707569072032e-07
  74    -6.1637060318852e-07
  75    -1.1127895089161e-06
  76    1.0360244835994e-07
  77    9.6005056621571e-08
  78    1.5918457997257e-08
  79    -1.7221907438976e-08
  80    7.4398527403273e-08
  81    2.9295388398623e-08
  82    2.2436908444882e-07
  83    7.486764513167e-08
  84    5.414052022309e-07
  85    1.6764628530675e-06
  86    -8.5151912580652e-08
  87    -1.4173482757854e-07
  88    -1.0461782774579e-07
  89    -1.6034671194562e-07
  90    -1.7274379940486e-07
  91    -6.5876809188121e-07
  92    -1.1144419511726e-07
  93    -2.0647462382287e-08
  94    1.5776700141937e-07
  95    -9.3632480752886e-08
  96    6.3106416351733e-08
  97    1.5542998679382e-07
  98    -2.2074718354682e-07
  99    -1.6438679679941e-08
 100    7.960155845749e-08
 101    -1.1783030663158e-07
 102    2.5319422970432e-07
 103    1.3914070837306e-05
 104    -2.8939199863241e-07
 105    3.9238580501579e-07
 106    -6.5416872472128e-07
 107    -1.3135019365847e-06
 108    3.0330563669475e-06
 109    -1.099760102156e-05
 110    4.7608201911486e-07
 111    5.881274822969e-07
 112    -2.7739612277322e-07
 113    -6.2382069245191e-07
 114    -3.1540485804749e-07
 115    4.0076390492298e-07
 116    3.8070545703762e-06
 117    -2.022759701037e-05
 118    1.9818012926911e-07
 119    -2.4889337669725e-07
 120    -6.7387330249361e-07
 121    3.8277286138216e-06
 122    -1.7111487826948e-06
 123    6.3029171481593e-06
 124    1.5948459889455e-07
 125    -2.4742440416166e-07
 126    -5.0800851824535e-08
 127    6.8937777161212e-08
 128    2.6075682304559e-08
 129    4.7830466470292e-07
 130    5.6948223239396e-06
 131    -3.6076242786035e-07
 132    1.7626484695478e-06
 133    1.7892404993884e-06
 134    -3.3978911631349e-06
 135    -2.1360628834719e-05
 136    -2.3700881244811e-06
 137    1.8737194785509e-05
 138    -7.3835486670116e-07
 139    -1.4603097543292e-07
 140    6.5197722587689e-07
 141    -2.7757112392379e-07
 142    4.2073327796746e-07
 143    5.5129861317763e-08
 144    -4.2512214516142e-07
 145    -1.227946523636e-05
 146    -4.6695603029232e-07
 147    -1.0454673763587e-06
 148    1.658289059399e-06
 149    -5.9238793001029e-06
 150    1.7224623229152e-05
 151    -7.7860379729919e-06
 152    2.7228442647199e-07
 153    1.1259717583638e-07
 154    -6.6330629467449e-07
 155    -3.5657561581213e-07
 156    -1.5280477711462e-07
 157    2.2673358479412e-07
 158    1.3658303825357e-06
 159    -1.3472613672496e-05
 160    -3.6681229396413e-07
 161    5.9114656532123e-07
 162    -4.8619170800266e-07
 163    -1.3885969541482e-06
 164    5.0231894554337e-06
 165    4.1446565419541e-07
 166     2.90254199045e-07
 167    -2.0050931546638e-07
 168    9.485751820882e-08
 169    2.2833772840148e-07
 170    2.2504580982237e-07
 171    -2.2009520568201e-08
 172    2.7144227896763e-07
 173    3.1282075804073e-06
 174    3.8274113044052e-07
 175    -1.6149140886899e-08
 176    8.8780746201337e-08
 177    4.3491074034731e-06
 178    1.1972895781547e-06
 179    3.3912763696337e-06
 180    -2.1952540354213e-07
 181    3.894523723628e-07
 182    9.4632627327466e-08
 183    4.241000266661e-07
 184    2.7557360562064e-07
 185    -9.4542118230837e-08
 186    -4.9635703241854e-07
 187    7.6116559028621e-06
 188    -2.5101199927653e-07
 189    -8.8885348023563e-08
 190    -4.9039764287681e-07
 191    -1.8686699413188e-06
 192    -4.3576544537778e-06
 193    -1.041627877533e-06
 194    -8.4318158896227e-08
 195    2.8925528699876e-07
 196    5.3014969227426e-07
 197    -1.3618748640589e-07
 198    1.4780781796319e-07
 199    -1.1961494895766e-07
 200    1.5699788837488e-06
 201    -2.3177174640424e-07
 202    -1.2320558602072e-06
 203    7.5496310664293e-07
 204    -2.7915001880076e-07
 205    1.0926210330813e-06
 206    1.3135675459701e-06
 207    -1.6958966872634e-06
 208    1.5974122378921e-05
 209    4.0179366609351e-07
 210    1.9980385609367e-06
 211    6.1324278174261e-07
 212    -1.674757764949e-07
 213    2.8326964780198e-07
 214    4.6126862305741e-08
 215    -5.9853050802028e-07
 216    5.7344995133631e-06
 217    -2.0090954682127e-08
 218    -7.0649360277927e-07
 219    2.1521143647528e-07
 220    -1.3299556734533e-06
 221    -6.2247692040748e-07
 222    -2.9477508541144e-06
 223    7.2739701351563e-05
 224    2.2684497603379e-06
 225    -4.6906193542253e-07
 226    -8.2612502578019e-07
 227    -1.7531692116764e-06
 228    6.6456050656243e-06
 229    -5.227502962123e-05
 230    2.5467688198015e-06
 231    -1.4657890291746e-06
 232    -7.5384646887555e-07
 233    3.5773237488082e-07
 234    -8.648507828463e-07
 235    3.1939147580585e-06
 236    2.335715934134e-05
 237    -0.00027220887351939
 238    -4.3502914489835e-07
 239    -5.7308689084182e-06
 240    2.9285661583824e-06
 241    8.5393009256774e-05
 242    2.7499676780217e-05
 243    9.7929763443622e-05
 244    -9.1355621512355e-06
 245    -2.4567882822199e-06
 246    -2.5363459129428e-07
 247    -1.5180338953016e-06
 248    -3.3417163208602e-06
 249    -2.834851171132e-06
 250    -1.3884569042911e-05
 251    -5.7522744592342e-07
 252    -7.8393960068343e-06
 253    0.00030211194660123
 254    -1.0734537094498e-05
 255    1.318641218361e-05
 256    -1.2729563399777e-05
 257    0.00013128681841964
 258    -5.8624594053726e-05
 259    0.00013419527352662
 260    7.7769897183417e-06
 261    3.3474979851989e-06
 262    2.4452805604974e-06
 263    3.1707756715784e-07
 264    -5.8483941159114e-06
 265    1.1165031263491e-06
 266    -1.6316307728378e-05
 267    1.3339603103399e-05
 268    6.9012342624991e-07
 269    6.763257769649e-05
 270    -3.1389881964664e-05
 271    -0.0030451083159006
 272    0.00019437166118381
 273    0.00020153700020568
 274    -0.00010345805974049
 275    -0.0017357353171581
 276    -0.00067316963624723
 277    0.0034258395783136
 278    -0.00032970556362955
 279    0.0001332885372572