[Molden Format]
made by pyscf v[2.0.1]
[Atoms] (AU)
C   1   6     0.69100024066471     0.64692934207205    -3.48223131169301
H   2   1     2.68052439830868     1.13355088658700    -3.25784032593313
C   3   6    -0.36286361513219     0.85440132524594    -5.97030179418974
H   4   1    -2.35448549047279     0.36322488579172    -6.17995817793143
C   5   6     0.93697958957450     1.61209284601821    -8.05828437677121
H   6   1     1.25179717896080     3.62344259528190    -8.36861463213972
C   7   6     1.93299030663405    -0.10622024085708    -9.90534865945394
H   8   1     1.60367989661651    -2.11561190296467    -9.56827000221191
H   9   1     1.55630230933075    -1.92953025305990    12.99630010416247
C   10   6     0.75233899775814    -2.21270439606481    11.10705728102219
H   11   1    -0.43433408177274    -3.90944857546550    11.22216085340412
C   12   6     2.86362581178706    -2.63237380607947     9.17926416456045
H   13   1     4.39038949912609    -1.24955421540245     9.49899813497433
H   14   1     3.74629220191363    -4.48798724300892     9.47414880959024
C   15   6     2.02478325613682    -2.42177285709634     6.44560829588644
C   16   6     3.88048732735477    -3.58795445234514     4.61402886975252
C   17   6    -0.18412382258602    -1.30464291234259     5.76021113872346
C   18   6    -2.10044360464350    -0.26837831858460     7.71610340967100
C   19   6    -3.08956938670431     2.35282328359417     6.88693925039594
C   20   6    -4.37372924086464    -2.09766595989678     7.93610724222001
C   21   6    -0.83850430601230     0.06372213486173    10.33002307638377
H   22   1     0.38411922151109     1.74281358582432    10.27380136542181
H   23   1    -2.30980003007874     0.45460143924521    11.73986301809809
H   24   1     4.58527064644668    -5.38706904487420     5.36778158031719
H   25   1     5.54944938085014    -2.37631462192748     4.35398898413318
H   26   1     3.06633019150423    -3.94118377050688     2.75255466040884
H   27   1    -4.17727778763735     2.26573369139522     5.12914900961283
H   28   1    -1.52662344944051     3.68001877445626     6.59540397144508
H   29   1    -4.32916174397830     3.13643051467482     8.35225460090378
H   30   1    -5.32329548508442    -2.36691813602939     6.11583672749896
H   31   1    -5.77989366602257    -1.33896741843465     9.25748940450990
H   32   1    -3.79310905208926    -3.96389819310853     8.61386170102686
C   33   6    -1.01100794811226    -1.06331657314144     3.11929490449947
C   34   6     0.37686231036534    -0.33275864505552     1.09165013605873
H   35   1    -3.01671213906703    -1.40297922279997     2.77827895090944
C   36   6    -0.64382707979370    -0.11591880174385    -1.42063131251064
H   37   1     2.35569259782137     0.17174499283897     1.33641070251401
H   38   1    -2.63317482980319    -0.60229203511219    -1.66119700387645
C   39   6     3.23483881481583     0.56109494848388   -12.01167590238676
C   40   6     4.17213386166354    -1.33546547775814   -13.78129708499957
H   41   1     3.62751071831436     2.52907164005278   -12.45960989181140
O   42   8     5.35190984410731    -0.86987395658954   -15.70799822813352
H   43   1     3.72751838268070    -3.32497850208065   -13.24806737881206
[GTO]
1 0
 s    6 1.00
             3047.5249  0.0018347001629433
             457.36951    0.01403730124668
             103.94869   0.068842606114048
             29.210155    0.23218442062076
              9.286663    0.46794134155879
              3.163927    0.36231203217765
 s    3 1.00
             7.8682724   -0.11933240861517
             1.8812885   -0.16085421161283
             0.5442493     1.1434564825515
 s    1 1.00
             0.1687144                   1
 p    3 1.00
             7.8682724   0.068999095584993
             1.8812885    0.31642397975315
             0.5442493    0.74430825237435
 p    1 1.00
             0.1687144                   1
 d    1 1.00
                   0.8                   1

2 0
 s    3 1.00
             18.731137    0.03349459952309
             2.8253937    0.23472694665786
             0.6401217    0.81375731841339
 s    1 1.00
             0.1612778                   1

3 0
 s    6 1.00
             3047.5249  0.0018347001629433
             457.36951    0.01403730124668
             103.94869   0.068842606114048
             29.210155    0.23218442062076
              9.286663    0.46794134155879
              3.163927    0.36231203217765
 s    3 1.00
             7.8682724   -0.11933240861517
             1.8812885   -0.16085421161283
             0.5442493     1.1434564825515
 s    1 1.00
             0.1687144                   1
 p    3 1.00
             7.8682724   0.068999095584993
             1.8812885    0.31642397975315
             0.5442493    0.74430825237435
 p    1 1.00
             0.1687144                   1
 d    1 1.00
                   0.8                   1

4 0
 s    3 1.00
             18.731137    0.03349459952309
             2.8253937    0.23472694665786
             0.6401217    0.81375731841339
 s    1 1.00
             0.1612778                   1

5 0
 s    6 1.00
             3047.5249  0.0018347001629433
             457.36951    0.01403730124668
             103.94869   0.068842606114048
             29.210155    0.23218442062076
              9.286663    0.46794134155879
              3.163927    0.36231203217765
 s    3 1.00
             7.8682724   -0.11933240861517
             1.8812885   -0.16085421161283
             0.5442493     1.1434564825515
 s    1 1.00
             0.1687144                   1
 p    3 1.00
             7.8682724   0.068999095584993
             1.8812885    0.31642397975315
             0.5442493    0.74430825237435
 p    1 1.00
             0.1687144                   1
 d    1 1.00
                   0.8                   1

6 0
 s    3 1.00
             18.731137    0.03349459952309
             2.8253937    0.23472694665786
             0.6401217    0.81375731841339
 s    1 1.00
             0.1612778                   1

7 0
 s    6 1.00
             3047.5249  0.0018347001629433
             457.36951    0.01403730124668
             103.94869   0.068842606114048
             29.210155    0.23218442062076
              9.286663    0.46794134155879
              3.163927    0.36231203217765
 s    3 1.00
             7.8682724   -0.11933240861517
             1.8812885   -0.16085421161283
             0.5442493     1.1434564825515
 s    1 1.00
             0.1687144                   1
 p    3 1.00
             7.8682724   0.068999095584993
             1.8812885    0.31642397975315
             0.5442493    0.74430825237435
 p    1 1.00
             0.1687144                   1
 d    1 1.00
                   0.8                   1

8 0
 s    3 1.00
             18.731137    0.03349459952309
             2.8253937    0.23472694665786
             0.6401217    0.81375731841339
 s    1 1.00
             0.1612778                   1

9 0
 s    3 1.00
             18.731137    0.03349459952309
             2.8253937    0.23472694665786
             0.6401217    0.81375731841339
 s    1 1.00
             0.1612778                   1

10 0
 s    6 1.00
             3047.5249  0.0018347001629433
             457.36951    0.01403730124668
             103.94869   0.068842606114048
             29.210155    0.23218442062076
              9.286663    0.46794134155879
              3.163927    0.36231203217765
 s    3 1.00
             7.8682724   -0.11933240861517
             1.8812885   -0.16085421161283
             0.5442493     1.1434564825515
 s    1 1.00
             0.1687144                   1
 p    3 1.00
             7.8682724   0.068999095584993
             1.8812885    0.31642397975315
             0.5442493    0.74430825237435
 p    1 1.00
             0.1687144                   1
 d    1 1.00
                   0.8                   1

11 0
 s    3 1.00
             18.731137    0.03349459952309
             2.8253937    0.23472694665786
             0.6401217    0.81375731841339
 s    1 1.00
             0.1612778                   1

12 0
 s    6 1.00
             3047.5249  0.0018347001629433
             457.36951    0.01403730124668
             103.94869   0.068842606114048
             29.210155    0.23218442062076
              9.286663    0.46794134155879
              3.163927    0.36231203217765
 s    3 1.00
             7.8682724   -0.11933240861517
             1.8812885   -0.16085421161283
             0.5442493     1.1434564825515
 s    1 1.00
             0.1687144                   1
 p    3 1.00
             7.8682724   0.068999095584993
             1.8812885    0.31642397975315
             0.5442493    0.74430825237435
 p    1 1.00
             0.1687144                   1
 d    1 1.00
                   0.8                   1

13 0
 s    3 1.00
             18.731137    0.03349459952309
             2.8253937    0.23472694665786
             0.6401217    0.81375731841339
 s    1 1.00
             0.1612778                   1

14 0
 s    3 1.00
             18.731137    0.03349459952309
             2.8253937    0.23472694665786
             0.6401217    0.81375731841339
 s    1 1.00
             0.1612778                   1

15 0
 s    6 1.00
             3047.5249  0.0018347001629433
             457.36951    0.01403730124668
             103.94869   0.068842606114048
             29.210155    0.23218442062076
              9.286663    0.46794134155879
              3.163927    0.36231203217765
 s    3 1.00
             7.8682724   -0.11933240861517
             1.8812885   -0.16085421161283
             0.5442493     1.1434564825515
 s    1 1.00
             0.1687144                   1
 p    3 1.00
             7.8682724   0.068999095584993
             1.8812885    0.31642397975315
             0.5442493    0.74430825237435
 p    1 1.00
             0.1687144                   1
 d    1 1.00
                   0.8                   1

16 0
 s    6 1.00
             3047.5249  0.0018347001629433
             457.36951    0.01403730124668
             103.94869   0.068842606114048
             29.210155    0.23218442062076
              9.286663    0.46794134155879
              3.163927    0.36231203217765
 s    3 1.00
             7.8682724   -0.11933240861517
             1.8812885   -0.16085421161283
             0.5442493     1.1434564825515
 s    1 1.00
             0.1687144                   1
 p    3 1.00
             7.8682724   0.068999095584993
             1.8812885    0.31642397975315
             0.5442493    0.74430825237435
 p    1 1.00
             0.1687144                   1
 d    1 1.00
                   0.8                   1

17 0
 s    6 1.00
             3047.5249  0.0018347001629433
             457.36951    0.01403730124668
             103.94869   0.068842606114048
             29.210155    0.23218442062076
              9.286663    0.46794134155879
              3.163927    0.36231203217765
 s    3 1.00
             7.8682724   -0.11933240861517
             1.8812885   -0.16085421161283
             0.5442493     1.1434564825515
 s    1 1.00
             0.1687144                   1
 p    3 1.00
             7.8682724   0.068999095584993
             1.8812885    0.31642397975315
             0.5442493    0.74430825237435
 p    1 1.00
             0.1687144                   1
 d    1 1.00
                   0.8                   1

18 0
 s    6 1.00
             3047.5249  0.0018347001629433
             457.36951    0.01403730124668
             103.94869   0.068842606114048
             29.210155    0.23218442062076
              9.286663    0.46794134155879
              3.163927    0.36231203217765
 s    3 1.00
             7.8682724   -0.11933240861517
             1.8812885   -0.16085421161283
             0.5442493     1.1434564825515
 s    1 1.00
             0.1687144                   1
 p    3 1.00
             7.8682724   0.068999095584993
             1.8812885    0.31642397975315
             0.5442493    0.74430825237435
 p    1 1.00
             0.1687144                   1
 d    1 1.00
                   0.8                   1

19 0
 s    6 1.00
             3047.5249  0.0018347001629433
             457.36951    0.01403730124668
             103.94869   0.068842606114048
             29.210155    0.23218442062076
              9.286663    0.46794134155879
              3.163927    0.36231203217765
 s    3 1.00
             7.8682724   -0.11933240861517
             1.8812885   -0.16085421161283
             0.5442493     1.1434564825515
 s    1 1.00
             0.1687144                   1
 p    3 1.00
             7.8682724   0.068999095584993
             1.8812885    0.31642397975315
             0.5442493    0.74430825237435
 p    1 1.00
             0.1687144                   1
 d    1 1.00
                   0.8                   1

20 0
 s    6 1.00
             3047.5249  0.0018347001629433
             457.36951    0.01403730124668
             103.94869   0.068842606114048
             29.210155    0.23218442062076
              9.286663    0.46794134155879
              3.163927    0.36231203217765
 s    3 1.00
             7.8682724   -0.11933240861517
             1.8812885   -0.16085421161283
             0.5442493     1.1434564825515
 s    1 1.00
             0.1687144                   1
 p    3 1.00
             7.8682724   0.068999095584993
             1.8812885    0.31642397975315
             0.5442493    0.74430825237435
 p    1 1.00
             0.1687144                   1
 d    1 1.00
                   0.8                   1

21 0
 s    6 1.00
             3047.5249  0.0018347001629433
             457.36951    0.01403730124668
             103.94869   0.068842606114048
             29.210155    0.23218442062076
              9.286663    0.46794134155879
              3.163927    0.36231203217765
 s    3 1.00
             7.8682724   -0.11933240861517
             1.8812885   -0.16085421161283
             0.5442493     1.1434564825515
 s    1 1.00
             0.1687144                   1
 p    3 1.00
             7.8682724   0.068999095584993
             1.8812885    0.31642397975315
             0.5442493    0.74430825237435
 p    1 1.00
             0.1687144                   1
 d    1 1.00
                   0.8                   1

22 0
 s    3 1.00
             18.731137    0.03349459952309
             2.8253937    0.23472694665786
             0.6401217    0.81375731841339
 s    1 1.00
             0.1612778                   1

23 0
 s    3 1.00
             18.731137    0.03349459952309
             2.8253937    0.23472694665786
             0.6401217    0.81375731841339
 s    1 1.00
             0.1612778                   1

24 0
 s    3 1.00
             18.731137    0.03349459952309
             2.8253937    0.23472694665786
             0.6401217    0.81375731841339
 s    1 1.00
             0.1612778                   1

25 0
 s    3 1.00
             18.731137    0.03349459952309
             2.8253937    0.23472694665786
             0.6401217    0.81375731841339
 s    1 1.00
             0.1612778                   1

26 0
 s    3 1.00
             18.731137    0.03349459952309
             2.8253937    0.23472694665786
             0.6401217    0.81375731841339
 s    1 1.00
             0.1612778                   1

27 0
 s    3 1.00
             18.731137    0.03349459952309
             2.8253937    0.23472694665786
             0.6401217    0.81375731841339
 s    1 1.00
             0.1612778                   1

28 0
 s    3 1.00
             18.731137    0.03349459952309
             2.8253937    0.23472694665786
             0.6401217    0.81375731841339
 s    1 1.00
             0.1612778                   1

29 0
 s    3 1.00
             18.731137    0.03349459952309
             2.8253937    0.23472694665786
             0.6401217    0.81375731841339
 s    1 1.00
             0.1612778                   1

30 0
 s    3 1.00
             18.731137    0.03349459952309
             2.8253937    0.23472694665786
             0.6401217    0.81375731841339
 s    1 1.00
             0.1612778                   1

31 0
 s    3 1.00
             18.731137    0.03349459952309
             2.8253937    0.23472694665786
             0.6401217    0.81375731841339
 s    1 1.00
             0.1612778                   1

32 0
 s    3 1.00
             18.731137    0.03349459952309
             2.8253937    0.23472694665786
             0.6401217    0.81375731841339
 s    1 1.00
             0.1612778                   1

33 0
 s    6 1.00
             3047.5249  0.0018347001629433
             457.36951    0.01403730124668
             103.94869   0.068842606114048
             29.210155    0.23218442062076
              9.286663    0.46794134155879
              3.163927    0.36231203217765
 s    3 1.00
             7.8682724   -0.11933240861517
             1.8812885   -0.16085421161283
             0.5442493     1.1434564825515
 s    1 1.00
             0.1687144                   1
 p    3 1.00
             7.8682724   0.068999095584993
             1.8812885    0.31642397975315
             0.5442493    0.74430825237435
 p    1 1.00
             0.1687144                   1
 d    1 1.00
                   0.8                   1

34 0
 s    6 1.00
             3047.5249  0.0018347001629433
             457.36951    0.01403730124668
             103.94869   0.068842606114048
             29.210155    0.23218442062076
              9.286663    0.46794134155879
              3.163927    0.36231203217765
 s    3 1.00
             7.8682724   -0.11933240861517
             1.8812885   -0.16085421161283
             0.5442493     1.1434564825515
 s    1 1.00
             0.1687144                   1
 p    3 1.00
             7.8682724   0.068999095584993
             1.8812885    0.31642397975315
             0.5442493    0.74430825237435
 p    1 1.00
             0.1687144                   1
 d    1 1.00
                   0.8                   1

35 0
 s    3 1.00
             18.731137    0.03349459952309
             2.8253937    0.23472694665786
             0.6401217    0.81375731841339
 s    1 1.00
             0.1612778                   1

36 0
 s    6 1.00
             3047.5249  0.0018347001629433
             457.36951    0.01403730124668
             103.94869   0.068842606114048
             29.210155    0.23218442062076
              9.286663    0.46794134155879
              3.163927    0.36231203217765
 s    3 1.00
             7.8682724   -0.11933240861517
             1.8812885   -0.16085421161283
             0.5442493     1.1434564825515
 s    1 1.00
             0.1687144                   1
 p    3 1.00
             7.8682724   0.068999095584993
             1.8812885    0.31642397975315
             0.5442493    0.74430825237435
 p    1 1.00
             0.1687144                   1
 d    1 1.00
                   0.8                   1

37 0
 s    3 1.00
             18.731137    0.03349459952309
             2.8253937    0.23472694665786
             0.6401217    0.81375731841339
 s    1 1.00
             0.1612778                   1

38 0
 s    3 1.00
             18.731137    0.03349459952309
             2.8253937    0.23472694665786
             0.6401217    0.81375731841339
 s    1 1.00
             0.1612778                   1

39 0
 s    6 1.00
             3047.5249  0.0018347001629433
             457.36951    0.01403730124668
             103.94869   0.068842606114048
             29.210155    0.23218442062076
              9.286663    0.46794134155879
              3.163927    0.36231203217765
 s    3 1.00
             7.8682724   -0.11933240861517
             1.8812885   -0.16085421161283
             0.5442493     1.1434564825515
 s    1 1.00
             0.1687144                   1
 p    3 1.00
             7.8682724   0.068999095584993
             1.8812885    0.31642397975315
             0.5442493    0.74430825237435
 p    1 1.00
             0.1687144                   1
 d    1 1.00
                   0.8                   1

40 0
 s    6 1.00
             3047.5249  0.0018347001629433
             457.36951    0.01403730124668
             103.94869   0.068842606114048
             29.210155    0.23218442062076
              9.286663    0.46794134155879
              3.163927    0.36231203217765
 s    3 1.00
             7.8682724   -0.11933240861517
             1.8812885   -0.16085421161283
             0.5442493     1.1434564825515
 s    1 1.00
             0.1687144                   1
 p    3 1.00
             7.8682724   0.068999095584993
             1.8812885    0.31642397975315
             0.5442493    0.74430825237435
 p    1 1.00
             0.1687144                   1
 d    1 1.00
                   0.8                   1

41 0
 s    3 1.00
             18.731137    0.03349459952309
             2.8253937    0.23472694665786
             0.6401217    0.81375731841339
 s    1 1.00
             0.1612778                   1

42 0
 s    6 1.00
             5484.6717   0.001831099805527
             825.23495   0.013950098518422
             188.04696    0.06844509273075
               52.9645    0.23271427528445
              16.89757    0.47019295006289
             5.7996353    0.35852086192309
 s    3 1.00
             15.539616   -0.11077750382508
             3.5999336   -0.14802630511126
             1.0137618     1.1307670390447
 s    1 1.00
             0.2700058                   1
 p    3 1.00
             15.539616   0.070874299543311
             3.5999336    0.33975279781076
             1.0137618    0.72715859531445
 p    1 1.00
             0.2700058                   1
 d    1 1.00
                   0.8                   1

43 0
 s    3 1.00
             18.731137    0.03349459952309
             2.8253937    0.23472694665786
             0.6401217    0.81375731841339
 s    1 1.00
             0.1612778                   1

[5d]
[7f]
[9g]

[MO]
 Sym= A
 Ene=               0
 Spin= Alpha
 Occup=    1.00000
   1    3.2553614283886e-07
   2    2.4625692858365e-05
   3    -5.248137736758e-05
   4    1.7092189646599e-06
   5    4.471833601183e-06
   6    -2.1820855575045e-05
   7    -5.8622460109525e-06
   8    -4.619302909266e-05
   9    0.00033712419595049
  10    -1.7341548582184e-07
  11    -1.0366187191804e-05
  12    -3.1653441758555e-06
  13    -1.2921728768644e-05
  14    6.9986242243028e-06
  15    1.3586822545119e-05
  16    -2.1926185175125e-05
  17    -4.6195855014898e-06
  18    -0.00015724991892705
  19    -0.00045792413683481
  20    -5.5215039581657e-05
  21    5.9868763043738e-06
  22    7.8801993932096e-05
  23    -0.00015070178478344
  24    7.5854365438063e-05
  25    0.0006462083676462
  26    -1.9771279506768e-05
  27    2.1372912657046e-05
  28    -4.2669029096331e-06
  29    -4.1259582516145e-05
  30    8.3264956160265e-06
  31    7.866123859409e-06
  32    -2.5484942638143e-05
  33    -7.6251109434381e-05
  34    -0.00027930369624578
  35    0.0043699451158287
  36    9.8638647534239e-05
  37    -7.8008033234922e-05
  38    -0.00021422081163017
  39    0.00023119576919444
  40    -0.0018953427574925
  41    -0.00066959407945623
  42    3.8231059049767e-05
  43    -9.6821839247138e-05
  44    7.8254218085621e-05
  45    -3.720670473465e-05
  46    -3.5097848568554e-05
  47    8.9544454072373e-06
  48    0.00024828465520175
  49    5.3502506352947e-05
  50    -0.00030807046497616
  51    -0.0035914371275947
  52    -0.00023932660076148
  53    0.00033644915460232
  54    0.00045845867850934
  55     0.001265902580664
  56    -0.0024644415412611
  57    -0.0023681535166194
  58    2.5504971469535e-06
  59    -4.2720739449963e-05
  60    -0.00017965813570284
  61    -1.0577485955612e-05
  62    0.0001120550539447
  63    -0.00039430100732063
  64    -0.00013576254080263
  65    2.3327737403264e-07
  66    4.6299416089706e-07
  67    5.2554059020783e-08
  68    4.7338099824876e-07
  69    -2.8995473522002e-06
  70    -2.7053639456781e-07
  71    3.5132199477851e-07
  72    -6.8544775003544e-08
  73    -2.3718337083464e-07
  74    -1.2943315414016e-06
  75    -3.1993813747643e-07
  76    4.8424119185734e-08
  77    1.223771970992e-07
  78    -4.7041671767866e-08
  79    -6.9917856083159e-08
  80    9.6781876219638e-08
  81    -7.2414059400249e-08
  82    4.1248902361529e-10
  83    1.4243123348161e-08
  84    7.4785580992165e-08
  85    1.1043773162104e-05
  86    -4.9272970861881e-07
  87    -1.150745389392e-07
  88    -6.4571956385607e-07
  89    -3.1168870479019e-06
  90    4.2712329757549e-06
  91    -2.2982223091089e-06
  92    -1.7045263974457e-07
  93    2.8264739931193e-07
  94    -2.6257901390579e-07
  95    -1.4537876460719e-08
  96    1.667391758732e-07
  97    -3.8850247512629e-07
  98    -2.1744458759959e-07
  99    -5.3450480250787e-08
 100    7.4449382564282e-07
 101    -5.2768392119674e-10
 102    1.2522131545407e-06
 103    -1.3955245283642e-05
 104    -7.6720759397272e-07
 105    2.4110879478538e-08
 106    4.0119253686602e-07
 107    1.7221468830097e-05
 108    -1.6827225457148e-05
 109    -2.5453200434609e-05
 110    5.2824664607894e-07
 111    4.6127675725896e-07
 112    -2.2987428446734e-07
 113    -4.7062349933211e-07
 114    4.3048275704955e-07
 115    4.9162052520862e-07
 116    4.2925240750491e-06
 117    -3.3763879391447e-05
 118    6.2814333962897e-07
 119    -1.0510604185655e-06
 120    -5.8075254719698e-07
 121    7.2144598271447e-06
 122    -1.7233602407335e-07
 123    -1.3950498966249e-06
 124    4.0975129503326e-08
 125    1.0212255784639e-07
 126    1.252703130809e-07
 127    -1.3974506260939e-09
 128    3.0859165372505e-07
 129    7.8188456407383e-07
 130    8.3458444236151e-06
 131    -4.1749115607515e-05
 132    1.9157366732247e-07
 133    1.4919854309228e-06
 134    -3.5854254566536e-06
 135    2.3102860558493e-05
 136    -2.2539952600401e-06
 137    6.9408295537394e-05
 138    -2.2423020235648e-06
 139    -1.2484820755835e-06
 140    -3.4748194994532e-07
 141    -3.9646963973102e-07
 142    -1.7726797852308e-07
 143    4.0981983103243e-07
 144    2.6074263310574e-06
 145    -1.5052978659306e-05
 146    -5.9440186668127e-07
 147    -6.8585039940361e-07
 148    6.4114613580467e-08
 149    -9.6711213296656e-06
 150    7.1135213205828e-06
 151    1.2460890679111e-06
 152    9.8577493337619e-07
 153    2.8352291301284e-07
 154    4.5330914922425e-08
 155    -6.2730780083861e-07
 156    6.1504777278362e-07
 157    1.9801047740287e-08
 158    -8.8581284795501e-07
 159    -2.5348001680052e-06
 160    -7.497409267175e-07
 161    3.7075944815236e-07
 162    1.0072589567294e-07
 163    5.399261773886e-06
 164    3.4764165950505e-07
 165    -6.9055395835324e-07
 166    -3.1680015446155e-07
 167    4.3499856356253e-08
 168    2.1669001020792e-08
 169    1.1622140249409e-07
 170    -2.1013649541411e-07
 171    -6.7277639476771e-08
 172    4.6312511896261e-07
 173    2.0803015582177e-06
 174    7.9059982775189e-07
 175    2.1448251770599e-07
 176    -7.395957720721e-07
 177    5.033530358099e-07
 178    -9.8118266417874e-07
 179    2.1026301880983e-06
 180    -1.4947133218322e-07
 181    -1.4384921766963e-07
 182    1.9701643010761e-08
 183    3.4770108590164e-07
 184    -1.3986488416301e-07
 185    2.4125668785104e-07
 186    2.7414963238343e-06
 187    -1.8825148646283e-06
 188    1.4549885122263e-07
 189    -1.3671035228753e-07
 190    -1.0848484348576e-06
 191    -2.5655259913638e-06
 192    -1.1388589803115e-06
 193    5.1457053672402e-06
 194    -3.5335290305628e-07
 195    6.0633673469504e-08
 196    -9.5703048732666e-08
 197    -5.5288025385626e-08
 198    9.0753589010135e-08
 199    7.4861871629079e-07
 200    1.4917142221402e-06
 201    -1.6090957132366e-07
 202    -3.3388192069472e-06
 203    1.5626409903206e-06
 204    1.7719135418836e-06
 205    4.6848318721393e-07
 206    2.5471404764844e-06
 207    -1.6485033868249e-06
 208    1.2878930090201e-05
 209    -9.6373304993702e-07
 210    3.9192669210978e-06
 211    -3.4405447795217e-07
 212    -2.4457609065173e-06
 213    3.310890087325e-07
 214    2.409028329787e-06
 215    5.1364056923363e-07
 216    -1.8926830687139e-07
 217    -4.1546869277184e-07
 218    -1.2478211180837e-06
 219    -1.6706457458426e-07
 220    -9.5848587214967e-07
 221    8.2521656197436e-07
 222    7.1827562329273e-06
 223    1.7801333503952e-06
 224    -7.9467386010593e-07
 225    2.1999002551184e-06
 226    -2.3794929811357e-06
 227    -1.5968591788387e-05
 228    -2.064168644727e-05
 229    8.0525906704026e-05
 230    1.1769642101765e-06
 231    3.4277588550153e-06
 232    2.0061083342578e-06
 233    -1.5371872327016e-06
 234    -2.7017179827214e-06
 235    1.0715671032751e-06
 236    1.3026356922997e-05
 237    -3.7686041860144e-05
 238    1.6552309120288e-06
 239    -6.3187069669229e-06
 240    -5.2842048432524e-06
 241    2.2162580424703e-05
 242    6.871194967536e-06
 243    9.2206466270901e-05
 244    -2.5846098268048e-06
 245    -6.337972574484e-06
 246    -1.9870422475877e-06
 247    -2.284675130073e-06
 248    -1.9693050286895e-06
 249    3.0765034323485e-06
 250    -1.0913191262404e-05
 251    3.9753627752542e-06
 252    2.3172368046404e-05
 253    -0.00018971349881941
 254    -6.2644733380681e-06
 255    7.4066026138757e-06
 256    -4.6099082650388e-06
 257    -8.4127904702485e-05
 258    -0.00010834735427794
 259    0.00021568619461984
 260    -6.0725261376166e-07
 261    1.1032369020972e-05
 262    5.3943286876585e-06
 263    -6.3767441842548e-06
 264    -6.8305142618321e-06
 265    5.0575025652008e-06
 266    -2.5276421252822e-05
 267    8.1777020160001e-06
 268    -3.7411374501432e-05
 269    6.8497221700122e-05
 270    -2.5134861726319e-05
 271    -0.0031041978091155
 272    0.00012808846425427
 273    0.00023760226593261
 274    -0.0001325049808454
 275    -0.0019513875684151
 276    -0.00058048557606182
 277    0.0032605140338232
 278    -0.00024523684028014
 279    0.00019575108384348