[Molden Format]
made by pyscf v[2.0.1]
[Atoms] (AU)
C   1   6     0.69100024066471     0.64692934207205    -3.48223131169301
H   2   1     2.68052439830868     1.13355088658700    -3.25784032593313
C   3   6    -0.36286361513219     0.85440132524594    -5.97030179418974
H   4   1    -2.35448549047279     0.36322488579172    -6.17995817793143
C   5   6     0.93697958957450     1.61209284601821    -8.05828437677121
H   6   1     0.50725181311820     3.44287068169954    -8.89764684313250
C   7   6     2.86970100877903     0.12057508237944    -9.23991306333710
H   8   1     3.28022106466413    -1.70875314533660    -8.37692190559989
H   9   1     1.55630230933075    -1.92953025305990    12.99630010416247
C   10   6     0.75233899775814    -2.21270439606481    11.10705728102219
H   11   1    -0.43433408177274    -3.90944857546550    11.22216085340412
C   12   6     2.86362581178706    -2.63237380607947     9.17926416456045
H   13   1     4.39038949912609    -1.24955421540245     9.49899813497433
H   14   1     3.74629220191363    -4.48798724300892     9.47414880959024
C   15   6     2.02478325613682    -2.42177285709634     6.44560829588644
C   16   6     3.88048732735477    -3.58795445234514     4.61402886975252
C   17   6    -0.18412382258602    -1.30464291234259     5.76021113872346
C   18   6    -2.10044360464350    -0.26837831858460     7.71610340967100
C   19   6    -3.08956938670431     2.35282328359417     6.88693925039594
C   20   6    -4.37372924086464    -2.09766595989678     7.93610724222001
C   21   6    -0.83850430601230     0.06372213486173    10.33002307638377
H   22   1     0.38411922151109     1.74281358582432    10.27380136542181
H   23   1    -2.30980003007874     0.45460143924521    11.73986301809809
H   24   1     4.58527064644668    -5.38706904487420     5.36778158031719
H   25   1     5.54944938085014    -2.37631462192748     4.35398898413318
H   26   1     3.06633019150423    -3.94118377050688     2.75255466040884
H   27   1    -4.17727778763735     2.26573369139522     5.12914900961283
H   28   1    -1.52662344944051     3.68001877445626     6.59540397144508
H   29   1    -4.32916174397830     3.13643051467482     8.35225460090378
H   30   1    -5.32329548508442    -2.36691813602939     6.11583672749896
H   31   1    -5.77989366602257    -1.33896741843465     9.25748940450990
H   32   1    -3.79310905208926    -3.96389819310853     8.61386170102686
C   33   6    -1.01100794811226    -1.06331657314144     3.11929490449947
C   34   6     0.37686231036534    -0.33275864505552     1.09165013605873
H   35   1    -3.01671213906703    -1.40297922279997     2.77827895090944
C   36   6    -0.64382707979370    -0.11591880174385    -1.42063131251064
H   37   1     2.35569259782137     0.17174499283897     1.33641070251401
H   38   1    -2.63317482980319    -0.60229203511219    -1.66119700387645
C   39   6     4.20991814769739     0.79575668965015   -11.31949989075694
C   40   6     6.14288813089389    -0.86010693489370   -12.38193355267250
H   41   1     3.89481568247576     2.59125541029260   -12.27063769452772
O   42   8     7.41472391465697    -0.37430332261595   -14.24398959848541
H   43   1     6.40229959564941    -2.67780216203268   -11.34807250251721
[GTO]
1 0
 s    6 1.00
             3047.5249  0.0018347001629433
             457.36951    0.01403730124668
             103.94869   0.068842606114048
             29.210155    0.23218442062076
              9.286663    0.46794134155879
              3.163927    0.36231203217765
 s    3 1.00
             7.8682724   -0.11933240861517
             1.8812885   -0.16085421161283
             0.5442493     1.1434564825515
 s    1 1.00
             0.1687144                   1
 p    3 1.00
             7.8682724   0.068999095584993
             1.8812885    0.31642397975315
             0.5442493    0.74430825237435
 p    1 1.00
             0.1687144                   1
 d    1 1.00
                   0.8                   1

2 0
 s    3 1.00
             18.731137    0.03349459952309
             2.8253937    0.23472694665786
             0.6401217    0.81375731841339
 s    1 1.00
             0.1612778                   1

3 0
 s    6 1.00
             3047.5249  0.0018347001629433
             457.36951    0.01403730124668
             103.94869   0.068842606114048
             29.210155    0.23218442062076
              9.286663    0.46794134155879
              3.163927    0.36231203217765
 s    3 1.00
             7.8682724   -0.11933240861517
             1.8812885   -0.16085421161283
             0.5442493     1.1434564825515
 s    1 1.00
             0.1687144                   1
 p    3 1.00
             7.8682724   0.068999095584993
             1.8812885    0.31642397975315
             0.5442493    0.74430825237435
 p    1 1.00
             0.1687144                   1
 d    1 1.00
                   0.8                   1

4 0
 s    3 1.00
             18.731137    0.03349459952309
             2.8253937    0.23472694665786
             0.6401217    0.81375731841339
 s    1 1.00
             0.1612778                   1

5 0
 s    6 1.00
             3047.5249  0.0018347001629433
             457.36951    0.01403730124668
             103.94869   0.068842606114048
             29.210155    0.23218442062076
              9.286663    0.46794134155879
              3.163927    0.36231203217765
 s    3 1.00
             7.8682724   -0.11933240861517
             1.8812885   -0.16085421161283
             0.5442493     1.1434564825515
 s    1 1.00
             0.1687144                   1
 p    3 1.00
             7.8682724   0.068999095584993
             1.8812885    0.31642397975315
             0.5442493    0.74430825237435
 p    1 1.00
             0.1687144                   1
 d    1 1.00
                   0.8                   1

6 0
 s    3 1.00
             18.731137    0.03349459952309
             2.8253937    0.23472694665786
             0.6401217    0.81375731841339
 s    1 1.00
             0.1612778                   1

7 0
 s    6 1.00
             3047.5249  0.0018347001629433
             457.36951    0.01403730124668
             103.94869   0.068842606114048
             29.210155    0.23218442062076
              9.286663    0.46794134155879
              3.163927    0.36231203217765
 s    3 1.00
             7.8682724   -0.11933240861517
             1.8812885   -0.16085421161283
             0.5442493     1.1434564825515
 s    1 1.00
             0.1687144                   1
 p    3 1.00
             7.8682724   0.068999095584993
             1.8812885    0.31642397975315
             0.5442493    0.74430825237435
 p    1 1.00
             0.1687144                   1
 d    1 1.00
                   0.8                   1

8 0
 s    3 1.00
             18.731137    0.03349459952309
             2.8253937    0.23472694665786
             0.6401217    0.81375731841339
 s    1 1.00
             0.1612778                   1

9 0
 s    3 1.00
             18.731137    0.03349459952309
             2.8253937    0.23472694665786
             0.6401217    0.81375731841339
 s    1 1.00
             0.1612778                   1

10 0
 s    6 1.00
             3047.5249  0.0018347001629433
             457.36951    0.01403730124668
             103.94869   0.068842606114048
             29.210155    0.23218442062076
              9.286663    0.46794134155879
              3.163927    0.36231203217765
 s    3 1.00
             7.8682724   -0.11933240861517
             1.8812885   -0.16085421161283
             0.5442493     1.1434564825515
 s    1 1.00
             0.1687144                   1
 p    3 1.00
             7.8682724   0.068999095584993
             1.8812885    0.31642397975315
             0.5442493    0.74430825237435
 p    1 1.00
             0.1687144                   1
 d    1 1.00
                   0.8                   1

11 0
 s    3 1.00
             18.731137    0.03349459952309
             2.8253937    0.23472694665786
             0.6401217    0.81375731841339
 s    1 1.00
             0.1612778                   1

12 0
 s    6 1.00
             3047.5249  0.0018347001629433
             457.36951    0.01403730124668
             103.94869   0.068842606114048
             29.210155    0.23218442062076
              9.286663    0.46794134155879
              3.163927    0.36231203217765
 s    3 1.00
             7.8682724   -0.11933240861517
             1.8812885   -0.16085421161283
             0.5442493     1.1434564825515
 s    1 1.00
             0.1687144                   1
 p    3 1.00
             7.8682724   0.068999095584993
             1.8812885    0.31642397975315
             0.5442493    0.74430825237435
 p    1 1.00
             0.1687144                   1
 d    1 1.00
                   0.8                   1

13 0
 s    3 1.00
             18.731137    0.03349459952309
             2.8253937    0.23472694665786
             0.6401217    0.81375731841339
 s    1 1.00
             0.1612778                   1

14 0
 s    3 1.00
             18.731137    0.03349459952309
             2.8253937    0.23472694665786
             0.6401217    0.81375731841339
 s    1 1.00
             0.1612778                   1

15 0
 s    6 1.00
             3047.5249  0.0018347001629433
             457.36951    0.01403730124668
             103.94869   0.068842606114048
             29.210155    0.23218442062076
              9.286663    0.46794134155879
              3.163927    0.36231203217765
 s    3 1.00
             7.8682724   -0.11933240861517
             1.8812885   -0.16085421161283
             0.5442493     1.1434564825515
 s    1 1.00
             0.1687144                   1
 p    3 1.00
             7.8682724   0.068999095584993
             1.8812885    0.31642397975315
             0.5442493    0.74430825237435
 p    1 1.00
             0.1687144                   1
 d    1 1.00
                   0.8                   1

16 0
 s    6 1.00
             3047.5249  0.0018347001629433
             457.36951    0.01403730124668
             103.94869   0.068842606114048
             29.210155    0.23218442062076
              9.286663    0.46794134155879
              3.163927    0.36231203217765
 s    3 1.00
             7.8682724   -0.11933240861517
             1.8812885   -0.16085421161283
             0.5442493     1.1434564825515
 s    1 1.00
             0.1687144                   1
 p    3 1.00
             7.8682724   0.068999095584993
             1.8812885    0.31642397975315
             0.5442493    0.74430825237435
 p    1 1.00
             0.1687144                   1
 d    1 1.00
                   0.8                   1

17 0
 s    6 1.00
             3047.5249  0.0018347001629433
             457.36951    0.01403730124668
             103.94869   0.068842606114048
             29.210155    0.23218442062076
              9.286663    0.46794134155879
              3.163927    0.36231203217765
 s    3 1.00
             7.8682724   -0.11933240861517
             1.8812885   -0.16085421161283
             0.5442493     1.1434564825515
 s    1 1.00
             0.1687144                   1
 p    3 1.00
             7.8682724   0.068999095584993
             1.8812885    0.31642397975315
             0.5442493    0.74430825237435
 p    1 1.00
             0.1687144                   1
 d    1 1.00
                   0.8                   1

18 0
 s    6 1.00
             3047.5249  0.0018347001629433
             457.36951    0.01403730124668
             103.94869   0.068842606114048
             29.210155    0.23218442062076
              9.286663    0.46794134155879
              3.163927    0.36231203217765
 s    3 1.00
             7.8682724   -0.11933240861517
             1.8812885   -0.16085421161283
             0.5442493     1.1434564825515
 s    1 1.00
             0.1687144                   1
 p    3 1.00
             7.8682724   0.068999095584993
             1.8812885    0.31642397975315
             0.5442493    0.74430825237435
 p    1 1.00
             0.1687144                   1
 d    1 1.00
                   0.8                   1

19 0
 s    6 1.00
             3047.5249  0.0018347001629433
             457.36951    0.01403730124668
             103.94869   0.068842606114048
             29.210155    0.23218442062076
              9.286663    0.46794134155879
              3.163927    0.36231203217765
 s    3 1.00
             7.8682724   -0.11933240861517
             1.8812885   -0.16085421161283
             0.5442493     1.1434564825515
 s    1 1.00
             0.1687144                   1
 p    3 1.00
             7.8682724   0.068999095584993
             1.8812885    0.31642397975315
             0.5442493    0.74430825237435
 p    1 1.00
             0.1687144                   1
 d    1 1.00
                   0.8                   1

20 0
 s    6 1.00
             3047.5249  0.0018347001629433
             457.36951    0.01403730124668
             103.94869   0.068842606114048
             29.210155    0.23218442062076
              9.286663    0.46794134155879
              3.163927    0.36231203217765
 s    3 1.00
             7.8682724   -0.11933240861517
             1.8812885   -0.16085421161283
             0.5442493     1.1434564825515
 s    1 1.00
             0.1687144                   1
 p    3 1.00
             7.8682724   0.068999095584993
             1.8812885    0.31642397975315
             0.5442493    0.74430825237435
 p    1 1.00
             0.1687144                   1
 d    1 1.00
                   0.8                   1

21 0
 s    6 1.00
             3047.5249  0.0018347001629433
             457.36951    0.01403730124668
             103.94869   0.068842606114048
             29.210155    0.23218442062076
              9.286663    0.46794134155879
              3.163927    0.36231203217765
 s    3 1.00
             7.8682724   -0.11933240861517
             1.8812885   -0.16085421161283
             0.5442493     1.1434564825515
 s    1 1.00
             0.1687144                   1
 p    3 1.00
             7.8682724   0.068999095584993
             1.8812885    0.31642397975315
             0.5442493    0.74430825237435
 p    1 1.00
             0.1687144                   1
 d    1 1.00
                   0.8                   1

22 0
 s    3 1.00
             18.731137    0.03349459952309
             2.8253937    0.23472694665786
             0.6401217    0.81375731841339
 s    1 1.00
             0.1612778                   1

23 0
 s    3 1.00
             18.731137    0.03349459952309
             2.8253937    0.23472694665786
             0.6401217    0.81375731841339
 s    1 1.00
             0.1612778                   1

24 0
 s    3 1.00
             18.731137    0.03349459952309
             2.8253937    0.23472694665786
             0.6401217    0.81375731841339
 s    1 1.00
             0.1612778                   1

25 0
 s    3 1.00
             18.731137    0.03349459952309
             2.8253937    0.23472694665786
             0.6401217    0.81375731841339
 s    1 1.00
             0.1612778                   1

26 0
 s    3 1.00
             18.731137    0.03349459952309
             2.8253937    0.23472694665786
             0.6401217    0.81375731841339
 s    1 1.00
             0.1612778                   1

27 0
 s    3 1.00
             18.731137    0.03349459952309
             2.8253937    0.23472694665786
             0.6401217    0.81375731841339
 s    1 1.00
             0.1612778                   1

28 0
 s    3 1.00
             18.731137    0.03349459952309
             2.8253937    0.23472694665786
             0.6401217    0.81375731841339
 s    1 1.00
             0.1612778                   1

29 0
 s    3 1.00
             18.731137    0.03349459952309
             2.8253937    0.23472694665786
             0.6401217    0.81375731841339
 s    1 1.00
             0.1612778                   1

30 0
 s    3 1.00
             18.731137    0.03349459952309
             2.8253937    0.23472694665786
             0.6401217    0.81375731841339
 s    1 1.00
             0.1612778                   1

31 0
 s    3 1.00
             18.731137    0.03349459952309
             2.8253937    0.23472694665786
             0.6401217    0.81375731841339
 s    1 1.00
             0.1612778                   1

32 0
 s    3 1.00
             18.731137    0.03349459952309
             2.8253937    0.23472694665786
             0.6401217    0.81375731841339
 s    1 1.00
             0.1612778                   1

33 0
 s    6 1.00
             3047.5249  0.0018347001629433
             457.36951    0.01403730124668
             103.94869   0.068842606114048
             29.210155    0.23218442062076
              9.286663    0.46794134155879
              3.163927    0.36231203217765
 s    3 1.00
             7.8682724   -0.11933240861517
             1.8812885   -0.16085421161283
             0.5442493     1.1434564825515
 s    1 1.00
             0.1687144                   1
 p    3 1.00
             7.8682724   0.068999095584993
             1.8812885    0.31642397975315
             0.5442493    0.74430825237435
 p    1 1.00
             0.1687144                   1
 d    1 1.00
                   0.8                   1

34 0
 s    6 1.00
             3047.5249  0.0018347001629433
             457.36951    0.01403730124668
             103.94869   0.068842606114048
             29.210155    0.23218442062076
              9.286663    0.46794134155879
              3.163927    0.36231203217765
 s    3 1.00
             7.8682724   -0.11933240861517
             1.8812885   -0.16085421161283
             0.5442493     1.1434564825515
 s    1 1.00
             0.1687144                   1
 p    3 1.00
             7.8682724   0.068999095584993
             1.8812885    0.31642397975315
             0.5442493    0.74430825237435
 p    1 1.00
             0.1687144                   1
 d    1 1.00
                   0.8                   1

35 0
 s    3 1.00
             18.731137    0.03349459952309
             2.8253937    0.23472694665786
             0.6401217    0.81375731841339
 s    1 1.00
             0.1612778                   1

36 0
 s    6 1.00
             3047.5249  0.0018347001629433
             457.36951    0.01403730124668
             103.94869   0.068842606114048
             29.210155    0.23218442062076
              9.286663    0.46794134155879
              3.163927    0.36231203217765
 s    3 1.00
             7.8682724   -0.11933240861517
             1.8812885   -0.16085421161283
             0.5442493     1.1434564825515
 s    1 1.00
             0.1687144                   1
 p    3 1.00
             7.8682724   0.068999095584993
             1.8812885    0.31642397975315
             0.5442493    0.74430825237435
 p    1 1.00
             0.1687144                   1
 d    1 1.00
                   0.8                   1

37 0
 s    3 1.00
             18.731137    0.03349459952309
             2.8253937    0.23472694665786
             0.6401217    0.81375731841339
 s    1 1.00
             0.1612778                   1

38 0
 s    3 1.00
             18.731137    0.03349459952309
             2.8253937    0.23472694665786
             0.6401217    0.81375731841339
 s    1 1.00
             0.1612778                   1

39 0
 s    6 1.00
             3047.5249  0.0018347001629433
             457.36951    0.01403730124668
             103.94869   0.068842606114048
             29.210155    0.23218442062076
              9.286663    0.46794134155879
              3.163927    0.36231203217765
 s    3 1.00
             7.8682724   -0.11933240861517
             1.8812885   -0.16085421161283
             0.5442493     1.1434564825515
 s    1 1.00
             0.1687144                   1
 p    3 1.00
             7.8682724   0.068999095584993
             1.8812885    0.31642397975315
             0.5442493    0.74430825237435
 p    1 1.00
             0.1687144                   1
 d    1 1.00
                   0.8                   1

40 0
 s    6 1.00
             3047.5249  0.0018347001629433
             457.36951    0.01403730124668
             103.94869   0.068842606114048
             29.210155    0.23218442062076
              9.286663    0.46794134155879
              3.163927    0.36231203217765
 s    3 1.00
             7.8682724   -0.11933240861517
             1.8812885   -0.16085421161283
             0.5442493     1.1434564825515
 s    1 1.00
             0.1687144                   1
 p    3 1.00
             7.8682724   0.068999095584993
             1.8812885    0.31642397975315
             0.5442493    0.74430825237435
 p    1 1.00
             0.1687144                   1
 d    1 1.00
                   0.8                   1

41 0
 s    3 1.00
             18.731137    0.03349459952309
             2.8253937    0.23472694665786
             0.6401217    0.81375731841339
 s    1 1.00
             0.1612778                   1

42 0
 s    6 1.00
             5484.6717   0.001831099805527
             825.23495   0.013950098518422
             188.04696    0.06844509273075
               52.9645    0.23271427528445
              16.89757    0.47019295006289
             5.7996353    0.35852086192309
 s    3 1.00
             15.539616   -0.11077750382508
             3.5999336   -0.14802630511126
             1.0137618     1.1307670390447
 s    1 1.00
             0.2700058                   1
 p    3 1.00
             15.539616   0.070874299543311
             3.5999336    0.33975279781076
             1.0137618    0.72715859531445
 p    1 1.00
             0.2700058                   1
 d    1 1.00
                   0.8                   1

43 0
 s    3 1.00
             18.731137    0.03349459952309
             2.8253937    0.23472694665786
             0.6401217    0.81375731841339
 s    1 1.00
             0.1612778                   1

[5d]
[7f]
[9g]

[MO]
 Sym= A
 Ene=               0
 Spin= Alpha
 Occup=    1.00000
   1    5.5078845958627e-07
   2    -6.1858239957588e-06
   3    0.00023052877875433
   4    -3.5901639480193e-06
   5    2.561393359449e-05
   6    -3.2785248306612e-06
   7    -7.74120358356e-05
   8    -0.00015450504699567
   9    0.00020255403350309
  10    3.8255455355801e-06
  11    -3.9590466100139e-06
  12    2.3123305527577e-06
  13    -1.1167674700468e-05
  14    7.0133166779133e-06
  15    8.8799716134205e-06
  16    2.7613326209364e-06
  17    -1.0726001169452e-06
  18    -0.00012508312762875
  19    -0.00065332499610946
  20    -6.0378936742523e-05
  21    -7.174537915003e-06
  22    7.236100030746e-05
  23    -0.00036425162503077
  24    0.0001279104373961
  25    0.00040287113714921
  26    -2.339778483968e-05
  27    2.2834593317072e-05
  28    -1.7395896941844e-05
  29    -3.3589593810488e-05
  30    -1.4734906910485e-05
  31    1.3832554586767e-05
  32    -5.0061196046831e-05
  33    -7.6294842474473e-05
  34    -0.00027648075765203
  35    0.0043583918035757
  36    0.00018069714743345
  37    -5.6934694156322e-05
  38    -0.00015285478599341
  39    0.0011639741834722
  40    -0.0017218089748874
  41    -5.9360500662254e-05
  42    -9.3109293138284e-06
  43    -0.0001057622292312
  44    2.332011264965e-05
  45    1.9817857688427e-05
  46    -8.8625093487102e-05
  47    1.3755590062369e-05
  48    0.00026493066204236
  49    5.3982537350696e-05
  50    -0.00030743610298417
  51    -0.0036500387788274
  52    -0.00045085497830174
  53    0.00028645917229771
  54    0.00030433131892875
  55    0.0025680881469715
  56    -0.0021782233515166
  57    -0.0014390921452187
  58    7.7730340427933e-05
  59    -1.0560688125007e-05
  60    -0.00016403008002651
  61    -5.5947592328865e-05
  62    0.00010311496850703
  63    -0.00039521321755189
  64    -0.00014413421234568
  65    1.3431574757096e-07
  66    5.4406447590321e-07
  67    4.611435541391e-08
  68    3.4248514147431e-07
  69    -2.3138298454423e-06
  70    -1.7618340088527e-07
  71    2.4219605525372e-07
  72    -1.2385465933236e-07
  73    -1.0709572963585e-07
  74    -9.5208799625667e-07
  75    -1.1643386122745e-07
  76    9.0866180195781e-08
  77    1.361436382961e-07
  78    -1.9966126803967e-08
  79    -2.3277662288529e-08
  80    1.2957787722908e-07
  81    -7.1998893466677e-08
  82    1.5107566973183e-07
  83    6.5765018870965e-08
  84    5.8330204545148e-07
  85    1.3643657295919e-05
  86    -6.3562775085772e-07
  87    1.7535047825769e-07
  88    -7.1824960656438e-07
  89    -2.4583297316851e-06
  90    2.6145691521668e-06
  91    -3.9508127649054e-06
  92    -1.9919086300346e-07
  93    2.5340190364855e-07
  94    -2.0570090448452e-07
  95    -1.1423724208287e-07
  96    2.116470219748e-07
  97    -2.1189618708223e-07
  98    2.7561639788572e-07
  99    -3.3119607690483e-07
 100    1.6021985769239e-07
 101    -1.9307973350713e-07
 102    8.8412447477383e-08
 103    4.3270340731343e-06
 104    -1.4787563333349e-06
 105    -1.4270481821991e-07
 106    5.306895856448e-07
 107     1.37809431239e-05
 108    -1.5284636459009e-05
 109    -3.7585966950386e-05
 110    6.2866091543729e-07
 111    7.4648960718592e-07
 112    -3.1779348472015e-07
 113    -1.1467273662984e-07
 114    3.2943486713646e-07
 115    4.7528793471377e-07
 116    4.2442513047044e-06
 117    -3.5906628341566e-05
 118    6.7475249353649e-07
 119    -6.4107249354213e-07
 120    -9.1925926434171e-07
 121    1.0382865713187e-05
 122    -4.6256471085682e-06
 123    -3.8145410015897e-06
 124    2.0767816371149e-07
 125    2.7614431290801e-07
 126    -1.2247416536653e-07
 127    -2.4826666299249e-07
 128    4.7402518534349e-07
 129    1.0054763341821e-06
 130    8.6390572210126e-06
 131    -5.9535523937573e-05
 132    7.6580338297126e-07
 133    1.0549478121898e-07
 134    -3.4000581486081e-06
 135    7.5637935483171e-06
 136    7.7285515058981e-06
 137    9.0425778995533e-05
 138    -2.6788262640238e-06
 139    -1.6935086182015e-06
 140    -2.8257782162717e-08
 141    -5.097090572065e-07
 142    2.4997723210687e-07
 143    7.1972862641823e-07
 144    5.0815020759623e-06
 145    -3.530919142148e-05
 146    -3.1371468850475e-07
 147    -1.5527925709433e-07
 148    5.4509939891839e-07
 149    -1.8901485692959e-05
 150    7.4338703235673e-06
 151    3.9648804349732e-06
 152    8.1688145340878e-07
 153    4.5674974593095e-07
 154    -7.2156074847717e-08
 155    -7.4305712084649e-07
 156    8.8865447653481e-07
 157     2.96660817643e-08
 158    -5.6057468285592e-07
 159    -1.6640766411109e-06
 160    -5.0277380595433e-07
 161    1.3865143874206e-07
 162    3.5676426746111e-07
 163    6.5772024131154e-06
 164    -1.1487789591272e-07
 165    -4.6432064216068e-07
 166    -4.5967614794596e-07
 167    2.9477444947457e-07
 168    -3.3301191246886e-08
 169    1.7086989445236e-07
 170    -3.4463449378823e-07
 171    -4.1486691683247e-08
 172    4.9799186027424e-07
 173    1.3125529494798e-07
 174    5.5310673101005e-07
 175    2.6113362342158e-07
 176    -5.1327790119191e-07
 177    1.7156512000798e-06
 178    -2.0256645978656e-06
 179    1.4951543987682e-06
 180    -1.1267815733939e-07
 181    -1.259369782026e-08
 182    -1.2620587225898e-07
 183    4.5313484893204e-07
 184    -6.3203623367197e-08
 185    1.7159299246123e-07
 186    2.3165173442045e-06
 187    3.1975158847083e-06
 188    -2.6039286358621e-08
 189    -1.8491133977091e-07
 190    -1.4757193661594e-06
 191    -2.3483081634751e-06
 192    -9.4633744215383e-07
 193    2.4232548696561e-06
 194    -1.0160323138602e-07
 195    1.6522539916566e-07
 196    -1.559932832538e-07
 197    -2.0101692377939e-07
 198    1.6708040208324e-07
 199    4.4891990743312e-07
 200    1.0145176786901e-06
 201    -1.8541329342991e-07
 202    -3.4383880766917e-06
 203    1.1559552248768e-06
 204    -7.763247178771e-08
 205    7.9094164691416e-07
 206    2.6138420194849e-06
 207    -1.7448382611919e-07
 208    6.7489780627482e-06
 209    -1.058338311866e-06
 210    4.7928668060627e-06
 211    -5.0889626292353e-07
 212    -2.4379285783529e-06
 213    4.7038009226068e-07
 214    2.1149438830225e-06
 215    1.0915061221987e-07
 216    1.2296088098812e-06
 217    -1.4837642108359e-07
 218    -5.2450636176601e-07
 219    -2.7472645598749e-07
 220    -1.2922401143771e-06
 221    1.3856251642132e-07
 222    3.6848395591488e-06
 223    6.1687529281028e-05
 224    -1.3882231317864e-06
 225    4.9545587822549e-06
 226    -3.8116676295685e-06
 227    1.040616950625e-05
 228    -1.9007620084347e-05
 229    7.5925091573291e-05
 230    1.9335890312786e-06
 231    3.3819343274574e-06
 232    9.1947018949169e-07
 233    -1.3798109244389e-06
 234    -2.1476316988448e-06
 235    9.864521613741e-07
 236    1.0302236317364e-05
 237    -7.2109031922918e-05
 238    4.4104541736961e-07
 239    -6.3988964548749e-06
 240    -2.7832732548238e-06
 241    4.7264413032957e-05
 242    9.2518812924414e-06
 243    5.5628540661639e-05
 244    -1.2000637287158e-06
 245    -5.2308059243705e-06
 246    4.6988215195173e-07
 247    -2.5404054851638e-06
 248    -1.2965103845412e-07
 249    4.7524608315554e-06
 250    -9.4585464628161e-06
 251    4.0115848767203e-06
 252    3.0434122642459e-05
 253    -0.00024766284406133
 254    -3.0755213813506e-07
 255    3.7149654022907e-07
 256    -9.255836673573e-06
 257    -8.8103751504693e-05
 258    -6.331260416613e-05
 259    0.00026545174167229
 260      -3.619932505e-06
 261    1.2340259983538e-05
 262    2.3283507724302e-06
 263    -8.8277629698534e-06
 264    -1.1632366876152e-06
 265    9.2540680193232e-07
 266    -2.5895867560278e-05
 267    1.0114511341871e-05
 268    -1.9726202944701e-05
 269    6.8167011953226e-05
 270    -2.672979933139e-05
 271    -0.0030753049054807
 272    1.1986641824274e-05
 273    0.00020988548991866
 274    -0.00021323599182776
 275    -0.0022371238258993
 276    -0.00064251554675816
 277    0.0030784274340706
 278    -0.00011368887550655
 279    0.0002628973589745
 280    -0.00016633899076219