[Molden Format]
made by pyscf v[2.0.1]
[Atoms] (AU)
C   1   6     0.69100024066471     0.64692934207205    -3.48223131169301
H   2   1     2.68052439830868     1.13355088658700    -3.25784032593313
C   3   6    -0.36286361513219     0.85440132524594    -5.97030179418974
H   4   1    -2.35448549047279     0.36322488579172    -6.17995817793143
C   5   6     0.93697958957450     1.61209284601821    -8.05828437677121
H   6   1     2.50035468987728     2.93484935641869    -7.84122146962088
C   7   6     0.36255105159660     0.76050131278393   -10.56848504450332
H   8   1    -1.20802221204617    -0.56532983436663   -10.75608465244450
H   9   1     1.55630230933075    -1.92953025305990    12.99630010416247
C   10   6     0.75233899775814    -2.21270439606481    11.10705728102219
H   11   1    -0.43433408177274    -3.90944857546550    11.22216085340412
C   12   6     2.86362581178706    -2.63237380607947     9.17926416456045
H   13   1     4.39038949912609    -1.24955421540245     9.49899813497433
H   14   1     3.74629220191363    -4.48798724300892     9.47414880959024
C   15   6     2.02478325613682    -2.42177285709634     6.44560829588644
C   16   6     3.88048732735477    -3.58795445234514     4.61402886975252
C   17   6    -0.18412382258602    -1.30464291234259     5.76021113872346
C   18   6    -2.10044360464350    -0.26837831858460     7.71610340967100
C   19   6    -3.08956938670431     2.35282328359417     6.88693925039594
C   20   6    -4.37372924086464    -2.09766595989678     7.93610724222001
C   21   6    -0.83850430601230     0.06372213486173    10.33002307638377
H   22   1     0.38411922151109     1.74281358582432    10.27380136542181
H   23   1    -2.30980003007874     0.45460143924521    11.73986301809809
H   24   1     4.58527064644668    -5.38706904487420     5.36778158031719
H   25   1     5.54944938085014    -2.37631462192748     4.35398898413318
H   26   1     3.06633019150423    -3.94118377050688     2.75255466040884
H   27   1    -4.17727778763735     2.26573369139522     5.12914900961283
H   28   1    -1.52662344944051     3.68001877445626     6.59540397144508
H   29   1    -4.32916174397830     3.13643051467482     8.35225460090378
H   30   1    -5.32329548508442    -2.36691813602939     6.11583672749896
H   31   1    -5.77989366602257    -1.33896741843465     9.25748940450990
H   32   1    -3.79310905208926    -3.96389819310853     8.61386170102686
C   33   6    -1.01100794811226    -1.06331657314144     3.11929490449947
C   34   6     0.37686231036534    -0.33275864505552     1.09165013605873
H   35   1    -3.01671213906703    -1.40297922279997     2.77827895090944
C   36   6    -0.64382707979370    -0.11591880174385    -1.42063131251064
H   37   1     2.35569259782137     0.17174499283897     1.33641070251401
H   38   1    -2.63317482980319    -0.60229203511219    -1.66119700387645
C   39   6     1.60144441070444     1.46482489722556   -12.70057441592292
C   40   6     0.86980516734608     0.48994136718256   -15.17470632539007
H   41   1     3.18180515535191     2.77908821383906   -12.64635086980665
O   42   8     1.89724046327418     1.04291297454121   -17.16453627851552
H   43   1    -0.75645459108880    -0.84958730954869   -15.14122439828819
[GTO]
1 0
 s    6 1.00
             3047.5249  0.0018347001629433
             457.36951    0.01403730124668
             103.94869   0.068842606114048
             29.210155    0.23218442062076
              9.286663    0.46794134155879
              3.163927    0.36231203217765
 s    3 1.00
             7.8682724   -0.11933240861517
             1.8812885   -0.16085421161283
             0.5442493     1.1434564825515
 s    1 1.00
             0.1687144                   1
 p    3 1.00
             7.8682724   0.068999095584993
             1.8812885    0.31642397975315
             0.5442493    0.74430825237435
 p    1 1.00
             0.1687144                   1
 d    1 1.00
                   0.8                   1

2 0
 s    3 1.00
             18.731137    0.03349459952309
             2.8253937    0.23472694665786
             0.6401217    0.81375731841339
 s    1 1.00
             0.1612778                   1

3 0
 s    6 1.00
             3047.5249  0.0018347001629433
             457.36951    0.01403730124668
             103.94869   0.068842606114048
             29.210155    0.23218442062076
              9.286663    0.46794134155879
              3.163927    0.36231203217765
 s    3 1.00
             7.8682724   -0.11933240861517
             1.8812885   -0.16085421161283
             0.5442493     1.1434564825515
 s    1 1.00
             0.1687144                   1
 p    3 1.00
             7.8682724   0.068999095584993
             1.8812885    0.31642397975315
             0.5442493    0.74430825237435
 p    1 1.00
             0.1687144                   1
 d    1 1.00
                   0.8                   1

4 0
 s    3 1.00
             18.731137    0.03349459952309
             2.8253937    0.23472694665786
             0.6401217    0.81375731841339
 s    1 1.00
             0.1612778                   1

5 0
 s    6 1.00
             3047.5249  0.0018347001629433
             457.36951    0.01403730124668
             103.94869   0.068842606114048
             29.210155    0.23218442062076
              9.286663    0.46794134155879
              3.163927    0.36231203217765
 s    3 1.00
             7.8682724   -0.11933240861517
             1.8812885   -0.16085421161283
             0.5442493     1.1434564825515
 s    1 1.00
             0.1687144                   1
 p    3 1.00
             7.8682724   0.068999095584993
             1.8812885    0.31642397975315
             0.5442493    0.74430825237435
 p    1 1.00
             0.1687144                   1
 d    1 1.00
                   0.8                   1

6 0
 s    3 1.00
             18.731137    0.03349459952309
             2.8253937    0.23472694665786
             0.6401217    0.81375731841339
 s    1 1.00
             0.1612778                   1

7 0
 s    6 1.00
             3047.5249  0.0018347001629433
             457.36951    0.01403730124668
             103.94869   0.068842606114048
             29.210155    0.23218442062076
              9.286663    0.46794134155879
              3.163927    0.36231203217765
 s    3 1.00
             7.8682724   -0.11933240861517
             1.8812885   -0.16085421161283
             0.5442493     1.1434564825515
 s    1 1.00
             0.1687144                   1
 p    3 1.00
             7.8682724   0.068999095584993
             1.8812885    0.31642397975315
             0.5442493    0.74430825237435
 p    1 1.00
             0.1687144                   1
 d    1 1.00
                   0.8                   1

8 0
 s    3 1.00
             18.731137    0.03349459952309
             2.8253937    0.23472694665786
             0.6401217    0.81375731841339
 s    1 1.00
             0.1612778                   1

9 0
 s    3 1.00
             18.731137    0.03349459952309
             2.8253937    0.23472694665786
             0.6401217    0.81375731841339
 s    1 1.00
             0.1612778                   1

10 0
 s    6 1.00
             3047.5249  0.0018347001629433
             457.36951    0.01403730124668
             103.94869   0.068842606114048
             29.210155    0.23218442062076
              9.286663    0.46794134155879
              3.163927    0.36231203217765
 s    3 1.00
             7.8682724   -0.11933240861517
             1.8812885   -0.16085421161283
             0.5442493     1.1434564825515
 s    1 1.00
             0.1687144                   1
 p    3 1.00
             7.8682724   0.068999095584993
             1.8812885    0.31642397975315
             0.5442493    0.74430825237435
 p    1 1.00
             0.1687144                   1
 d    1 1.00
                   0.8                   1

11 0
 s    3 1.00
             18.731137    0.03349459952309
             2.8253937    0.23472694665786
             0.6401217    0.81375731841339
 s    1 1.00
             0.1612778                   1

12 0
 s    6 1.00
             3047.5249  0.0018347001629433
             457.36951    0.01403730124668
             103.94869   0.068842606114048
             29.210155    0.23218442062076
              9.286663    0.46794134155879
              3.163927    0.36231203217765
 s    3 1.00
             7.8682724   -0.11933240861517
             1.8812885   -0.16085421161283
             0.5442493     1.1434564825515
 s    1 1.00
             0.1687144                   1
 p    3 1.00
             7.8682724   0.068999095584993
             1.8812885    0.31642397975315
             0.5442493    0.74430825237435
 p    1 1.00
             0.1687144                   1
 d    1 1.00
                   0.8                   1

13 0
 s    3 1.00
             18.731137    0.03349459952309
             2.8253937    0.23472694665786
             0.6401217    0.81375731841339
 s    1 1.00
             0.1612778                   1

14 0
 s    3 1.00
             18.731137    0.03349459952309
             2.8253937    0.23472694665786
             0.6401217    0.81375731841339
 s    1 1.00
             0.1612778                   1

15 0
 s    6 1.00
             3047.5249  0.0018347001629433
             457.36951    0.01403730124668
             103.94869   0.068842606114048
             29.210155    0.23218442062076
              9.286663    0.46794134155879
              3.163927    0.36231203217765
 s    3 1.00
             7.8682724   -0.11933240861517
             1.8812885   -0.16085421161283
             0.5442493     1.1434564825515
 s    1 1.00
             0.1687144                   1
 p    3 1.00
             7.8682724   0.068999095584993
             1.8812885    0.31642397975315
             0.5442493    0.74430825237435
 p    1 1.00
             0.1687144                   1
 d    1 1.00
                   0.8                   1

16 0
 s    6 1.00
             3047.5249  0.0018347001629433
             457.36951    0.01403730124668
             103.94869   0.068842606114048
             29.210155    0.23218442062076
              9.286663    0.46794134155879
              3.163927    0.36231203217765
 s    3 1.00
             7.8682724   -0.11933240861517
             1.8812885   -0.16085421161283
             0.5442493     1.1434564825515
 s    1 1.00
             0.1687144                   1
 p    3 1.00
             7.8682724   0.068999095584993
             1.8812885    0.31642397975315
             0.5442493    0.74430825237435
 p    1 1.00
             0.1687144                   1
 d    1 1.00
                   0.8                   1

17 0
 s    6 1.00
             3047.5249  0.0018347001629433
             457.36951    0.01403730124668
             103.94869   0.068842606114048
             29.210155    0.23218442062076
              9.286663    0.46794134155879
              3.163927    0.36231203217765
 s    3 1.00
             7.8682724   -0.11933240861517
             1.8812885   -0.16085421161283
             0.5442493     1.1434564825515
 s    1 1.00
             0.1687144                   1
 p    3 1.00
             7.8682724   0.068999095584993
             1.8812885    0.31642397975315
             0.5442493    0.74430825237435
 p    1 1.00
             0.1687144                   1
 d    1 1.00
                   0.8                   1

18 0
 s    6 1.00
             3047.5249  0.0018347001629433
             457.36951    0.01403730124668
             103.94869   0.068842606114048
             29.210155    0.23218442062076
              9.286663    0.46794134155879
              3.163927    0.36231203217765
 s    3 1.00
             7.8682724   -0.11933240861517
             1.8812885   -0.16085421161283
             0.5442493     1.1434564825515
 s    1 1.00
             0.1687144                   1
 p    3 1.00
             7.8682724   0.068999095584993
             1.8812885    0.31642397975315
             0.5442493    0.74430825237435
 p    1 1.00
             0.1687144                   1
 d    1 1.00
                   0.8                   1

19 0
 s    6 1.00
             3047.5249  0.0018347001629433
             457.36951    0.01403730124668
             103.94869   0.068842606114048
             29.210155    0.23218442062076
              9.286663    0.46794134155879
              3.163927    0.36231203217765
 s    3 1.00
             7.8682724   -0.11933240861517
             1.8812885   -0.16085421161283
             0.5442493     1.1434564825515
 s    1 1.00
             0.1687144                   1
 p    3 1.00
             7.8682724   0.068999095584993
             1.8812885    0.31642397975315
             0.5442493    0.74430825237435
 p    1 1.00
             0.1687144                   1
 d    1 1.00
                   0.8                   1

20 0
 s    6 1.00
             3047.5249  0.0018347001629433
             457.36951    0.01403730124668
             103.94869   0.068842606114048
             29.210155    0.23218442062076
              9.286663    0.46794134155879
              3.163927    0.36231203217765
 s    3 1.00
             7.8682724   -0.11933240861517
             1.8812885   -0.16085421161283
             0.5442493     1.1434564825515
 s    1 1.00
             0.1687144                   1
 p    3 1.00
             7.8682724   0.068999095584993
             1.8812885    0.31642397975315
             0.5442493    0.74430825237435
 p    1 1.00
             0.1687144                   1
 d    1 1.00
                   0.8                   1

21 0
 s    6 1.00
             3047.5249  0.0018347001629433
             457.36951    0.01403730124668
             103.94869   0.068842606114048
             29.210155    0.23218442062076
              9.286663    0.46794134155879
              3.163927    0.36231203217765
 s    3 1.00
             7.8682724   -0.11933240861517
             1.8812885   -0.16085421161283
             0.5442493     1.1434564825515
 s    1 1.00
             0.1687144                   1
 p    3 1.00
             7.8682724   0.068999095584993
             1.8812885    0.31642397975315
             0.5442493    0.74430825237435
 p    1 1.00
             0.1687144                   1
 d    1 1.00
                   0.8                   1

22 0
 s    3 1.00
             18.731137    0.03349459952309
             2.8253937    0.23472694665786
             0.6401217    0.81375731841339
 s    1 1.00
             0.1612778                   1

23 0
 s    3 1.00
             18.731137    0.03349459952309
             2.8253937    0.23472694665786
             0.6401217    0.81375731841339
 s    1 1.00
             0.1612778                   1

24 0
 s    3 1.00
             18.731137    0.03349459952309
             2.8253937    0.23472694665786
             0.6401217    0.81375731841339
 s    1 1.00
             0.1612778                   1

25 0
 s    3 1.00
             18.731137    0.03349459952309
             2.8253937    0.23472694665786
             0.6401217    0.81375731841339
 s    1 1.00
             0.1612778                   1

26 0
 s    3 1.00
             18.731137    0.03349459952309
             2.8253937    0.23472694665786
             0.6401217    0.81375731841339
 s    1 1.00
             0.1612778                   1

27 0
 s    3 1.00
             18.731137    0.03349459952309
             2.8253937    0.23472694665786
             0.6401217    0.81375731841339
 s    1 1.00
             0.1612778                   1

28 0
 s    3 1.00
             18.731137    0.03349459952309
             2.8253937    0.23472694665786
             0.6401217    0.81375731841339
 s    1 1.00
             0.1612778                   1

29 0
 s    3 1.00
             18.731137    0.03349459952309
             2.8253937    0.23472694665786
             0.6401217    0.81375731841339
 s    1 1.00
             0.1612778                   1

30 0
 s    3 1.00
             18.731137    0.03349459952309
             2.8253937    0.23472694665786
             0.6401217    0.81375731841339
 s    1 1.00
             0.1612778                   1

31 0
 s    3 1.00
             18.731137    0.03349459952309
             2.8253937    0.23472694665786
             0.6401217    0.81375731841339
 s    1 1.00
             0.1612778                   1

32 0
 s    3 1.00
             18.731137    0.03349459952309
             2.8253937    0.23472694665786
             0.6401217    0.81375731841339
 s    1 1.00
             0.1612778                   1

33 0
 s    6 1.00
             3047.5249  0.0018347001629433
             457.36951    0.01403730124668
             103.94869   0.068842606114048
             29.210155    0.23218442062076
              9.286663    0.46794134155879
              3.163927    0.36231203217765
 s    3 1.00
             7.8682724   -0.11933240861517
             1.8812885   -0.16085421161283
             0.5442493     1.1434564825515
 s    1 1.00
             0.1687144                   1
 p    3 1.00
             7.8682724   0.068999095584993
             1.8812885    0.31642397975315
             0.5442493    0.74430825237435
 p    1 1.00
             0.1687144                   1
 d    1 1.00
                   0.8                   1

34 0
 s    6 1.00
             3047.5249  0.0018347001629433
             457.36951    0.01403730124668
             103.94869   0.068842606114048
             29.210155    0.23218442062076
              9.286663    0.46794134155879
              3.163927    0.36231203217765
 s    3 1.00
             7.8682724   -0.11933240861517
             1.8812885   -0.16085421161283
             0.5442493     1.1434564825515
 s    1 1.00
             0.1687144                   1
 p    3 1.00
             7.8682724   0.068999095584993
             1.8812885    0.31642397975315
             0.5442493    0.74430825237435
 p    1 1.00
             0.1687144                   1
 d    1 1.00
                   0.8                   1

35 0
 s    3 1.00
             18.731137    0.03349459952309
             2.8253937    0.23472694665786
             0.6401217    0.81375731841339
 s    1 1.00
             0.1612778                   1

36 0
 s    6 1.00
             3047.5249  0.0018347001629433
             457.36951    0.01403730124668
             103.94869   0.068842606114048
             29.210155    0.23218442062076
              9.286663    0.46794134155879
              3.163927    0.36231203217765
 s    3 1.00
             7.8682724   -0.11933240861517
             1.8812885   -0.16085421161283
             0.5442493     1.1434564825515
 s    1 1.00
             0.1687144                   1
 p    3 1.00
             7.8682724   0.068999095584993
             1.8812885    0.31642397975315
             0.5442493    0.74430825237435
 p    1 1.00
             0.1687144                   1
 d    1 1.00
                   0.8                   1

37 0
 s    3 1.00
             18.731137    0.03349459952309
             2.8253937    0.23472694665786
             0.6401217    0.81375731841339
 s    1 1.00
             0.1612778                   1

38 0
 s    3 1.00
             18.731137    0.03349459952309
             2.8253937    0.23472694665786
             0.6401217    0.81375731841339
 s    1 1.00
             0.1612778                   1

39 0
 s    6 1.00
             3047.5249  0.0018347001629433
             457.36951    0.01403730124668
             103.94869   0.068842606114048
             29.210155    0.23218442062076
              9.286663    0.46794134155879
              3.163927    0.36231203217765
 s    3 1.00
             7.8682724   -0.11933240861517
             1.8812885   -0.16085421161283
             0.5442493     1.1434564825515
 s    1 1.00
             0.1687144                   1
 p    3 1.00
             7.8682724   0.068999095584993
             1.8812885    0.31642397975315
             0.5442493    0.74430825237435
 p    1 1.00
             0.1687144                   1
 d    1 1.00
                   0.8                   1

40 0
 s    6 1.00
             3047.5249  0.0018347001629433
             457.36951    0.01403730124668
             103.94869   0.068842606114048
             29.210155    0.23218442062076
              9.286663    0.46794134155879
              3.163927    0.36231203217765
 s    3 1.00
             7.8682724   -0.11933240861517
             1.8812885   -0.16085421161283
             0.5442493     1.1434564825515
 s    1 1.00
             0.1687144                   1
 p    3 1.00
             7.8682724   0.068999095584993
             1.8812885    0.31642397975315
             0.5442493    0.74430825237435
 p    1 1.00
             0.1687144                   1
 d    1 1.00
                   0.8                   1

41 0
 s    3 1.00
             18.731137    0.03349459952309
             2.8253937    0.23472694665786
             0.6401217    0.81375731841339
 s    1 1.00
             0.1612778                   1

42 0
 s    6 1.00
             5484.6717   0.001831099805527
             825.23495   0.013950098518422
             188.04696    0.06844509273075
               52.9645    0.23271427528445
              16.89757    0.47019295006289
             5.7996353    0.35852086192309
 s    3 1.00
             15.539616   -0.11077750382508
             3.5999336   -0.14802630511126
             1.0137618     1.1307670390447
 s    1 1.00
             0.2700058                   1
 p    3 1.00
             15.539616   0.070874299543311
             3.5999336    0.33975279781076
             1.0137618    0.72715859531445
 p    1 1.00
             0.2700058                   1
 d    1 1.00
                   0.8                   1

43 0
 s    3 1.00
             18.731137    0.03349459952309
             2.8253937    0.23472694665786
             0.6401217    0.81375731841339
 s    1 1.00
             0.1612778                   1

[5d]
[7f]
[9g]

[MO]
 Sym= A
 Ene=               0
 Spin= Alpha
 Occup=    1.00000
   1    -7.3261474353317e-06
   2    -1.8855488028784e-05
   3    -9.0740401144571e-05
   4    -1.2433275082394e-05
   5    -2.8524869077217e-05
   6    1.0291977571056e-05
   7    0.0001984548852786
   8    0.0002473759163405
   9    -0.00060120210636558
  10    1.5389179138988e-05
  11    2.1333999050876e-05
  12    1.3370713862608e-07
  13    1.3015950353784e-06
  14    7.4103255599802e-07
  15    -3.1963409863795e-05
  16    -3.1989673305853e-05
  17    1.3691614181695e-05
  18    2.3732646804968e-05
  19    -0.0016531942396163
  20    -2.6402532399443e-05
  21    4.0564679999328e-06
  22    7.2186855776035e-05
  23    -0.00036090314313909
  24    -0.00012668252743311
  25    0.00070448391367292
  26    -4.4630231729216e-05
  27    1.7931861198311e-05
  28    2.0705473172031e-05
  29    -2.1586060908985e-05
  30    2.7513692541244e-05
  31    -7.1293228008755e-07
  32    5.7217909022706e-05
  33    -8.0976224319561e-05
  34    -0.00028214709176779
  35    0.0050555341312299
  36    1.8527760182979e-05
  37    -2.5351592305869e-05
  38    -0.00020645849324435
  39    -0.0013857393564997
  40    -0.0012666866781147
  41    -0.0013206205674461
  42    0.00014376147861649
  43    1.2363042573166e-05
  44    6.1517190956363e-05
  45    1.9113357528662e-06
  46    4.8515943067293e-05
  47    2.8032838441692e-05
  48    0.00028804699268335
  49    5.8359481993007e-05
  50    -0.0002797169594804
  51    -0.0039784458942154
  52    8.080448319205e-05
  53    0.00015920842973945
  54    0.00058615727223536
  55    -0.00097129136796201
  56    -0.0013769461846975
  57    -0.0034855510125058
  58    -9.3815112287602e-05
  59    -0.00013378544219809
  60    -0.00012479016023806
  61    4.0251781424375e-05
  62    8.4576017211589e-05
  63    -0.00039214864474983
  64    -0.00015977395729259
  65    -3.1079134479957e-08
  66    1.3743928630214e-06
  67    -8.272557104667e-08
  68    -8.3406220814202e-07
  69    -9.7729679964915e-07
  70    5.2021240070598e-07
  71    -5.904688172611e-07
  72    2.7816535801574e-07
  73    1.5668532188624e-06
  74    1.5532584795871e-07
  75    -1.957988257248e-06
  76    1.7904034673577e-07
  77    7.9111876098365e-08
  78    9.0332306364922e-08
  79    5.7833836149422e-08
  80    7.2565312269602e-08
  81    9.1388575404167e-08
  82    5.0757609186487e-07
  83    1.8263109001271e-07
  84    1.2875430011635e-06
  85    -5.6160394405709e-06
  86    2.136496959928e-07
  87    -3.0896832258997e-08
  88    4.0547195278576e-07
  89    2.9377820064984e-06
  90    -5.0483977309952e-06
  91    8.024034281394e-08
  92    -1.0063822696653e-07
  93    -2.9780205166746e-07
  94    5.9724245324037e-07
  95    -2.166736910353e-07
  96    1.2748509535301e-08
  97    8.3300401543246e-07
  98    2.539371829817e-07
  99    -1.7401970870743e-07
 100    -8.8017373043404e-07
 101    -3.9137458754299e-07
 102    -1.311198036469e-06
 103    5.1763576713943e-05
 104    -5.7145683893503e-07
 105    3.2423413204423e-07
 106    -1.6312521490042e-06
 107    -2.0196662632398e-05
 108    2.1448665588515e-05
 109    -5.6212528542127e-06
 110    5.577232272038e-07
 111    8.6744743685089e-07
 112    -3.8892792854837e-07
 113    -5.7556637513885e-07
 114    -1.073491089941e-06
 115    3.5714111198395e-07
 116    3.6802670231252e-06
 117    -1.0797049390781e-05
 118    -1.8444744485945e-07
 119    8.2002979791954e-07
 120    -9.9469255585794e-07
 121    3.1124519280342e-06
 122    -6.5454072215123e-06
 123    1.2129183648895e-05
 124    3.6289548213966e-07
 125    -4.6088388257985e-07
 126    -3.8865952677946e-07
 127    -2.7080844013084e-08
 128    -1.2112283063903e-07
 129    3.1345144980842e-07
 130    3.7895405627229e-06
 131    2.845261704634e-05
 132    3.7594100027153e-06
 133    1.6806010565447e-06
 134    -3.420110864878e-06
 135    -7.2171081236213e-05
 136    3.8830955516454e-06
 137    -1.4820433292111e-05
 138    3.8708851402275e-07
 139    5.7859980900009e-07
 140    1.7377025419221e-06
 141    -2.774067255433e-07
 142    1.1541700449785e-06
 143    -2.3432708148283e-08
 144    -1.6763457240086e-06
 145    -2.2977252066878e-05
 146    -3.911213037833e-07
 147    -1.1479428387145e-06
 148    3.4851399612317e-06
 149    -8.0472219303704e-06
 150    2.7222016539726e-05
 151    -1.3422220714959e-05
 152    -4.553297133236e-07
 153    1.1082814759598e-07
 154    -1.4075177376165e-06
 155    -1.8289480991008e-07
 156    -6.7508694494858e-07
 157    4.5848013037096e-07
 158    3.4850678616489e-06
 159    -2.3088646751808e-05
 160    8.272978287624e-08
 161    7.3110389699661e-07
 162    -8.0221322196125e-07
 163    -6.7691592858842e-06
 164    8.9016295498218e-06
 165    1.291508413058e-06
 166    7.5008314022033e-07
 167    -2.8142593116515e-07
 168    1.6047146705405e-07
 169    3.4410071304453e-07
 170    5.6042547701701e-07
 171    2.0362359537406e-08
 172    2.2694048972179e-07
 173    3.3674324421113e-06
 174    3.3242937428581e-08
 175    -1.490680583341e-07
 176    8.9289205024715e-07
 177    8.4212785230083e-06
 178    2.8097723142677e-06
 179    4.3502370297585e-06
 180    -2.6663258324867e-07
 181    9.4621252890982e-07
 182    6.3282395312578e-08
 183    5.5863796252029e-07
 184    7.0081147404909e-07
 185    -4.4368541253516e-07
 186    -3.626313034747e-06
 187    1.883482505412e-05
 188    -7.4553760482737e-07
 189    -7.4086503362861e-08
 190    -2.0475136631587e-07
 191    -1.0502150336405e-06
 192    -7.2301938597714e-06
 193    -8.0847440090102e-06
 194    2.8814289030293e-07
 195    5.5618071166551e-07
 196    1.0731884897279e-06
 197    -3.0152013555895e-07
 198    2.4958477865743e-07
 199    -1.0545064401142e-06
 200    1.4633529563724e-06
 201    -3.255654977351e-07
 202    4.8621447584764e-07
 203    -2.4190343433529e-07
 204    -3.685001087198e-06
 205    2.0143983519751e-06
 206    7.1006861160704e-07
 207    -9.3298504863817e-07
 208    1.5545939620828e-05
 209    1.5324672086722e-06
 210    6.8632380562098e-07
 211    1.3487148085225e-06
 212    1.9664898995703e-06
 213    3.8896537988821e-07
 214    -1.9751826228831e-06
 215    -1.7755964284736e-06
 216    1.1883682697619e-05
 217    4.1457917856841e-07
 218    -1.6953296961301e-07
 219    5.3265017453889e-07
 220    -1.7861837228898e-06
 221    -2.225935229898e-06
 222    -1.3966957957739e-05
 223    0.0001667324107758
 224    4.3942084246374e-06
 225    -4.8581370970574e-07
 226    1.0167104940381e-07
 227    2.3158601519866e-05
 228    3.3212547829859e-05
 229    -0.00017565897628334
 230    4.2526923451713e-06
 231    -5.8402630326353e-06
 232    -3.8368687750331e-06
 233    2.0447776612312e-06
 234    1.0375626536962e-06
 235    5.2789005678808e-06
 236    3.3033717966676e-05
 237    -0.00051409877228972
 238    -2.8198144714221e-06
 239    -6.2544003364738e-06
 240    1.1265751915997e-05
 241    0.00016017422673337
 242    4.362415939156e-05
 243    9.2457926408853e-05
 244    -1.4827482519464e-05
 245    1.2323523376903e-06
 246    3.0265082758683e-06
 247    -1.2154362808867e-06
 248    -3.5313971610143e-06
 249    -7.4724575904064e-06
 250    -1.6198163414751e-05
 251    -4.6046525528437e-06
 252    -3.3968382871865e-05
 253    0.00072382785511789
 254    -1.316017710888e-05
 255    1.234202359106e-05
 256    -2.2625728328065e-05
 257    0.00032055439970118
 258    9.762514770181e-06
 259    9.867273407925e-05
 260    1.4402879332072e-05
 261    -2.4348486634415e-06
 262    -2.5589126449851e-06
 263    4.3495860990261e-06
 264    -1.8737923106363e-06
 265    -4.2119812536704e-06
 266    -9.1237543504197e-06
 267    1.980155199259e-05
 268    3.8425235120424e-05
 269    6.7475897729353e-05
 270    -3.1539631296178e-05
 271    -0.0030693590768056
 272    0.00022934675552224
 273    0.00016014753334067
 274    -9.7350778986063e-05
 275    -0.0015650013935932
 276    -0.00076211182073371
 277    0.0035230906984715
 278    -0.00035453935049919
 279    9.6823653760165e-05
 280    1.2800303499558e-05