[Molden Format]
made by pyscf v[2.0.1]
[Atoms] (AU)
C   1   6     0.69100024066471     0.64692934207205    -3.48223131169301
H   2   1     2.68052439830868     1.13355088658700    -3.25784032593313
C   3   6    -0.36286361513219     0.85440132524594    -5.97030179418974
H   4   1    -2.35448549047279     0.36322488579172    -6.17995817793143
C   5   6     0.93697958957450     1.61209284601821    -8.05828437677121
H   6   1     0.30646242799847     3.28538583431710    -9.07979378939352
C   7   6     3.12235401223615     0.31857752265429    -9.01077606594223
H   8   1     3.73232478675010    -1.35404880050347    -7.96675544506269
H   9   1     1.55630230933075    -1.92953025305990    12.99630010416247
C   10   6     0.75233899775814    -2.21270439606481    11.10705728102219
H   11   1    -0.43433408177274    -3.90944857546550    11.22216085340412
C   12   6     2.86362581178706    -2.63237380607947     9.17926416456045
H   13   1     4.39038949912609    -1.24955421540245     9.49899813497433
H   14   1     3.74629220191363    -4.48798724300892     9.47414880959024
C   15   6     2.02478325613682    -2.42177285709634     6.44560829588644
C   16   6     3.88048732735477    -3.58795445234514     4.61402886975252
C   17   6    -0.18412382258602    -1.30464291234259     5.76021113872346
C   18   6    -2.10044360464350    -0.26837831858460     7.71610340967100
C   19   6    -3.08956938670431     2.35282328359417     6.88693925039594
C   20   6    -4.37372924086464    -2.09766595989678     7.93610724222001
C   21   6    -0.83850430601230     0.06372213486173    10.33002307638377
H   22   1     0.38411922151109     1.74281358582432    10.27380136542181
H   23   1    -2.30980003007874     0.45460143924521    11.73986301809809
H   24   1     4.58527064644668    -5.38706904487420     5.36778158031719
H   25   1     5.54944938085014    -2.37631462192748     4.35398898413318
H   26   1     3.06633019150423    -3.94118377050688     2.75255466040884
H   27   1    -4.17727778763735     2.26573369139522     5.12914900961283
H   28   1    -1.52662344944051     3.68001877445626     6.59540397144508
H   29   1    -4.32916174397830     3.13643051467482     8.35225460090378
H   30   1    -5.32329548508442    -2.36691813602939     6.11583672749896
H   31   1    -5.77989366602257    -1.33896741843465     9.25748940450990
H   32   1    -3.79310905208926    -3.96389819310853     8.61386170102686
C   33   6    -1.01100794811226    -1.06331657314144     3.11929490449947
C   34   6     0.37686231036534    -0.33275864505552     1.09165013605873
H   35   1    -3.01671213906703    -1.40297922279997     2.77827895090944
C   36   6    -0.64382707979370    -0.11591880174385    -1.42063131251064
H   37   1     2.35569259782137     0.17174499283897     1.33641070251401
H   38   1    -2.63317482980319    -0.60229203511219    -1.66119700387645
C   39   6     4.47307059082302     1.00138906809445   -11.08105785168909
C   40   6     6.67463726557562    -0.44413475967984   -11.89995199897600
H   41   1     3.96718229655089     2.64690253849906   -12.20539356366280
O   42   8     7.97152342098443     0.06042731610533   -13.73960618931333
H   43   1     7.12379765531873    -2.11255344586070   -10.69379572801653
[GTO]
1 0
 s    6 1.00
             3047.5249  0.0018347001629433
             457.36951    0.01403730124668
             103.94869   0.068842606114048
             29.210155    0.23218442062076
              9.286663    0.46794134155879
              3.163927    0.36231203217765
 s    3 1.00
             7.8682724   -0.11933240861517
             1.8812885   -0.16085421161283
             0.5442493     1.1434564825515
 s    1 1.00
             0.1687144                   1
 p    3 1.00
             7.8682724   0.068999095584993
             1.8812885    0.31642397975315
             0.5442493    0.74430825237435
 p    1 1.00
             0.1687144                   1
 d    1 1.00
                   0.8                   1

2 0
 s    3 1.00
             18.731137    0.03349459952309
             2.8253937    0.23472694665786
             0.6401217    0.81375731841339
 s    1 1.00
             0.1612778                   1

3 0
 s    6 1.00
             3047.5249  0.0018347001629433
             457.36951    0.01403730124668
             103.94869   0.068842606114048
             29.210155    0.23218442062076
              9.286663    0.46794134155879
              3.163927    0.36231203217765
 s    3 1.00
             7.8682724   -0.11933240861517
             1.8812885   -0.16085421161283
             0.5442493     1.1434564825515
 s    1 1.00
             0.1687144                   1
 p    3 1.00
             7.8682724   0.068999095584993
             1.8812885    0.31642397975315
             0.5442493    0.74430825237435
 p    1 1.00
             0.1687144                   1
 d    1 1.00
                   0.8                   1

4 0
 s    3 1.00
             18.731137    0.03349459952309
             2.8253937    0.23472694665786
             0.6401217    0.81375731841339
 s    1 1.00
             0.1612778                   1

5 0
 s    6 1.00
             3047.5249  0.0018347001629433
             457.36951    0.01403730124668
             103.94869   0.068842606114048
             29.210155    0.23218442062076
              9.286663    0.46794134155879
              3.163927    0.36231203217765
 s    3 1.00
             7.8682724   -0.11933240861517
             1.8812885   -0.16085421161283
             0.5442493     1.1434564825515
 s    1 1.00
             0.1687144                   1
 p    3 1.00
             7.8682724   0.068999095584993
             1.8812885    0.31642397975315
             0.5442493    0.74430825237435
 p    1 1.00
             0.1687144                   1
 d    1 1.00
                   0.8                   1

6 0
 s    3 1.00
             18.731137    0.03349459952309
             2.8253937    0.23472694665786
             0.6401217    0.81375731841339
 s    1 1.00
             0.1612778                   1

7 0
 s    6 1.00
             3047.5249  0.0018347001629433
             457.36951    0.01403730124668
             103.94869   0.068842606114048
             29.210155    0.23218442062076
              9.286663    0.46794134155879
              3.163927    0.36231203217765
 s    3 1.00
             7.8682724   -0.11933240861517
             1.8812885   -0.16085421161283
             0.5442493     1.1434564825515
 s    1 1.00
             0.1687144                   1
 p    3 1.00
             7.8682724   0.068999095584993
             1.8812885    0.31642397975315
             0.5442493    0.74430825237435
 p    1 1.00
             0.1687144                   1
 d    1 1.00
                   0.8                   1

8 0
 s    3 1.00
             18.731137    0.03349459952309
             2.8253937    0.23472694665786
             0.6401217    0.81375731841339
 s    1 1.00
             0.1612778                   1

9 0
 s    3 1.00
             18.731137    0.03349459952309
             2.8253937    0.23472694665786
             0.6401217    0.81375731841339
 s    1 1.00
             0.1612778                   1

10 0
 s    6 1.00
             3047.5249  0.0018347001629433
             457.36951    0.01403730124668
             103.94869   0.068842606114048
             29.210155    0.23218442062076
              9.286663    0.46794134155879
              3.163927    0.36231203217765
 s    3 1.00
             7.8682724   -0.11933240861517
             1.8812885   -0.16085421161283
             0.5442493     1.1434564825515
 s    1 1.00
             0.1687144                   1
 p    3 1.00
             7.8682724   0.068999095584993
             1.8812885    0.31642397975315
             0.5442493    0.74430825237435
 p    1 1.00
             0.1687144                   1
 d    1 1.00
                   0.8                   1

11 0
 s    3 1.00
             18.731137    0.03349459952309
             2.8253937    0.23472694665786
             0.6401217    0.81375731841339
 s    1 1.00
             0.1612778                   1

12 0
 s    6 1.00
             3047.5249  0.0018347001629433
             457.36951    0.01403730124668
             103.94869   0.068842606114048
             29.210155    0.23218442062076
              9.286663    0.46794134155879
              3.163927    0.36231203217765
 s    3 1.00
             7.8682724   -0.11933240861517
             1.8812885   -0.16085421161283
             0.5442493     1.1434564825515
 s    1 1.00
             0.1687144                   1
 p    3 1.00
             7.8682724   0.068999095584993
             1.8812885    0.31642397975315
             0.5442493    0.74430825237435
 p    1 1.00
             0.1687144                   1
 d    1 1.00
                   0.8                   1

13 0
 s    3 1.00
             18.731137    0.03349459952309
             2.8253937    0.23472694665786
             0.6401217    0.81375731841339
 s    1 1.00
             0.1612778                   1

14 0
 s    3 1.00
             18.731137    0.03349459952309
             2.8253937    0.23472694665786
             0.6401217    0.81375731841339
 s    1 1.00
             0.1612778                   1

15 0
 s    6 1.00
             3047.5249  0.0018347001629433
             457.36951    0.01403730124668
             103.94869   0.068842606114048
             29.210155    0.23218442062076
              9.286663    0.46794134155879
              3.163927    0.36231203217765
 s    3 1.00
             7.8682724   -0.11933240861517
             1.8812885   -0.16085421161283
             0.5442493     1.1434564825515
 s    1 1.00
             0.1687144                   1
 p    3 1.00
             7.8682724   0.068999095584993
             1.8812885    0.31642397975315
             0.5442493    0.74430825237435
 p    1 1.00
             0.1687144                   1
 d    1 1.00
                   0.8                   1

16 0
 s    6 1.00
             3047.5249  0.0018347001629433
             457.36951    0.01403730124668
             103.94869   0.068842606114048
             29.210155    0.23218442062076
              9.286663    0.46794134155879
              3.163927    0.36231203217765
 s    3 1.00
             7.8682724   -0.11933240861517
             1.8812885   -0.16085421161283
             0.5442493     1.1434564825515
 s    1 1.00
             0.1687144                   1
 p    3 1.00
             7.8682724   0.068999095584993
             1.8812885    0.31642397975315
             0.5442493    0.74430825237435
 p    1 1.00
             0.1687144                   1
 d    1 1.00
                   0.8                   1

17 0
 s    6 1.00
             3047.5249  0.0018347001629433
             457.36951    0.01403730124668
             103.94869   0.068842606114048
             29.210155    0.23218442062076
              9.286663    0.46794134155879
              3.163927    0.36231203217765
 s    3 1.00
             7.8682724   -0.11933240861517
             1.8812885   -0.16085421161283
             0.5442493     1.1434564825515
 s    1 1.00
             0.1687144                   1
 p    3 1.00
             7.8682724   0.068999095584993
             1.8812885    0.31642397975315
             0.5442493    0.74430825237435
 p    1 1.00
             0.1687144                   1
 d    1 1.00
                   0.8                   1

18 0
 s    6 1.00
             3047.5249  0.0018347001629433
             457.36951    0.01403730124668
             103.94869   0.068842606114048
             29.210155    0.23218442062076
              9.286663    0.46794134155879
              3.163927    0.36231203217765
 s    3 1.00
             7.8682724   -0.11933240861517
             1.8812885   -0.16085421161283
             0.5442493     1.1434564825515
 s    1 1.00
             0.1687144                   1
 p    3 1.00
             7.8682724   0.068999095584993
             1.8812885    0.31642397975315
             0.5442493    0.74430825237435
 p    1 1.00
             0.1687144                   1
 d    1 1.00
                   0.8                   1

19 0
 s    6 1.00
             3047.5249  0.0018347001629433
             457.36951    0.01403730124668
             103.94869   0.068842606114048
             29.210155    0.23218442062076
              9.286663    0.46794134155879
              3.163927    0.36231203217765
 s    3 1.00
             7.8682724   -0.11933240861517
             1.8812885   -0.16085421161283
             0.5442493     1.1434564825515
 s    1 1.00
             0.1687144                   1
 p    3 1.00
             7.8682724   0.068999095584993
             1.8812885    0.31642397975315
             0.5442493    0.74430825237435
 p    1 1.00
             0.1687144                   1
 d    1 1.00
                   0.8                   1

20 0
 s    6 1.00
             3047.5249  0.0018347001629433
             457.36951    0.01403730124668
             103.94869   0.068842606114048
             29.210155    0.23218442062076
              9.286663    0.46794134155879
              3.163927    0.36231203217765
 s    3 1.00
             7.8682724   -0.11933240861517
             1.8812885   -0.16085421161283
             0.5442493     1.1434564825515
 s    1 1.00
             0.1687144                   1
 p    3 1.00
             7.8682724   0.068999095584993
             1.8812885    0.31642397975315
             0.5442493    0.74430825237435
 p    1 1.00
             0.1687144                   1
 d    1 1.00
                   0.8                   1

21 0
 s    6 1.00
             3047.5249  0.0018347001629433
             457.36951    0.01403730124668
             103.94869   0.068842606114048
             29.210155    0.23218442062076
              9.286663    0.46794134155879
              3.163927    0.36231203217765
 s    3 1.00
             7.8682724   -0.11933240861517
             1.8812885   -0.16085421161283
             0.5442493     1.1434564825515
 s    1 1.00
             0.1687144                   1
 p    3 1.00
             7.8682724   0.068999095584993
             1.8812885    0.31642397975315
             0.5442493    0.74430825237435
 p    1 1.00
             0.1687144                   1
 d    1 1.00
                   0.8                   1

22 0
 s    3 1.00
             18.731137    0.03349459952309
             2.8253937    0.23472694665786
             0.6401217    0.81375731841339
 s    1 1.00
             0.1612778                   1

23 0
 s    3 1.00
             18.731137    0.03349459952309
             2.8253937    0.23472694665786
             0.6401217    0.81375731841339
 s    1 1.00
             0.1612778                   1

24 0
 s    3 1.00
             18.731137    0.03349459952309
             2.8253937    0.23472694665786
             0.6401217    0.81375731841339
 s    1 1.00
             0.1612778                   1

25 0
 s    3 1.00
             18.731137    0.03349459952309
             2.8253937    0.23472694665786
             0.6401217    0.81375731841339
 s    1 1.00
             0.1612778                   1

26 0
 s    3 1.00
             18.731137    0.03349459952309
             2.8253937    0.23472694665786
             0.6401217    0.81375731841339
 s    1 1.00
             0.1612778                   1

27 0
 s    3 1.00
             18.731137    0.03349459952309
             2.8253937    0.23472694665786
             0.6401217    0.81375731841339
 s    1 1.00
             0.1612778                   1

28 0
 s    3 1.00
             18.731137    0.03349459952309
             2.8253937    0.23472694665786
             0.6401217    0.81375731841339
 s    1 1.00
             0.1612778                   1

29 0
 s    3 1.00
             18.731137    0.03349459952309
             2.8253937    0.23472694665786
             0.6401217    0.81375731841339
 s    1 1.00
             0.1612778                   1

30 0
 s    3 1.00
             18.731137    0.03349459952309
             2.8253937    0.23472694665786
             0.6401217    0.81375731841339
 s    1 1.00
             0.1612778                   1

31 0
 s    3 1.00
             18.731137    0.03349459952309
             2.8253937    0.23472694665786
             0.6401217    0.81375731841339
 s    1 1.00
             0.1612778                   1

32 0
 s    3 1.00
             18.731137    0.03349459952309
             2.8253937    0.23472694665786
             0.6401217    0.81375731841339
 s    1 1.00
             0.1612778                   1

33 0
 s    6 1.00
             3047.5249  0.0018347001629433
             457.36951    0.01403730124668
             103.94869   0.068842606114048
             29.210155    0.23218442062076
              9.286663    0.46794134155879
              3.163927    0.36231203217765
 s    3 1.00
             7.8682724   -0.11933240861517
             1.8812885   -0.16085421161283
             0.5442493     1.1434564825515
 s    1 1.00
             0.1687144                   1
 p    3 1.00
             7.8682724   0.068999095584993
             1.8812885    0.31642397975315
             0.5442493    0.74430825237435
 p    1 1.00
             0.1687144                   1
 d    1 1.00
                   0.8                   1

34 0
 s    6 1.00
             3047.5249  0.0018347001629433
             457.36951    0.01403730124668
             103.94869   0.068842606114048
             29.210155    0.23218442062076
              9.286663    0.46794134155879
              3.163927    0.36231203217765
 s    3 1.00
             7.8682724   -0.11933240861517
             1.8812885   -0.16085421161283
             0.5442493     1.1434564825515
 s    1 1.00
             0.1687144                   1
 p    3 1.00
             7.8682724   0.068999095584993
             1.8812885    0.31642397975315
             0.5442493    0.74430825237435
 p    1 1.00
             0.1687144                   1
 d    1 1.00
                   0.8                   1

35 0
 s    3 1.00
             18.731137    0.03349459952309
             2.8253937    0.23472694665786
             0.6401217    0.81375731841339
 s    1 1.00
             0.1612778                   1

36 0
 s    6 1.00
             3047.5249  0.0018347001629433
             457.36951    0.01403730124668
             103.94869   0.068842606114048
             29.210155    0.23218442062076
              9.286663    0.46794134155879
              3.163927    0.36231203217765
 s    3 1.00
             7.8682724   -0.11933240861517
             1.8812885   -0.16085421161283
             0.5442493     1.1434564825515
 s    1 1.00
             0.1687144                   1
 p    3 1.00
             7.8682724   0.068999095584993
             1.8812885    0.31642397975315
             0.5442493    0.74430825237435
 p    1 1.00
             0.1687144                   1
 d    1 1.00
                   0.8                   1

37 0
 s    3 1.00
             18.731137    0.03349459952309
             2.8253937    0.23472694665786
             0.6401217    0.81375731841339
 s    1 1.00
             0.1612778                   1

38 0
 s    3 1.00
             18.731137    0.03349459952309
             2.8253937    0.23472694665786
             0.6401217    0.81375731841339
 s    1 1.00
             0.1612778                   1

39 0
 s    6 1.00
             3047.5249  0.0018347001629433
             457.36951    0.01403730124668
             103.94869   0.068842606114048
             29.210155    0.23218442062076
              9.286663    0.46794134155879
              3.163927    0.36231203217765
 s    3 1.00
             7.8682724   -0.11933240861517
             1.8812885   -0.16085421161283
             0.5442493     1.1434564825515
 s    1 1.00
             0.1687144                   1
 p    3 1.00
             7.8682724   0.068999095584993
             1.8812885    0.31642397975315
             0.5442493    0.74430825237435
 p    1 1.00
             0.1687144                   1
 d    1 1.00
                   0.8                   1

40 0
 s    6 1.00
             3047.5249  0.0018347001629433
             457.36951    0.01403730124668
             103.94869   0.068842606114048
             29.210155    0.23218442062076
              9.286663    0.46794134155879
              3.163927    0.36231203217765
 s    3 1.00
             7.8682724   -0.11933240861517
             1.8812885   -0.16085421161283
             0.5442493     1.1434564825515
 s    1 1.00
             0.1687144                   1
 p    3 1.00
             7.8682724   0.068999095584993
             1.8812885    0.31642397975315
             0.5442493    0.74430825237435
 p    1 1.00
             0.1687144                   1
 d    1 1.00
                   0.8                   1

41 0
 s    3 1.00
             18.731137    0.03349459952309
             2.8253937    0.23472694665786
             0.6401217    0.81375731841339
 s    1 1.00
             0.1612778                   1

42 0
 s    6 1.00
             5484.6717   0.001831099805527
             825.23495   0.013950098518422
             188.04696    0.06844509273075
               52.9645    0.23271427528445
              16.89757    0.47019295006289
             5.7996353    0.35852086192309
 s    3 1.00
             15.539616   -0.11077750382508
             3.5999336   -0.14802630511126
             1.0137618     1.1307670390447
 s    1 1.00
             0.2700058                   1
 p    3 1.00
             15.539616   0.070874299543311
             3.5999336    0.33975279781076
             1.0137618    0.72715859531445
 p    1 1.00
             0.2700058                   1
 d    1 1.00
                   0.8                   1

43 0
 s    3 1.00
             18.731137    0.03349459952309
             2.8253937    0.23472694665786
             0.6401217    0.81375731841339
 s    1 1.00
             0.1612778                   1

[5d]
[7f]
[9g]

[MO]
 Sym= A
 Ene=               0
 Spin= Alpha
 Occup=    1.00000
   1     0.020906119665621
   2    -0.00012611165222748
   3    0.0039036450213122
   4    0.00012581729774922
   5    -9.5805684460183e-05
   6    0.00030044814014487
   7    0.0002385443780232
   8    0.0006657062220067
   9    -0.0022087761599832
  10    -0.00032265674938819
  11    -0.00035621294031944
  12    6.3778246630613e-05
  13    -0.00012104378052394
  14    3.9596024739399e-06
  15    -0.00016003543073691
  16    -0.00045001554140939
  17      0.99568435502354
  18     0.024932345640747
  19    -0.015232509957205
  20    0.00036646683381851
  21    6.5660041225033e-05
  22    -5.5988860521175e-05
  23    -0.0016446850099185
  24    -0.00052300698356125
  25    -0.00034881314700806
  26    0.00048144275604187
  27    -0.00013495910390559
  28    -0.00025602639451486
  29    0.00031182679630232
  30    0.00019178603644353
  31    -0.0003184846642704
  32     0.002118146911744
  33     0.023049237325879
  34    0.00022128604430514
  35    0.0017478340526548
  36    0.00023687917416545
  37    7.0269069399119e-05
  38    -0.00028896918601435
  39    -0.0016489149400323
  40    0.00089745504777491
  41    0.0015832154391226
  42    -9.864370591537e-05
  43    0.00031923945384105
  44    0.0001830984143892
  45    -0.00020007420163827
  46    -6.7522016352734e-05
  47    -0.00022081292338018
  48    -0.00017783452358521
  49    0.0015270680649319
  50    -0.00016543522279057
  51    -0.00038371795793573
  52    0.00017145812549431
  53    5.8401214281047e-05
  54    -0.0001183684869074
  55    -0.0025967047926853
  56    -0.00018301429732994
  57    0.0023370682948542
  58    -6.4782270067481e-05
  59    -1.0964394084126e-05
  60    1.0660457228331e-05
  61    2.2748404754463e-05
  62    -0.00012387598384199
  63    -0.00021699075696043
  64    1.6990536041909e-05
  65    -1.7432791218936e-06
  66    -3.2188633454732e-06
  67    6.8228204339269e-07
  68    -9.7931996002709e-07
  69    -3.0270963159457e-06
  70    4.6502812049095e-07
  71    -2.2662966734714e-06
  72    8.5126859395818e-07
  73    3.5800241649123e-06
  74    1.1753505990679e-05
  75    3.4646091811018e-06
  76    -3.538081837789e-07
  77    -1.5575424812408e-07
  78    1.6556924441522e-07
  79    1.1800459412929e-07
  80    4.6482655849227e-08
  81    1.483447764908e-06
  82    7.8568249415693e-06
  83    9.8680223729641e-07
  84    -2.4331117050285e-06
  85    -2.522761990208e-05
  86    5.7032521586302e-06
  87    1.0955505659492e-06
  88    8.7096720960583e-06
  89    7.5211322523661e-06
  90    -2.37259672409e-05
  91    1.0529811513719e-05
  92    3.110431637711e-07
  93    -3.3916259350617e-07
  94    1.5550192847601e-06
  95    1.1848695406375e-07
  96    -1.8284127163068e-07
  97    6.1035269197017e-06
  98    1.1692083540354e-05
  99    -7.3429318808341e-07
 100    -7.7689548874017e-06
 101    -1.9426353407642e-06
 102    1.9923223957849e-07
 103    3.0719449381498e-05
 104    -1.0874003609108e-05
 105    -1.2539221628828e-05
 106    -1.3231400137823e-06
 107    -6.1846538181655e-05
 108    4.9007298706183e-05
 109    6.050260013065e-05
 110    -4.2414647558598e-06
 111    -2.4366890481323e-06
 112    9.6953371980251e-07
 113    8.1514647150955e-07
 114    -1.7755431008463e-06
 115    -3.5903097034737e-06
 116    -1.0960726035215e-05
 117    9.9842144765229e-05
 118    -2.2032358971516e-06
 119    4.2257251682932e-06
 120    4.9007924112456e-06
 121    -2.6602343261505e-05
 122    1.9665118659467e-05
 123    1.2850007621534e-05
 124    3.0316245913549e-08
 125    -1.5613166425968e-06
 126    -9.6954227575458e-07
 127    1.2206607322446e-06
 128    -6.4485856016419e-07
 129    8.6596369344064e-06
 130    -3.7864264684706e-05
 131    -1.4162553584988e-06
 132    9.4906278916675e-06
 133    -7.9961261115843e-07
 134    7.342758514816e-05
 135    -7.5357998506537e-05
 136    -1.3072870363707e-05
 137    -0.00010089874701274
 138    3.3614570901872e-06
 139    5.7932180198365e-07
 140    4.239482554368e-07
 141    1.3925106017717e-06
 142    1.3900804217597e-06
 143    -8.4286719695791e-06
 144    6.9713156635658e-07
 145    7.507062889837e-05
 146    1.6225189348029e-05
 147    -9.7412731123056e-06
 148    -2.2103518973889e-05
 149    2.9443500840588e-05
 150    -1.6217943831383e-05
 151    -4.8072951809699e-05
 152    -3.6308587569382e-06
 153    -3.6525857182391e-06
 154    -4.532071235469e-07
 155    2.0530890626522e-06
 156    -2.6353799336207e-06
 157    -1.2199861708472e-07
 158    6.2413163083717e-06
 159    -1.0808128806113e-05
 160    2.8159940979418e-06
 161    -2.1168022532644e-06
 162    1.2545498396906e-06
 163    -2.020775078445e-05
 164    9.756590110526e-06
 165    9.1273427282529e-06
 166    1.1654866749457e-06
 167    -1.1767923150113e-06
 168    1.926542931522e-07
 169    3.2694128262912e-07
 170    -2.0741485710321e-08
 171    -1.1564581557167e-06
 172    -6.053722549802e-06
 173    1.5379333313434e-05
 174    -1.3759832639078e-06
 175    1.3575582844018e-06
 176    4.5012450263511e-06
 177    -7.0484181881087e-06
 178    -1.7908707148528e-06
 179    -1.5343382642628e-05
 180    4.0664460445282e-07
 181    8.7583283196798e-07
 182    2.9900555876863e-07
 183    6.2715605925232e-08
 184    3.7788925717908e-07
 185    1.5984569061783e-06
 186    -1.3311925727979e-05
 187    6.3496662383858e-06
 188    3.2132692528446e-06
 189    2.8903344593988e-06
 190    1.5041131647965e-05
 191    -1.5851541070506e-06
 192    2.4772604663031e-07
 193    -7.9531305492197e-06
 194    1.1416207099256e-06
 195    -5.4585077905108e-07
 196    1.2327415181368e-06
 197    -3.2847964116653e-08
 198    8.8428308129864e-08
 199    -1.7439021261393e-06
 200    1.6741630114444e-06
 201    3.7595699571912e-06
 202    1.5218596603358e-05
 203    -5.5800202282123e-06
 204    7.7761738671515e-07
 205    2.1263662530178e-06
 206    -7.4479760450912e-06
 207    1.8093176614817e-06
 208    -2.2292243197471e-05
 209    1.999856110456e-06
 210    -1.359760380063e-05
 211    2.012989264394e-06
 212    3.8759054030303e-06
 213    1.7527924758738e-06
 214    -5.1053353380983e-06
 215    -2.3361103098215e-06
 216    -2.7644627817191e-05
 217    2.5004402348102e-06
 218    9.419025839902e-06
 219    -1.0204823833856e-06
 220    -1.1561546773782e-06
 221    -7.8965580321475e-05
 222    0.00011749817642127
 223    0.00048646445145433
 224    0.00010069493977378
 225    5.242920178122e-05
 226    -0.0001997055443162
 227    0.00032995765569529
 228    0.00014224596203398
 229    -0.00036032072272526
 230    -1.3739206772785e-06
 231    -2.1641129215079e-05
 232    -7.2117298929058e-06
 233    1.2681586247333e-05
 234    1.0818732842886e-05
 235    0.00013752766000886
 236    -0.00029011329767577
 237    -5.6783304720014e-05
 238    -0.00017985970684848
 239    -0.00015116383463618
 240    0.00049949315863528
 241    2.6192762405551e-05
 242    0.00012934901330814
 243    -0.00059303799331193
 244    3.8144914887544e-07
 245    -1.851974530673e-06
 246    -3.8547341272275e-06
 247    -4.5087951864712e-06
 248    -4.4896129432916e-06
 249    1.3713335242059e-07
 250    0.00013836863730145
 251    -0.00031692038032659
 252    -0.00018641170084583
 253    0.00045958053007452
 254    -0.00050819887106914
 255    -7.6300295504452e-05
 256    -0.00027636573862661
 257    -0.0005578212244411
 258    -5.1412514163889e-05
 259    -0.00094153015281506
 260    -2.6567968365634e-05
 261    -1.6307403822053e-05
 262    -3.7143243964289e-06
 263    6.8929518884231e-05
 264    3.0793186849116e-05
 265    -0.00020587948309908
 266    2.1063225358247e-05
 267    0.00027814524881316
 268    -7.6642807317304e-05
 269    2.065453641471e-05
 270    -0.00020745626483065
 271    0.0029569568609354
 272    8.9739028472472e-05
 273    -0.00016087053695501
 274    5.1041920235013e-05
 275    -0.00035936047500231
 276    -0.00097033743772275
 277    0.0015239467742126
 278    4.5160404013137e-05
 279    -7.0266747848471e-05
 280    -2.8715297163672e-05