[Molden Format]
made by pyscf v[2.0.1]
[Atoms] (AU)
C   1   6     0.69100024066471     0.64692934207205    -3.48223131169301
H   2   1     2.68052439830868     1.13355088658700    -3.25784032593313
C   3   6    -0.36286361513219     0.85440132524594    -5.97030179418974
H   4   1    -2.35448549047279     0.36322488579172    -6.17995817793143
C   5   6     0.93697958957450     1.61209284601821    -8.05828437677121
H   6   1     1.01317567978386     3.61775130597871    -8.51923024455703
C   7   6     2.23318006711868    -0.09916996805052    -9.71591146992396
H   8   1     2.14101227267567    -2.10272353634710    -9.22908458474476
H   9   1     1.55630230933075    -1.92953025305990    12.99630010416247
C   10   6     0.75233899775814    -2.21270439606481    11.10705728102219
H   11   1    -0.43433408177274    -3.90944857546550    11.22216085340412
C   12   6     2.86362581178706    -2.63237380607947     9.17926416456045
H   13   1     4.39038949912609    -1.24955421540245     9.49899813497433
H   14   1     3.74629220191363    -4.48798724300892     9.47414880959024
C   15   6     2.02478325613682    -2.42177285709634     6.44560829588644
C   16   6     3.88048732735477    -3.58795445234514     4.61402886975252
C   17   6    -0.18412382258602    -1.30464291234259     5.76021113872346
C   18   6    -2.10044360464350    -0.26837831858460     7.71610340967100
C   19   6    -3.08956938670431     2.35282328359417     6.88693925039594
C   20   6    -4.37372924086464    -2.09766595989678     7.93610724222001
C   21   6    -0.83850430601230     0.06372213486173    10.33002307638377
H   22   1     0.38411922151109     1.74281358582432    10.27380136542181
H   23   1    -2.30980003007874     0.45460143924521    11.73986301809809
H   24   1     4.58527064644668    -5.38706904487420     5.36778158031719
H   25   1     5.54944938085014    -2.37631462192748     4.35398898413318
H   26   1     3.06633019150423    -3.94118377050688     2.75255466040884
H   27   1    -4.17727778763735     2.26573369139522     5.12914900961283
H   28   1    -1.52662344944051     3.68001877445626     6.59540397144508
H   29   1    -4.32916174397830     3.13643051467482     8.35225460090378
H   30   1    -5.32329548508442    -2.36691813602939     6.11583672749896
H   31   1    -5.77989366602257    -1.33896741843465     9.25748940450990
H   32   1    -3.79310905208926    -3.96389819310853     8.61386170102686
C   33   6    -1.01100794811226    -1.06331657314144     3.11929490449947
C   34   6     0.37686231036534    -0.33275864505552     1.09165013605873
H   35   1    -3.01671213906703    -1.40297922279997     2.77827895090944
C   36   6    -0.64382707979370    -0.11591880174385    -1.42063131251064
H   37   1     2.35569259782137     0.17174499283897     1.33641070251401
H   38   1    -2.63317482980319    -0.60229203511219    -1.66119700387645
C   39   6     3.54725246111133     0.56802416581284   -11.81467283923754
C   40   6     4.80361465317200    -1.32115012773234   -13.38298311351627
H   41   1     3.71304591439982     2.53035338251259   -12.40589607739641
O   42   8     6.01278787963721    -0.85546385399510   -15.29134904549642
H   43   1     4.58468921437884    -3.30497271823068   -12.70718839688766
[GTO]
1 0
 s    6 1.00
             3047.5249  0.0018347001629433
             457.36951    0.01403730124668
             103.94869   0.068842606114048
             29.210155    0.23218442062076
              9.286663    0.46794134155879
              3.163927    0.36231203217765
 s    3 1.00
             7.8682724   -0.11933240861517
             1.8812885   -0.16085421161283
             0.5442493     1.1434564825515
 s    1 1.00
             0.1687144                   1
 p    3 1.00
             7.8682724   0.068999095584993
             1.8812885    0.31642397975315
             0.5442493    0.74430825237435
 p    1 1.00
             0.1687144                   1
 d    1 1.00
                   0.8                   1

2 0
 s    3 1.00
             18.731137    0.03349459952309
             2.8253937    0.23472694665786
             0.6401217    0.81375731841339
 s    1 1.00
             0.1612778                   1

3 0
 s    6 1.00
             3047.5249  0.0018347001629433
             457.36951    0.01403730124668
             103.94869   0.068842606114048
             29.210155    0.23218442062076
              9.286663    0.46794134155879
              3.163927    0.36231203217765
 s    3 1.00
             7.8682724   -0.11933240861517
             1.8812885   -0.16085421161283
             0.5442493     1.1434564825515
 s    1 1.00
             0.1687144                   1
 p    3 1.00
             7.8682724   0.068999095584993
             1.8812885    0.31642397975315
             0.5442493    0.74430825237435
 p    1 1.00
             0.1687144                   1
 d    1 1.00
                   0.8                   1

4 0
 s    3 1.00
             18.731137    0.03349459952309
             2.8253937    0.23472694665786
             0.6401217    0.81375731841339
 s    1 1.00
             0.1612778                   1

5 0
 s    6 1.00
             3047.5249  0.0018347001629433
             457.36951    0.01403730124668
             103.94869   0.068842606114048
             29.210155    0.23218442062076
              9.286663    0.46794134155879
              3.163927    0.36231203217765
 s    3 1.00
             7.8682724   -0.11933240861517
             1.8812885   -0.16085421161283
             0.5442493     1.1434564825515
 s    1 1.00
             0.1687144                   1
 p    3 1.00
             7.8682724   0.068999095584993
             1.8812885    0.31642397975315
             0.5442493    0.74430825237435
 p    1 1.00
             0.1687144                   1
 d    1 1.00
                   0.8                   1

6 0
 s    3 1.00
             18.731137    0.03349459952309
             2.8253937    0.23472694665786
             0.6401217    0.81375731841339
 s    1 1.00
             0.1612778                   1

7 0
 s    6 1.00
             3047.5249  0.0018347001629433
             457.36951    0.01403730124668
             103.94869   0.068842606114048
             29.210155    0.23218442062076
              9.286663    0.46794134155879
              3.163927    0.36231203217765
 s    3 1.00
             7.8682724   -0.11933240861517
             1.8812885   -0.16085421161283
             0.5442493     1.1434564825515
 s    1 1.00
             0.1687144                   1
 p    3 1.00
             7.8682724   0.068999095584993
             1.8812885    0.31642397975315
             0.5442493    0.74430825237435
 p    1 1.00
             0.1687144                   1
 d    1 1.00
                   0.8                   1

8 0
 s    3 1.00
             18.731137    0.03349459952309
             2.8253937    0.23472694665786
             0.6401217    0.81375731841339
 s    1 1.00
             0.1612778                   1

9 0
 s    3 1.00
             18.731137    0.03349459952309
             2.8253937    0.23472694665786
             0.6401217    0.81375731841339
 s    1 1.00
             0.1612778                   1

10 0
 s    6 1.00
             3047.5249  0.0018347001629433
             457.36951    0.01403730124668
             103.94869   0.068842606114048
             29.210155    0.23218442062076
              9.286663    0.46794134155879
              3.163927    0.36231203217765
 s    3 1.00
             7.8682724   -0.11933240861517
             1.8812885   -0.16085421161283
             0.5442493     1.1434564825515
 s    1 1.00
             0.1687144                   1
 p    3 1.00
             7.8682724   0.068999095584993
             1.8812885    0.31642397975315
             0.5442493    0.74430825237435
 p    1 1.00
             0.1687144                   1
 d    1 1.00
                   0.8                   1

11 0
 s    3 1.00
             18.731137    0.03349459952309
             2.8253937    0.23472694665786
             0.6401217    0.81375731841339
 s    1 1.00
             0.1612778                   1

12 0
 s    6 1.00
             3047.5249  0.0018347001629433
             457.36951    0.01403730124668
             103.94869   0.068842606114048
             29.210155    0.23218442062076
              9.286663    0.46794134155879
              3.163927    0.36231203217765
 s    3 1.00
             7.8682724   -0.11933240861517
             1.8812885   -0.16085421161283
             0.5442493     1.1434564825515
 s    1 1.00
             0.1687144                   1
 p    3 1.00
             7.8682724   0.068999095584993
             1.8812885    0.31642397975315
             0.5442493    0.74430825237435
 p    1 1.00
             0.1687144                   1
 d    1 1.00
                   0.8                   1

13 0
 s    3 1.00
             18.731137    0.03349459952309
             2.8253937    0.23472694665786
             0.6401217    0.81375731841339
 s    1 1.00
             0.1612778                   1

14 0
 s    3 1.00
             18.731137    0.03349459952309
             2.8253937    0.23472694665786
             0.6401217    0.81375731841339
 s    1 1.00
             0.1612778                   1

15 0
 s    6 1.00
             3047.5249  0.0018347001629433
             457.36951    0.01403730124668
             103.94869   0.068842606114048
             29.210155    0.23218442062076
              9.286663    0.46794134155879
              3.163927    0.36231203217765
 s    3 1.00
             7.8682724   -0.11933240861517
             1.8812885   -0.16085421161283
             0.5442493     1.1434564825515
 s    1 1.00
             0.1687144                   1
 p    3 1.00
             7.8682724   0.068999095584993
             1.8812885    0.31642397975315
             0.5442493    0.74430825237435
 p    1 1.00
             0.1687144                   1
 d    1 1.00
                   0.8                   1

16 0
 s    6 1.00
             3047.5249  0.0018347001629433
             457.36951    0.01403730124668
             103.94869   0.068842606114048
             29.210155    0.23218442062076
              9.286663    0.46794134155879
              3.163927    0.36231203217765
 s    3 1.00
             7.8682724   -0.11933240861517
             1.8812885   -0.16085421161283
             0.5442493     1.1434564825515
 s    1 1.00
             0.1687144                   1
 p    3 1.00
             7.8682724   0.068999095584993
             1.8812885    0.31642397975315
             0.5442493    0.74430825237435
 p    1 1.00
             0.1687144                   1
 d    1 1.00
                   0.8                   1

17 0
 s    6 1.00
             3047.5249  0.0018347001629433
             457.36951    0.01403730124668
             103.94869   0.068842606114048
             29.210155    0.23218442062076
              9.286663    0.46794134155879
              3.163927    0.36231203217765
 s    3 1.00
             7.8682724   -0.11933240861517
             1.8812885   -0.16085421161283
             0.5442493     1.1434564825515
 s    1 1.00
             0.1687144                   1
 p    3 1.00
             7.8682724   0.068999095584993
             1.8812885    0.31642397975315
             0.5442493    0.74430825237435
 p    1 1.00
             0.1687144                   1
 d    1 1.00
                   0.8                   1

18 0
 s    6 1.00
             3047.5249  0.0018347001629433
             457.36951    0.01403730124668
             103.94869   0.068842606114048
             29.210155    0.23218442062076
              9.286663    0.46794134155879
              3.163927    0.36231203217765
 s    3 1.00
             7.8682724   -0.11933240861517
             1.8812885   -0.16085421161283
             0.5442493     1.1434564825515
 s    1 1.00
             0.1687144                   1
 p    3 1.00
             7.8682724   0.068999095584993
             1.8812885    0.31642397975315
             0.5442493    0.74430825237435
 p    1 1.00
             0.1687144                   1
 d    1 1.00
                   0.8                   1

19 0
 s    6 1.00
             3047.5249  0.0018347001629433
             457.36951    0.01403730124668
             103.94869   0.068842606114048
             29.210155    0.23218442062076
              9.286663    0.46794134155879
              3.163927    0.36231203217765
 s    3 1.00
             7.8682724   -0.11933240861517
             1.8812885   -0.16085421161283
             0.5442493     1.1434564825515
 s    1 1.00
             0.1687144                   1
 p    3 1.00
             7.8682724   0.068999095584993
             1.8812885    0.31642397975315
             0.5442493    0.74430825237435
 p    1 1.00
             0.1687144                   1
 d    1 1.00
                   0.8                   1

20 0
 s    6 1.00
             3047.5249  0.0018347001629433
             457.36951    0.01403730124668
             103.94869   0.068842606114048
             29.210155    0.23218442062076
              9.286663    0.46794134155879
              3.163927    0.36231203217765
 s    3 1.00
             7.8682724   -0.11933240861517
             1.8812885   -0.16085421161283
             0.5442493     1.1434564825515
 s    1 1.00
             0.1687144                   1
 p    3 1.00
             7.8682724   0.068999095584993
             1.8812885    0.31642397975315
             0.5442493    0.74430825237435
 p    1 1.00
             0.1687144                   1
 d    1 1.00
                   0.8                   1

21 0
 s    6 1.00
             3047.5249  0.0018347001629433
             457.36951    0.01403730124668
             103.94869   0.068842606114048
             29.210155    0.23218442062076
              9.286663    0.46794134155879
              3.163927    0.36231203217765
 s    3 1.00
             7.8682724   -0.11933240861517
             1.8812885   -0.16085421161283
             0.5442493     1.1434564825515
 s    1 1.00
             0.1687144                   1
 p    3 1.00
             7.8682724   0.068999095584993
             1.8812885    0.31642397975315
             0.5442493    0.74430825237435
 p    1 1.00
             0.1687144                   1
 d    1 1.00
                   0.8                   1

22 0
 s    3 1.00
             18.731137    0.03349459952309
             2.8253937    0.23472694665786
             0.6401217    0.81375731841339
 s    1 1.00
             0.1612778                   1

23 0
 s    3 1.00
             18.731137    0.03349459952309
             2.8253937    0.23472694665786
             0.6401217    0.81375731841339
 s    1 1.00
             0.1612778                   1

24 0
 s    3 1.00
             18.731137    0.03349459952309
             2.8253937    0.23472694665786
             0.6401217    0.81375731841339
 s    1 1.00
             0.1612778                   1

25 0
 s    3 1.00
             18.731137    0.03349459952309
             2.8253937    0.23472694665786
             0.6401217    0.81375731841339
 s    1 1.00
             0.1612778                   1

26 0
 s    3 1.00
             18.731137    0.03349459952309
             2.8253937    0.23472694665786
             0.6401217    0.81375731841339
 s    1 1.00
             0.1612778                   1

27 0
 s    3 1.00
             18.731137    0.03349459952309
             2.8253937    0.23472694665786
             0.6401217    0.81375731841339
 s    1 1.00
             0.1612778                   1

28 0
 s    3 1.00
             18.731137    0.03349459952309
             2.8253937    0.23472694665786
             0.6401217    0.81375731841339
 s    1 1.00
             0.1612778                   1

29 0
 s    3 1.00
             18.731137    0.03349459952309
             2.8253937    0.23472694665786
             0.6401217    0.81375731841339
 s    1 1.00
             0.1612778                   1

30 0
 s    3 1.00
             18.731137    0.03349459952309
             2.8253937    0.23472694665786
             0.6401217    0.81375731841339
 s    1 1.00
             0.1612778                   1

31 0
 s    3 1.00
             18.731137    0.03349459952309
             2.8253937    0.23472694665786
             0.6401217    0.81375731841339
 s    1 1.00
             0.1612778                   1

32 0
 s    3 1.00
             18.731137    0.03349459952309
             2.8253937    0.23472694665786
             0.6401217    0.81375731841339
 s    1 1.00
             0.1612778                   1

33 0
 s    6 1.00
             3047.5249  0.0018347001629433
             457.36951    0.01403730124668
             103.94869   0.068842606114048
             29.210155    0.23218442062076
              9.286663    0.46794134155879
              3.163927    0.36231203217765
 s    3 1.00
             7.8682724   -0.11933240861517
             1.8812885   -0.16085421161283
             0.5442493     1.1434564825515
 s    1 1.00
             0.1687144                   1
 p    3 1.00
             7.8682724   0.068999095584993
             1.8812885    0.31642397975315
             0.5442493    0.74430825237435
 p    1 1.00
             0.1687144                   1
 d    1 1.00
                   0.8                   1

34 0
 s    6 1.00
             3047.5249  0.0018347001629433
             457.36951    0.01403730124668
             103.94869   0.068842606114048
             29.210155    0.23218442062076
              9.286663    0.46794134155879
              3.163927    0.36231203217765
 s    3 1.00
             7.8682724   -0.11933240861517
             1.8812885   -0.16085421161283
             0.5442493     1.1434564825515
 s    1 1.00
             0.1687144                   1
 p    3 1.00
             7.8682724   0.068999095584993
             1.8812885    0.31642397975315
             0.5442493    0.74430825237435
 p    1 1.00
             0.1687144                   1
 d    1 1.00
                   0.8                   1

35 0
 s    3 1.00
             18.731137    0.03349459952309
             2.8253937    0.23472694665786
             0.6401217    0.81375731841339
 s    1 1.00
             0.1612778                   1

36 0
 s    6 1.00
             3047.5249  0.0018347001629433
             457.36951    0.01403730124668
             103.94869   0.068842606114048
             29.210155    0.23218442062076
              9.286663    0.46794134155879
              3.163927    0.36231203217765
 s    3 1.00
             7.8682724   -0.11933240861517
             1.8812885   -0.16085421161283
             0.5442493     1.1434564825515
 s    1 1.00
             0.1687144                   1
 p    3 1.00
             7.8682724   0.068999095584993
             1.8812885    0.31642397975315
             0.5442493    0.74430825237435
 p    1 1.00
             0.1687144                   1
 d    1 1.00
                   0.8                   1

37 0
 s    3 1.00
             18.731137    0.03349459952309
             2.8253937    0.23472694665786
             0.6401217    0.81375731841339
 s    1 1.00
             0.1612778                   1

38 0
 s    3 1.00
             18.731137    0.03349459952309
             2.8253937    0.23472694665786
             0.6401217    0.81375731841339
 s    1 1.00
             0.1612778                   1

39 0
 s    6 1.00
             3047.5249  0.0018347001629433
             457.36951    0.01403730124668
             103.94869   0.068842606114048
             29.210155    0.23218442062076
              9.286663    0.46794134155879
              3.163927    0.36231203217765
 s    3 1.00
             7.8682724   -0.11933240861517
             1.8812885   -0.16085421161283
             0.5442493     1.1434564825515
 s    1 1.00
             0.1687144                   1
 p    3 1.00
             7.8682724   0.068999095584993
             1.8812885    0.31642397975315
             0.5442493    0.74430825237435
 p    1 1.00
             0.1687144                   1
 d    1 1.00
                   0.8                   1

40 0
 s    6 1.00
             3047.5249  0.0018347001629433
             457.36951    0.01403730124668
             103.94869   0.068842606114048
             29.210155    0.23218442062076
              9.286663    0.46794134155879
              3.163927    0.36231203217765
 s    3 1.00
             7.8682724   -0.11933240861517
             1.8812885   -0.16085421161283
             0.5442493     1.1434564825515
 s    1 1.00
             0.1687144                   1
 p    3 1.00
             7.8682724   0.068999095584993
             1.8812885    0.31642397975315
             0.5442493    0.74430825237435
 p    1 1.00
             0.1687144                   1
 d    1 1.00
                   0.8                   1

41 0
 s    3 1.00
             18.731137    0.03349459952309
             2.8253937    0.23472694665786
             0.6401217    0.81375731841339
 s    1 1.00
             0.1612778                   1

42 0
 s    6 1.00
             5484.6717   0.001831099805527
             825.23495   0.013950098518422
             188.04696    0.06844509273075
               52.9645    0.23271427528445
              16.89757    0.47019295006289
             5.7996353    0.35852086192309
 s    3 1.00
             15.539616   -0.11077750382508
             3.5999336   -0.14802630511126
             1.0137618     1.1307670390447
 s    1 1.00
             0.2700058                   1
 p    3 1.00
             15.539616   0.070874299543311
             3.5999336    0.33975279781076
             1.0137618    0.72715859531445
 p    1 1.00
             0.2700058                   1
 d    1 1.00
                   0.8                   1

43 0
 s    3 1.00
             18.731137    0.03349459952309
             2.8253937    0.23472694665786
             0.6401217    0.81375731841339
 s    1 1.00
             0.1612778                   1

[5d]
[7f]
[9g]

[MO]
 Sym= A
 Ene=               0
 Spin= Alpha
 Occup=    1.00000
   1    0.0059903819187549
   2    -0.00052998281548428
   3     0.004207557499105
   4    9.732262908355e-05
   5    -4.4585086760304e-05
   6    0.00033793556576717
   7    0.0002739477896996
   8    0.00058189943252718
   9    -0.0026570555915898
  10    -0.00033709129603423
  11    -0.00033001916621448
  12    7.3195826376332e-05
  13    -0.00012341508601116
  14    -1.1107783226015e-05
  15    -0.00018758018278801
  16    -0.00044596606965766
  17      0.99627371048371
  18     0.024643124702642
  19    -0.015844618982414
  20    0.00018134864374775
  21    -4.3277012163079e-05
  22    0.00010323238192185
  23    -0.0016250226067984
  24    -0.00047931672122064
  25    -0.00057830722226243
  26    0.00056401007677326
  27    -0.00010186731458378
  28    -0.00028476022730519
  29    0.00044768004860496
  30    0.00025469257539733
  31    -0.00026907651778823
  32    0.0022452041375038
  33    0.0033120419098405
  34    -6.3016701217134e-06
  35    0.00085351568634632
  36    0.00020840330683421
  37    3.1691781887565e-05
  38    -0.00021529227507166
  39    -0.0013373462769099
  40    0.0017075475209469
  41    0.0023046403470448
  42    -9.8975548745226e-05
  43    0.00031807837932472
  44    6.0371421010472e-05
  45    -0.00010694280500354
  46    -7.0707196601753e-05
  47    -0.00023713727112241
  48    -0.0003017339284522
  49    1.7775500530717e-05
  50    -0.00024714647153112
  51    0.00019559761855698
  52    0.00011597840931073
  53    6.4881553328097e-06
  54    -0.00018510917711959
  55    -0.0024327891213452
  56    0.00061268494127935
  57    0.0035089337244794
  58    -3.7902293583143e-05
  59    -4.5539134359063e-05
  60    0.00010312403669443
  61    -8.1397318936964e-05
  62    -0.00010342993625097
  63    -0.00024896601002729
  64    0.00012090318800488
  65    -1.981685447899e-06
  66    -3.1266666696325e-06
  67    5.7400126283982e-07
  68    -1.768885868169e-06
  69    1.0970315847574e-06
  70    8.9745683440885e-07
  71    -2.7000662041042e-06
  72    8.9067000688228e-07
  73    4.0491513828066e-06
  74    1.2231554942797e-05
  75    3.2528713997379e-06
  76    -3.4716876810443e-07
  77    -2.9590326166066e-07
  78    3.0194088285621e-07
  79    2.4199101339781e-07
  80    -6.5321980396767e-10
  81    1.4614748390669e-06
  82    7.5265330885881e-06
  83    1.0192026236803e-06
  84    -1.7198054706012e-06
  85    -3.4309510428485e-05
  86    5.887364948593e-06
  87    1.5291978036289e-06
  88    9.0701071628385e-06
  89    1.2776869298186e-05
  90    -2.8712561080654e-05
  91    1.0385897624588e-05
  92    4.0307206124283e-07
  93    -7.9228070700266e-07
  94    1.9649357887484e-06
  95    -1.2518618929104e-08
  96    -2.1701408475267e-07
  97    6.6625102487458e-06
  98    1.1776508564513e-05
  99    -1.1222113421088e-06
 100    -9.1339490811269e-06
 101    -1.9687267249957e-06
 102    -3.3470195780759e-06
 103    8.5310400494577e-05
 104    -1.0387783207754e-05
 105    -1.3288499078122e-05
 106    -2.1236334036284e-06
 107    -9.11429846705e-05
 108    7.042598371522e-05
 109    6.9351497072748e-05
 110    -4.2657265760653e-06
 111    -2.3114788762121e-06
 112    1.066771718896e-06
 113    1.6510133519054e-06
 114    -2.5043580181595e-06
 115    -3.7603883439422e-06
 116    -1.28701303632e-05
 117    0.00012319872378155
 118    -2.9823558377888e-06
 119    6.1009108436566e-06
 120    4.2432637339869e-06
 121    -2.7238342247459e-05
 122    1.2623135042674e-05
 123    1.5715026058438e-05
 124    3.2202825218084e-07
 125    -1.5308203224869e-06
 126    -1.265348226383e-06
 127    9.0887617608543e-07
 128    -6.535576356586e-07
 129    7.8479348710653e-06
 130    -4.4481843725681e-05
 131    3.5535655350724e-05
 132    1.0067674117234e-05
 133    -3.2688947187509e-06
 134    7.3013173814341e-05
 135    -0.00013838853736425
 136    8.487052744258e-06
 137    -0.00015832002433376
 138    5.5236608856313e-06
 139    1.3273964324121e-06
 140    1.278856945991e-06
 141    1.3034637492482e-06
 142    1.9945384236205e-06
 143    -7.7870815963455e-06
 144    2.5709410707222e-07
 145    5.501433165765e-05
 146    1.5468568910468e-05
 147    -8.1339174977972e-06
 148    -1.9762155355202e-05
 149    2.6509565128252e-05
 150    -1.9598249139195e-05
 151    -4.0810083054746e-05
 152    -4.8959338694247e-06
 153    -3.3407647544833e-06
 154    -8.1098509480165e-07
 155    2.520702457552e-06
 156    -2.9314736089937e-06
 157    -7.2357697754759e-08
 158    6.7034865847105e-06
 159    -6.372999395335e-06
 160    3.4967465346878e-06
 161    -2.3604734525896e-06
 162    1.3651511057967e-06
 163    -2.3411238147551e-05
 164    8.1234250048182e-06
 165    8.4073001157533e-06
 166    1.3494628612525e-06
 167    -8.0689379627364e-07
 168    1.817764447358e-07
 169    1.3263233395331e-07
 170    1.8882018852338e-07
 171    -9.3574312916573e-07
 172    -5.6748590772248e-06
 173    1.1230431035935e-05
 174    -1.9327905508112e-06
 175    1.1452236403059e-06
 176    4.9208032755751e-06
 177    -7.1469096341047e-06
 178    -7.9041151419857e-07
 179    -1.6647117061177e-05
 180    5.4339527166207e-07
 181    1.2107100779681e-06
 182    1.2814399903542e-07
 183    -2.1609714101077e-07
 184    5.6215670235567e-07
 185    1.0513011327229e-06
 186    -1.6679309487345e-05
 187    1.6238211740101e-05
 188    2.4837312806541e-06
 189    3.010574479301e-06
 190    1.4992318985039e-05
 191    1.9371924905275e-06
 192    3.0254555014086e-07
 193    -1.7596956941025e-05
 194    1.7577687747137e-06
 195    -4.1528008196447e-07
 196    1.3147820762212e-06
 197    -1.887020950103e-07
 198    5.9721237239072e-08
 199    -2.860392012736e-06
 200    -3.5457629993795e-08
 201    3.6239447039874e-06
 202    1.7797700777654e-05
 203    -7.5812309658277e-06
 204    -5.088906675548e-06
 205    2.761870834478e-06
 206    -9.0978338999236e-06
 207    4.366203520148e-06
 208    -3.4154130676353e-05
 209    2.6660646347584e-06
 210    -1.6120263084883e-05
 211    2.1499153834667e-06
 212    5.8279375910958e-06
 213    1.5092506023676e-06
 214    -7.1850167327628e-06
 215    -2.6488325536443e-06
 216    -2.4687224895765e-05
 217    2.7955876866275e-06
 218    9.2866590266017e-06
 219    -7.2938709046157e-07
 220    -1.1778513521722e-08
 221    -7.6266759207655e-05
 222    0.0001068422557519
 223    0.00050803875329595
 224    9.8554896016171e-05
 225    5.4049367746679e-05
 226    -0.00019398906720901
 227    0.00035214613136424
 228    0.00015925775854344
 229    -0.00046694048658832
 230    -2.2133920095573e-06
 231    -2.4562036786674e-05
 232    -9.9376542191636e-06
 233    1.4051172972081e-05
 234    1.3036702395269e-05
 235    0.00014342033947036
 236    -0.00031304689156573
 237    -0.00015577688380494
 238    -0.00017120516354161
 239    -0.000145079764684
 240    0.00050837790557428
 241    5.0252214633439e-05
 242     0.000119817938339
 243    -0.00065115298663485
 244    -4.6692236115254e-07
 245    2.6933888701979e-07
 246    1.2213869564721e-06
 247    -4.2145347364325e-06
 248    -7.9287698046719e-07
 249    -3.6843134188045e-06
 250    0.00014610399519651
 251    -0.00031271703928178
 252    -0.00024654369520201
 253    0.00068082954974673
 254    -0.00049307318927129
 255    -7.6640806905524e-05
 256    -0.00031093936289446
 257    -0.00045509060570379
 258    0.00011092963109166
 259    -0.0010512961733511
 260    -2.4164747583811e-05
 261    -3.0382116932942e-05
 262    -1.6580031368235e-05
 263    6.8360238842744e-05
 264    4.6346245626978e-05
 265    -0.00021134532013742
 266    4.4329067069323e-05
 267    0.00025084485880281
 268    -8.2968123674734e-05
 269    2.3105947358225e-05
 270    -0.00025002496551189
 271    0.0033487796872409
 272    2.2376950448411e-05
 273    -0.00018865043414335
 274    8.7719783753954e-06
 275    -0.00074680451268515
 276    -0.001475207161728
 277     0.001328917526801
 278    4.2802796348221e-05
 279    -8.9430556430946e-05
 280    -2.1700490540697e-05