[Molden Format]
made by pyscf v[2.0.1]
[Atoms] (AU)
C   1   6     0.69100024066471     0.64692934207205    -3.48223131169301
H   2   1     2.68052439830868     1.13355088658700    -3.25784032593313
C   3   6    -0.36286361513219     0.85440132524594    -5.97030179418974
H   4   1    -2.35448549047279     0.36322488579172    -6.17995817793143
C   5   6     0.93697958957450     1.61209284601821    -8.05828437677121
H   6   1     0.91018176739439     3.60165715372829    -8.58918788754706
C   7   6     2.36275315943078    -0.07897264779665    -9.62791837868890
H   8   1     2.37293254336653    -2.06644965927173    -9.07154285055885
H   9   1     1.55630230933075    -1.92953025305990    12.99630010416247
C   10   6     0.75233899775814    -2.21270439606481    11.10705728102219
H   11   1    -0.43433408177274    -3.90944857546550    11.22216085340412
C   12   6     2.86362581178706    -2.63237380607947     9.17926416456045
H   13   1     4.39038949912609    -1.24955421540245     9.49899813497433
H   14   1     3.74629220191363    -4.48798724300892     9.47414880959024
C   15   6     2.02478325613682    -2.42177285709634     6.44560829588644
C   16   6     3.88048732735477    -3.58795445234514     4.61402886975252
C   17   6    -0.18412382258602    -1.30464291234259     5.76021113872346
C   18   6    -2.10044360464350    -0.26837831858460     7.71610340967100
C   19   6    -3.08956938670431     2.35282328359417     6.88693925039594
C   20   6    -4.37372924086464    -2.09766595989678     7.93610724222001
C   21   6    -0.83850430601230     0.06372213486173    10.33002307638377
H   22   1     0.38411922151109     1.74281358582432    10.27380136542181
H   23   1    -2.30980003007874     0.45460143924521    11.73986301809809
H   24   1     4.58527064644668    -5.38706904487420     5.36778158031719
H   25   1     5.54944938085014    -2.37631462192748     4.35398898413318
H   26   1     3.06633019150423    -3.94118377050688     2.75255466040884
H   27   1    -4.17727778763735     2.26573369139522     5.12914900961283
H   28   1    -1.52662344944051     3.68001877445626     6.59540397144508
H   29   1    -4.32916174397830     3.13643051467482     8.35225460090378
H   30   1    -5.32329548508442    -2.36691813602939     6.11583672749896
H   31   1    -5.77989366602257    -1.33896741843465     9.25748940450990
H   32   1    -3.79310905208926    -3.96389819310853     8.61386170102686
C   33   6    -1.01100794811226    -1.06331657314144     3.11929490449947
C   34   6     0.37686231036534    -0.33275864505552     1.09165013605873
H   35   1    -3.01671213906703    -1.40297922279997     2.77827895090944
C   36   6    -0.64382707979370    -0.11591880174385    -1.42063131251064
H   37   1     2.35569259782137     0.17174499283897     1.33641070251401
H   38   1    -2.63317482980319    -0.60229203511219    -1.66119700387645
C   39   6     3.68212070775393     0.58885978377309   -11.72315169981470
C   40   6     5.07620914500435    -1.27889558400184   -13.19794995736473
H   41   1     3.74999971153331     2.53578027550937   -12.38092170581109
O   42   8     6.29809885748056    -0.81150016580158   -15.09777920785750
H   43   1     4.95468191731404    -3.24735743289555   -12.45594726186437
[GTO]
1 0
 s    6 1.00
             3047.5249  0.0018347001629433
             457.36951    0.01403730124668
             103.94869   0.068842606114048
             29.210155    0.23218442062076
              9.286663    0.46794134155879
              3.163927    0.36231203217765
 s    3 1.00
             7.8682724   -0.11933240861517
             1.8812885   -0.16085421161283
             0.5442493     1.1434564825515
 s    1 1.00
             0.1687144                   1
 p    3 1.00
             7.8682724   0.068999095584993
             1.8812885    0.31642397975315
             0.5442493    0.74430825237435
 p    1 1.00
             0.1687144                   1
 d    1 1.00
                   0.8                   1

2 0
 s    3 1.00
             18.731137    0.03349459952309
             2.8253937    0.23472694665786
             0.6401217    0.81375731841339
 s    1 1.00
             0.1612778                   1

3 0
 s    6 1.00
             3047.5249  0.0018347001629433
             457.36951    0.01403730124668
             103.94869   0.068842606114048
             29.210155    0.23218442062076
              9.286663    0.46794134155879
              3.163927    0.36231203217765
 s    3 1.00
             7.8682724   -0.11933240861517
             1.8812885   -0.16085421161283
             0.5442493     1.1434564825515
 s    1 1.00
             0.1687144                   1
 p    3 1.00
             7.8682724   0.068999095584993
             1.8812885    0.31642397975315
             0.5442493    0.74430825237435
 p    1 1.00
             0.1687144                   1
 d    1 1.00
                   0.8                   1

4 0
 s    3 1.00
             18.731137    0.03349459952309
             2.8253937    0.23472694665786
             0.6401217    0.81375731841339
 s    1 1.00
             0.1612778                   1

5 0
 s    6 1.00
             3047.5249  0.0018347001629433
             457.36951    0.01403730124668
             103.94869   0.068842606114048
             29.210155    0.23218442062076
              9.286663    0.46794134155879
              3.163927    0.36231203217765
 s    3 1.00
             7.8682724   -0.11933240861517
             1.8812885   -0.16085421161283
             0.5442493     1.1434564825515
 s    1 1.00
             0.1687144                   1
 p    3 1.00
             7.8682724   0.068999095584993
             1.8812885    0.31642397975315
             0.5442493    0.74430825237435
 p    1 1.00
             0.1687144                   1
 d    1 1.00
                   0.8                   1

6 0
 s    3 1.00
             18.731137    0.03349459952309
             2.8253937    0.23472694665786
             0.6401217    0.81375731841339
 s    1 1.00
             0.1612778                   1

7 0
 s    6 1.00
             3047.5249  0.0018347001629433
             457.36951    0.01403730124668
             103.94869   0.068842606114048
             29.210155    0.23218442062076
              9.286663    0.46794134155879
              3.163927    0.36231203217765
 s    3 1.00
             7.8682724   -0.11933240861517
             1.8812885   -0.16085421161283
             0.5442493     1.1434564825515
 s    1 1.00
             0.1687144                   1
 p    3 1.00
             7.8682724   0.068999095584993
             1.8812885    0.31642397975315
             0.5442493    0.74430825237435
 p    1 1.00
             0.1687144                   1
 d    1 1.00
                   0.8                   1

8 0
 s    3 1.00
             18.731137    0.03349459952309
             2.8253937    0.23472694665786
             0.6401217    0.81375731841339
 s    1 1.00
             0.1612778                   1

9 0
 s    3 1.00
             18.731137    0.03349459952309
             2.8253937    0.23472694665786
             0.6401217    0.81375731841339
 s    1 1.00
             0.1612778                   1

10 0
 s    6 1.00
             3047.5249  0.0018347001629433
             457.36951    0.01403730124668
             103.94869   0.068842606114048
             29.210155    0.23218442062076
              9.286663    0.46794134155879
              3.163927    0.36231203217765
 s    3 1.00
             7.8682724   -0.11933240861517
             1.8812885   -0.16085421161283
             0.5442493     1.1434564825515
 s    1 1.00
             0.1687144                   1
 p    3 1.00
             7.8682724   0.068999095584993
             1.8812885    0.31642397975315
             0.5442493    0.74430825237435
 p    1 1.00
             0.1687144                   1
 d    1 1.00
                   0.8                   1

11 0
 s    3 1.00
             18.731137    0.03349459952309
             2.8253937    0.23472694665786
             0.6401217    0.81375731841339
 s    1 1.00
             0.1612778                   1

12 0
 s    6 1.00
             3047.5249  0.0018347001629433
             457.36951    0.01403730124668
             103.94869   0.068842606114048
             29.210155    0.23218442062076
              9.286663    0.46794134155879
              3.163927    0.36231203217765
 s    3 1.00
             7.8682724   -0.11933240861517
             1.8812885   -0.16085421161283
             0.5442493     1.1434564825515
 s    1 1.00
             0.1687144                   1
 p    3 1.00
             7.8682724   0.068999095584993
             1.8812885    0.31642397975315
             0.5442493    0.74430825237435
 p    1 1.00
             0.1687144                   1
 d    1 1.00
                   0.8                   1

13 0
 s    3 1.00
             18.731137    0.03349459952309
             2.8253937    0.23472694665786
             0.6401217    0.81375731841339
 s    1 1.00
             0.1612778                   1

14 0
 s    3 1.00
             18.731137    0.03349459952309
             2.8253937    0.23472694665786
             0.6401217    0.81375731841339
 s    1 1.00
             0.1612778                   1

15 0
 s    6 1.00
             3047.5249  0.0018347001629433
             457.36951    0.01403730124668
             103.94869   0.068842606114048
             29.210155    0.23218442062076
              9.286663    0.46794134155879
              3.163927    0.36231203217765
 s    3 1.00
             7.8682724   -0.11933240861517
             1.8812885   -0.16085421161283
             0.5442493     1.1434564825515
 s    1 1.00
             0.1687144                   1
 p    3 1.00
             7.8682724   0.068999095584993
             1.8812885    0.31642397975315
             0.5442493    0.74430825237435
 p    1 1.00
             0.1687144                   1
 d    1 1.00
                   0.8                   1

16 0
 s    6 1.00
             3047.5249  0.0018347001629433
             457.36951    0.01403730124668
             103.94869   0.068842606114048
             29.210155    0.23218442062076
              9.286663    0.46794134155879
              3.163927    0.36231203217765
 s    3 1.00
             7.8682724   -0.11933240861517
             1.8812885   -0.16085421161283
             0.5442493     1.1434564825515
 s    1 1.00
             0.1687144                   1
 p    3 1.00
             7.8682724   0.068999095584993
             1.8812885    0.31642397975315
             0.5442493    0.74430825237435
 p    1 1.00
             0.1687144                   1
 d    1 1.00
                   0.8                   1

17 0
 s    6 1.00
             3047.5249  0.0018347001629433
             457.36951    0.01403730124668
             103.94869   0.068842606114048
             29.210155    0.23218442062076
              9.286663    0.46794134155879
              3.163927    0.36231203217765
 s    3 1.00
             7.8682724   -0.11933240861517
             1.8812885   -0.16085421161283
             0.5442493     1.1434564825515
 s    1 1.00
             0.1687144                   1
 p    3 1.00
             7.8682724   0.068999095584993
             1.8812885    0.31642397975315
             0.5442493    0.74430825237435
 p    1 1.00
             0.1687144                   1
 d    1 1.00
                   0.8                   1

18 0
 s    6 1.00
             3047.5249  0.0018347001629433
             457.36951    0.01403730124668
             103.94869   0.068842606114048
             29.210155    0.23218442062076
              9.286663    0.46794134155879
              3.163927    0.36231203217765
 s    3 1.00
             7.8682724   -0.11933240861517
             1.8812885   -0.16085421161283
             0.5442493     1.1434564825515
 s    1 1.00
             0.1687144                   1
 p    3 1.00
             7.8682724   0.068999095584993
             1.8812885    0.31642397975315
             0.5442493    0.74430825237435
 p    1 1.00
             0.1687144                   1
 d    1 1.00
                   0.8                   1

19 0
 s    6 1.00
             3047.5249  0.0018347001629433
             457.36951    0.01403730124668
             103.94869   0.068842606114048
             29.210155    0.23218442062076
              9.286663    0.46794134155879
              3.163927    0.36231203217765
 s    3 1.00
             7.8682724   -0.11933240861517
             1.8812885   -0.16085421161283
             0.5442493     1.1434564825515
 s    1 1.00
             0.1687144                   1
 p    3 1.00
             7.8682724   0.068999095584993
             1.8812885    0.31642397975315
             0.5442493    0.74430825237435
 p    1 1.00
             0.1687144                   1
 d    1 1.00
                   0.8                   1

20 0
 s    6 1.00
             3047.5249  0.0018347001629433
             457.36951    0.01403730124668
             103.94869   0.068842606114048
             29.210155    0.23218442062076
              9.286663    0.46794134155879
              3.163927    0.36231203217765
 s    3 1.00
             7.8682724   -0.11933240861517
             1.8812885   -0.16085421161283
             0.5442493     1.1434564825515
 s    1 1.00
             0.1687144                   1
 p    3 1.00
             7.8682724   0.068999095584993
             1.8812885    0.31642397975315
             0.5442493    0.74430825237435
 p    1 1.00
             0.1687144                   1
 d    1 1.00
                   0.8                   1

21 0
 s    6 1.00
             3047.5249  0.0018347001629433
             457.36951    0.01403730124668
             103.94869   0.068842606114048
             29.210155    0.23218442062076
              9.286663    0.46794134155879
              3.163927    0.36231203217765
 s    3 1.00
             7.8682724   -0.11933240861517
             1.8812885   -0.16085421161283
             0.5442493     1.1434564825515
 s    1 1.00
             0.1687144                   1
 p    3 1.00
             7.8682724   0.068999095584993
             1.8812885    0.31642397975315
             0.5442493    0.74430825237435
 p    1 1.00
             0.1687144                   1
 d    1 1.00
                   0.8                   1

22 0
 s    3 1.00
             18.731137    0.03349459952309
             2.8253937    0.23472694665786
             0.6401217    0.81375731841339
 s    1 1.00
             0.1612778                   1

23 0
 s    3 1.00
             18.731137    0.03349459952309
             2.8253937    0.23472694665786
             0.6401217    0.81375731841339
 s    1 1.00
             0.1612778                   1

24 0
 s    3 1.00
             18.731137    0.03349459952309
             2.8253937    0.23472694665786
             0.6401217    0.81375731841339
 s    1 1.00
             0.1612778                   1

25 0
 s    3 1.00
             18.731137    0.03349459952309
             2.8253937    0.23472694665786
             0.6401217    0.81375731841339
 s    1 1.00
             0.1612778                   1

26 0
 s    3 1.00
             18.731137    0.03349459952309
             2.8253937    0.23472694665786
             0.6401217    0.81375731841339
 s    1 1.00
             0.1612778                   1

27 0
 s    3 1.00
             18.731137    0.03349459952309
             2.8253937    0.23472694665786
             0.6401217    0.81375731841339
 s    1 1.00
             0.1612778                   1

28 0
 s    3 1.00
             18.731137    0.03349459952309
             2.8253937    0.23472694665786
             0.6401217    0.81375731841339
 s    1 1.00
             0.1612778                   1

29 0
 s    3 1.00
             18.731137    0.03349459952309
             2.8253937    0.23472694665786
             0.6401217    0.81375731841339
 s    1 1.00
             0.1612778                   1

30 0
 s    3 1.00
             18.731137    0.03349459952309
             2.8253937    0.23472694665786
             0.6401217    0.81375731841339
 s    1 1.00
             0.1612778                   1

31 0
 s    3 1.00
             18.731137    0.03349459952309
             2.8253937    0.23472694665786
             0.6401217    0.81375731841339
 s    1 1.00
             0.1612778                   1

32 0
 s    3 1.00
             18.731137    0.03349459952309
             2.8253937    0.23472694665786
             0.6401217    0.81375731841339
 s    1 1.00
             0.1612778                   1

33 0
 s    6 1.00
             3047.5249  0.0018347001629433
             457.36951    0.01403730124668
             103.94869   0.068842606114048
             29.210155    0.23218442062076
              9.286663    0.46794134155879
              3.163927    0.36231203217765
 s    3 1.00
             7.8682724   -0.11933240861517
             1.8812885   -0.16085421161283
             0.5442493     1.1434564825515
 s    1 1.00
             0.1687144                   1
 p    3 1.00
             7.8682724   0.068999095584993
             1.8812885    0.31642397975315
             0.5442493    0.74430825237435
 p    1 1.00
             0.1687144                   1
 d    1 1.00
                   0.8                   1

34 0
 s    6 1.00
             3047.5249  0.0018347001629433
             457.36951    0.01403730124668
             103.94869   0.068842606114048
             29.210155    0.23218442062076
              9.286663    0.46794134155879
              3.163927    0.36231203217765
 s    3 1.00
             7.8682724   -0.11933240861517
             1.8812885   -0.16085421161283
             0.5442493     1.1434564825515
 s    1 1.00
             0.1687144                   1
 p    3 1.00
             7.8682724   0.068999095584993
             1.8812885    0.31642397975315
             0.5442493    0.74430825237435
 p    1 1.00
             0.1687144                   1
 d    1 1.00
                   0.8                   1

35 0
 s    3 1.00
             18.731137    0.03349459952309
             2.8253937    0.23472694665786
             0.6401217    0.81375731841339
 s    1 1.00
             0.1612778                   1

36 0
 s    6 1.00
             3047.5249  0.0018347001629433
             457.36951    0.01403730124668
             103.94869   0.068842606114048
             29.210155    0.23218442062076
              9.286663    0.46794134155879
              3.163927    0.36231203217765
 s    3 1.00
             7.8682724   -0.11933240861517
             1.8812885   -0.16085421161283
             0.5442493     1.1434564825515
 s    1 1.00
             0.1687144                   1
 p    3 1.00
             7.8682724   0.068999095584993
             1.8812885    0.31642397975315
             0.5442493    0.74430825237435
 p    1 1.00
             0.1687144                   1
 d    1 1.00
                   0.8                   1

37 0
 s    3 1.00
             18.731137    0.03349459952309
             2.8253937    0.23472694665786
             0.6401217    0.81375731841339
 s    1 1.00
             0.1612778                   1

38 0
 s    3 1.00
             18.731137    0.03349459952309
             2.8253937    0.23472694665786
             0.6401217    0.81375731841339
 s    1 1.00
             0.1612778                   1

39 0
 s    6 1.00
             3047.5249  0.0018347001629433
             457.36951    0.01403730124668
             103.94869   0.068842606114048
             29.210155    0.23218442062076
              9.286663    0.46794134155879
              3.163927    0.36231203217765
 s    3 1.00
             7.8682724   -0.11933240861517
             1.8812885   -0.16085421161283
             0.5442493     1.1434564825515
 s    1 1.00
             0.1687144                   1
 p    3 1.00
             7.8682724   0.068999095584993
             1.8812885    0.31642397975315
             0.5442493    0.74430825237435
 p    1 1.00
             0.1687144                   1
 d    1 1.00
                   0.8                   1

40 0
 s    6 1.00
             3047.5249  0.0018347001629433
             457.36951    0.01403730124668
             103.94869   0.068842606114048
             29.210155    0.23218442062076
              9.286663    0.46794134155879
              3.163927    0.36231203217765
 s    3 1.00
             7.8682724   -0.11933240861517
             1.8812885   -0.16085421161283
             0.5442493     1.1434564825515
 s    1 1.00
             0.1687144                   1
 p    3 1.00
             7.8682724   0.068999095584993
             1.8812885    0.31642397975315
             0.5442493    0.74430825237435
 p    1 1.00
             0.1687144                   1
 d    1 1.00
                   0.8                   1

41 0
 s    3 1.00
             18.731137    0.03349459952309
             2.8253937    0.23472694665786
             0.6401217    0.81375731841339
 s    1 1.00
             0.1612778                   1

42 0
 s    6 1.00
             5484.6717   0.001831099805527
             825.23495   0.013950098518422
             188.04696    0.06844509273075
               52.9645    0.23271427528445
              16.89757    0.47019295006289
             5.7996353    0.35852086192309
 s    3 1.00
             15.539616   -0.11077750382508
             3.5999336   -0.14802630511126
             1.0137618     1.1307670390447
 s    1 1.00
             0.2700058                   1
 p    3 1.00
             15.539616   0.070874299543311
             3.5999336    0.33975279781076
             1.0137618    0.72715859531445
 p    1 1.00
             0.2700058                   1
 d    1 1.00
                   0.8                   1

43 0
 s    3 1.00
             18.731137    0.03349459952309
             2.8253937    0.23472694665786
             0.6401217    0.81375731841339
 s    1 1.00
             0.1612778                   1

[5d]
[7f]
[9g]

[MO]
 Sym= A
 Ene=               0
 Spin= Alpha
 Occup=    1.00000
   1     0.011038286663159
   2    -0.00041202317793978
   3    0.0041382902232057
   4    9.9400649107383e-05
   5    -6.909820668915e-05
   6    0.00033701503913929
   7    0.00032195385433923
   8    0.00065051036630756
   9    -0.0028120754000584
  10    -0.0003216139750275
  11    -0.00032680869429159
  12    8.4637728294195e-05
  13    -0.0001183505962096
  14    -3.590930781802e-06
  15    -0.00019273002999332
  16    -0.00044512129697956
  17       0.9961405971213
  18     0.024982613198161
  19    -0.015857912471479
  20    0.00033737323053043
  21    4.1069387586436e-05
  22    -0.00011778898723582
  23    -0.001809067954817
  24    -0.00054231515050105
  25    -0.00051917179047345
  26    0.00051670850738629
  27    -0.00013267308595371
  28    -0.00027337793867822
  29    0.00037725522647645
  30    0.00019415777212056
  31    -0.00029786725440517
  32     0.002167482522912
  33    0.0073232261675818
  34    8.3332648365655e-05
  35    0.00074159127042674
  36    0.00023198978214314
  37    4.1033807895738e-05
  38    -0.00024779657926918
  39    -0.0014359228103225
  40    0.0018033115233387
  41    0.0021980516619972
  42    -0.00011567089731912
  43    0.00036961779445745
  44    0.00011444736906306
  45    -0.00013779809113948
  46    -5.2652977461579e-05
  47    -0.00025626165910968
  48    -0.00032356354606683
  49    7.869986817504e-05
  50    -0.00026089598075037
  51    0.00017418611929125
  52    0.00013796615059167
  53    1.1659789023771e-05
  54    -0.00018795204729149
  55    -0.0027003559127441
  56    0.00056979186170628
  57     0.003580244732346
  58    -5.1452313139547e-05
  59    -4.5974427212838e-05
  60    9.4483563684559e-05
  61    -7.6993727462564e-05
  62    -0.00011915750555607
  63    -0.0002602069958168
  64    0.00010575620980828
  65    -1.9239636324526e-06
  66    -2.4896966746493e-06
  67    5.8763566617503e-07
  68    -2.0425185096277e-06
  69    2.8074942485765e-07
  70    9.8712665137713e-07
  71    -2.7882198587648e-06
  72    1.0510666654563e-06
  73    4.1590262310891e-06
  74    1.2312496061583e-05
  75    2.453451088111e-06
  76    -2.7671938847853e-07
  77    -2.4062954614815e-07
  78    3.0831663116468e-07
  79    2.5434841168339e-07
  80    3.6625076808564e-08
  81    1.449251760082e-06
  82    7.7375517895479e-06
  83    1.118618085875e-06
  84    -1.3252305149614e-06
  85    -3.4323217343354e-05
  86    5.9455469122667e-06
  87    1.5282148161385e-06
  88    9.1740089828857e-06
  89    1.2912181704238e-05
  90    -2.9743960238849e-05
  91    1.0474455411328e-05
  92    3.2074351226398e-07
  93    -7.5509356416161e-07
  94    2.1173055894393e-06
  95    -5.4937840389247e-08
  96    -1.7019057189015e-07
  97    7.0149095959333e-06
  98    1.2418324254967e-05
  99    -1.2388372741143e-06
 100    -9.3713724508887e-06
 101    -2.2286701678854e-06
 102    -3.2992244055594e-06
 103    9.5982009735053e-05
 104    -1.1434844303834e-05
 105    -1.3677819493319e-05
 106    -2.3390009919126e-06
 107    -9.2446569748106e-05
 108    7.2307459883085e-05
 109    6.3060986538983e-05
 110    -4.0150439660465e-06
 111    -2.0625113106766e-06
 112    8.8663188976173e-07
 113    1.4616553489933e-06
 114    -2.7181139349974e-06
 115    -3.6276118491573e-06
 116    -1.1425618576187e-05
 117    0.00011522943549116
 118    -2.8767490524425e-06
 119    6.3047486362241e-06
 120    4.0370619176598e-06
 121    -2.521853402666e-05
 122    9.6599551054094e-06
 123    1.8013898804808e-05
 124    3.8415522524636e-07
 125    -1.6025285387402e-06
 126    -1.4606944887864e-06
 127    8.7307182576528e-07
 128    -6.4212562112637e-07
 129    8.3171279535483e-06
 130    -4.2409174984212e-05
 131    3.3994081753245e-05
 132    1.1681423630967e-05
 133    -2.7103204607985e-06
 134    7.2608884590715e-05
 135    -0.00015210111443026
 136    7.8554409607516e-06
 137    -0.00014670729485326
 138     5.24441450442e-06
 139    1.1957423405923e-06
 140    1.6466176400242e-06
 141    1.1497413591277e-06
 142    2.2473174657976e-06
 143    -7.8795885704889e-06
 144    8.2597352591788e-07
 145    4.6490096421513e-05
 146    1.5648259617006e-05
 147    -8.772811745568e-06
 148    -1.9069444659589e-05
 149    2.2782345223045e-05
 150    -1.0941735798677e-05
 151    -4.4316939271467e-05
 152    -4.877404052145e-06
 153    -3.2623837444665e-06
 154    -1.2097520591317e-06
 155    2.358607452387e-06
 156    -3.0069270999467e-06
 157    7.3744448021999e-08
 158    7.7281110487448e-06
 159    -1.3673478281906e-05
 160    3.5025216446541e-06
 161    -2.2326595647039e-06
 162    1.3459522604663e-06
 163    -2.4466239585736e-05
 164    1.0553838132739e-05
 165    8.9147677315323e-06
 166    1.4752334076667e-06
 167    -9.0848761480243e-07
 168    2.4103973949653e-07
 169    2.6507996976506e-07
 170    2.7631052340729e-07
 171    -9.8604234479291e-07
 172    -5.5261807872878e-06
 173    1.2318407364534e-05
 174    -1.8399499851737e-06
 175    1.1851434389469e-06
 176    5.047736169579e-06
 177    -4.1893305271118e-06
 178    -1.60720293185e-07
 179    -1.5327323637435e-05
 180    4.3850144416676e-07
 181    1.4402033882825e-06
 182    1.0766289128294e-07
 183    3.6914800574898e-08
 184    7.7584928987797e-07
 185    1.0408427213378e-06
 186    -1.7206352860128e-05
 187    2.0192790631765e-05
 188    2.3876471388332e-06
 189     2.95346365899e-06
 190    1.4863699983576e-05
 191    1.4391995525222e-06
 192    -1.4968124189381e-06
 193    -1.8508469115099e-05
 194    1.8068534458721e-06
 195    -2.6503420893556e-07
 196    1.6037570588782e-06
 197    -2.9751052470608e-07
 198    1.6248556859591e-07
 199    -3.0318614557341e-06
 200    4.4546239632654e-07
 201    3.5708659767764e-06
 202    1.7583619643157e-05
 203    -7.4996460844821e-06
 204    -6.2836729060828e-06
 205    3.4970145478458e-06
 206    -7.9630334954319e-06
 207    4.1293870345674e-06
 208    -3.0401232635888e-05
 209    2.8777633767982e-06
 210    -1.5372974941384e-05
 211    2.3893571573774e-06
 212    6.2713573687526e-06
 213    1.7932616164441e-06
 214    -7.2174500839907e-06
 215    -3.272998157172e-06
 216    -2.0862567868392e-05
 217    2.9336747402822e-06
 218    9.4431977755696e-06
 219    -6.5110217000531e-07
 220    -7.3815229401959e-07
 221    -7.8349398328135e-05
 222    0.00010268839480652
 223    0.00056943591191889
 224    0.0001006200182855
 225    5.5952552755387e-05
 226    -0.00019435223119409
 227    0.00035862235375378
 228    0.0001691850619917
 229    -0.00050232221781711
 230    -6.5011412485971e-07
 231    -2.5815075321965e-05
 232    -1.0949760037722e-05
 233    1.4289913159841e-05
 234    1.3233684366423e-05
 235    0.00014370708522523
 236    -0.00029809054193512
 237    -0.00030955241227546
 238    -0.00017518507562122
 239    -0.00014959816389615
 240    0.00051412169971732
 241    0.00010167190192614
 242    0.00012837552915728
 243    -0.00061062721049491
 244    -4.412113954223e-06
 245    9.4652535943097e-07
 246    2.6691384082533e-06
 247    -4.7456242093101e-06
 248    -1.8857419315953e-06
 249    -4.9213515019392e-06
 250    0.00013780878856355
 251    -0.00031663796567818
 252    -0.00023441052741396
 253    0.00087944630504843
 254    -0.00049932611294685
 255    -8.120317925699e-05
 256    -0.00030902501487202
 257    -0.00035883360918427
 258    0.00010305093939745
 259    -0.00099042893682777
 260    -2.0126659820475e-05
 261    -2.7386374449584e-05
 262    -1.6724337517214e-05
 263    7.0061343633037e-05
 264    4.3843128477962e-05
 265    -0.00021287741855763
 266    3.7448013445154e-05
 267    0.00027023949206296
 268    -4.2574330416633e-05
 269    1.9744420020162e-05
 270    -0.0002574529998198
 271    0.0035348445360742
 272    2.8688855053155e-05
 273    -0.00018188884066558
 274    2.099641251034e-05
 275    -0.00068900651729524
 276    -0.0015409439873173
 277    0.0014334475467482
 278    4.6170640040302e-05
 279    -9.2000133766343e-05
 280    -2.6783793677121e-05