[Molden Format]
made by pyscf v[2.0.1]
[Atoms] (AU)
C   1   6     0.69100024066471     0.64692934207205    -3.48223131169301
H   2   1     2.68052439830868     1.13355088658700    -3.25784032593313
C   3   6    -0.36286361513219     0.85440132524594    -5.97030179418974
H   4   1    -2.35448549047279     0.36322488579172    -6.17995817793143
C   5   6     0.93697958957450     1.61209284601821    -8.05828437677121
H   6   1     1.03927160684768     3.62047501567417    -8.50199621914587
C   7   6     2.20035018302409    -0.10258413888539    -9.73758817852609
H   8   1     2.08224949102462    -2.10886499715255    -9.26789512642378
H   9   1     1.55630230933075    -1.92953025305990    12.99630010416247
C   10   6     0.75233899775814    -2.21270439606481    11.10705728102219
H   11   1    -0.43433408177274    -3.90944857546550    11.22216085340412
C   12   6     2.86362581178706    -2.63237380607947     9.17926416456045
H   13   1     4.39038949912609    -1.24955421540245     9.49899813497433
H   14   1     3.74629220191363    -4.48798724300892     9.47414880959024
C   15   6     2.02478325613682    -2.42177285709634     6.44560829588644
C   16   6     3.88048732735477    -3.58795445234514     4.61402886975252
C   17   6    -0.18412382258602    -1.30464291234259     5.76021113872346
C   18   6    -2.10044360464350    -0.26837831858460     7.71610340967100
C   19   6    -3.08956938670431     2.35282328359417     6.88693925039594
C   20   6    -4.37372924086464    -2.09766595989678     7.93610724222001
C   21   6    -0.83850430601230     0.06372213486173    10.33002307638377
H   22   1     0.38411922151109     1.74281358582432    10.27380136542181
H   23   1    -2.30980003007874     0.45460143924521    11.73986301809809
H   24   1     4.58527064644668    -5.38706904487420     5.36778158031719
H   25   1     5.54944938085014    -2.37631462192748     4.35398898413318
H   26   1     3.06633019150423    -3.94118377050688     2.75255466040884
H   27   1    -4.17727778763735     2.26573369139522     5.12914900961283
H   28   1    -1.52662344944051     3.68001877445626     6.59540397144508
H   29   1    -4.32916174397830     3.13643051467482     8.35225460090378
H   30   1    -5.32329548508442    -2.36691813602939     6.11583672749896
H   31   1    -5.77989366602257    -1.33896741843465     9.25748940450990
H   32   1    -3.79310905208926    -3.96389819310853     8.61386170102686
C   33   6    -1.01100794811226    -1.06331657314144     3.11929490449947
C   34   6     0.37686231036534    -0.33275864505552     1.09165013605873
H   35   1    -3.01671213906703    -1.40297922279997     2.77827895090944
C   36   6    -0.64382707979370    -0.11591880174385    -1.42063131251064
H   37   1     2.35569259782137     0.17174499283897     1.33641070251401
H   38   1    -2.63317482980319    -0.60229203511219    -1.66119700387645
C   39   6     3.51308281939799     0.56451683374771   -11.83721740116087
C   40   6     4.73454985947753    -1.32827425009098   -13.42856361339847
H   41   1     3.70368628307445     2.52946227119814   -12.41204614817202
O   42   8     5.94050384923934    -0.86285538356078   -15.33903067176323
H   43   1     4.49094488416901    -3.31470750932465   -12.76908014850535
[GTO]
1 0
 s    6 1.00
             3047.5249  0.0018347001629433
             457.36951    0.01403730124668
             103.94869   0.068842606114048
             29.210155    0.23218442062076
              9.286663    0.46794134155879
              3.163927    0.36231203217765
 s    3 1.00
             7.8682724   -0.11933240861517
             1.8812885   -0.16085421161283
             0.5442493     1.1434564825515
 s    1 1.00
             0.1687144                   1
 p    3 1.00
             7.8682724   0.068999095584993
             1.8812885    0.31642397975315
             0.5442493    0.74430825237435
 p    1 1.00
             0.1687144                   1
 d    1 1.00
                   0.8                   1

2 0
 s    3 1.00
             18.731137    0.03349459952309
             2.8253937    0.23472694665786
             0.6401217    0.81375731841339
 s    1 1.00
             0.1612778                   1

3 0
 s    6 1.00
             3047.5249  0.0018347001629433
             457.36951    0.01403730124668
             103.94869   0.068842606114048
             29.210155    0.23218442062076
              9.286663    0.46794134155879
              3.163927    0.36231203217765
 s    3 1.00
             7.8682724   -0.11933240861517
             1.8812885   -0.16085421161283
             0.5442493     1.1434564825515
 s    1 1.00
             0.1687144                   1
 p    3 1.00
             7.8682724   0.068999095584993
             1.8812885    0.31642397975315
             0.5442493    0.74430825237435
 p    1 1.00
             0.1687144                   1
 d    1 1.00
                   0.8                   1

4 0
 s    3 1.00
             18.731137    0.03349459952309
             2.8253937    0.23472694665786
             0.6401217    0.81375731841339
 s    1 1.00
             0.1612778                   1

5 0
 s    6 1.00
             3047.5249  0.0018347001629433
             457.36951    0.01403730124668
             103.94869   0.068842606114048
             29.210155    0.23218442062076
              9.286663    0.46794134155879
              3.163927    0.36231203217765
 s    3 1.00
             7.8682724   -0.11933240861517
             1.8812885   -0.16085421161283
             0.5442493     1.1434564825515
 s    1 1.00
             0.1687144                   1
 p    3 1.00
             7.8682724   0.068999095584993
             1.8812885    0.31642397975315
             0.5442493    0.74430825237435
 p    1 1.00
             0.1687144                   1
 d    1 1.00
                   0.8                   1

6 0
 s    3 1.00
             18.731137    0.03349459952309
             2.8253937    0.23472694665786
             0.6401217    0.81375731841339
 s    1 1.00
             0.1612778                   1

7 0
 s    6 1.00
             3047.5249  0.0018347001629433
             457.36951    0.01403730124668
             103.94869   0.068842606114048
             29.210155    0.23218442062076
              9.286663    0.46794134155879
              3.163927    0.36231203217765
 s    3 1.00
             7.8682724   -0.11933240861517
             1.8812885   -0.16085421161283
             0.5442493     1.1434564825515
 s    1 1.00
             0.1687144                   1
 p    3 1.00
             7.8682724   0.068999095584993
             1.8812885    0.31642397975315
             0.5442493    0.74430825237435
 p    1 1.00
             0.1687144                   1
 d    1 1.00
                   0.8                   1

8 0
 s    3 1.00
             18.731137    0.03349459952309
             2.8253937    0.23472694665786
             0.6401217    0.81375731841339
 s    1 1.00
             0.1612778                   1

9 0
 s    3 1.00
             18.731137    0.03349459952309
             2.8253937    0.23472694665786
             0.6401217    0.81375731841339
 s    1 1.00
             0.1612778                   1

10 0
 s    6 1.00
             3047.5249  0.0018347001629433
             457.36951    0.01403730124668
             103.94869   0.068842606114048
             29.210155    0.23218442062076
              9.286663    0.46794134155879
              3.163927    0.36231203217765
 s    3 1.00
             7.8682724   -0.11933240861517
             1.8812885   -0.16085421161283
             0.5442493     1.1434564825515
 s    1 1.00
             0.1687144                   1
 p    3 1.00
             7.8682724   0.068999095584993
             1.8812885    0.31642397975315
             0.5442493    0.74430825237435
 p    1 1.00
             0.1687144                   1
 d    1 1.00
                   0.8                   1

11 0
 s    3 1.00
             18.731137    0.03349459952309
             2.8253937    0.23472694665786
             0.6401217    0.81375731841339
 s    1 1.00
             0.1612778                   1

12 0
 s    6 1.00
             3047.5249  0.0018347001629433
             457.36951    0.01403730124668
             103.94869   0.068842606114048
             29.210155    0.23218442062076
              9.286663    0.46794134155879
              3.163927    0.36231203217765
 s    3 1.00
             7.8682724   -0.11933240861517
             1.8812885   -0.16085421161283
             0.5442493     1.1434564825515
 s    1 1.00
             0.1687144                   1
 p    3 1.00
             7.8682724   0.068999095584993
             1.8812885    0.31642397975315
             0.5442493    0.74430825237435
 p    1 1.00
             0.1687144                   1
 d    1 1.00
                   0.8                   1

13 0
 s    3 1.00
             18.731137    0.03349459952309
             2.8253937    0.23472694665786
             0.6401217    0.81375731841339
 s    1 1.00
             0.1612778                   1

14 0
 s    3 1.00
             18.731137    0.03349459952309
             2.8253937    0.23472694665786
             0.6401217    0.81375731841339
 s    1 1.00
             0.1612778                   1

15 0
 s    6 1.00
             3047.5249  0.0018347001629433
             457.36951    0.01403730124668
             103.94869   0.068842606114048
             29.210155    0.23218442062076
              9.286663    0.46794134155879
              3.163927    0.36231203217765
 s    3 1.00
             7.8682724   -0.11933240861517
             1.8812885   -0.16085421161283
             0.5442493     1.1434564825515
 s    1 1.00
             0.1687144                   1
 p    3 1.00
             7.8682724   0.068999095584993
             1.8812885    0.31642397975315
             0.5442493    0.74430825237435
 p    1 1.00
             0.1687144                   1
 d    1 1.00
                   0.8                   1

16 0
 s    6 1.00
             3047.5249  0.0018347001629433
             457.36951    0.01403730124668
             103.94869   0.068842606114048
             29.210155    0.23218442062076
              9.286663    0.46794134155879
              3.163927    0.36231203217765
 s    3 1.00
             7.8682724   -0.11933240861517
             1.8812885   -0.16085421161283
             0.5442493     1.1434564825515
 s    1 1.00
             0.1687144                   1
 p    3 1.00
             7.8682724   0.068999095584993
             1.8812885    0.31642397975315
             0.5442493    0.74430825237435
 p    1 1.00
             0.1687144                   1
 d    1 1.00
                   0.8                   1

17 0
 s    6 1.00
             3047.5249  0.0018347001629433
             457.36951    0.01403730124668
             103.94869   0.068842606114048
             29.210155    0.23218442062076
              9.286663    0.46794134155879
              3.163927    0.36231203217765
 s    3 1.00
             7.8682724   -0.11933240861517
             1.8812885   -0.16085421161283
             0.5442493     1.1434564825515
 s    1 1.00
             0.1687144                   1
 p    3 1.00
             7.8682724   0.068999095584993
             1.8812885    0.31642397975315
             0.5442493    0.74430825237435
 p    1 1.00
             0.1687144                   1
 d    1 1.00
                   0.8                   1

18 0
 s    6 1.00
             3047.5249  0.0018347001629433
             457.36951    0.01403730124668
             103.94869   0.068842606114048
             29.210155    0.23218442062076
              9.286663    0.46794134155879
              3.163927    0.36231203217765
 s    3 1.00
             7.8682724   -0.11933240861517
             1.8812885   -0.16085421161283
             0.5442493     1.1434564825515
 s    1 1.00
             0.1687144                   1
 p    3 1.00
             7.8682724   0.068999095584993
             1.8812885    0.31642397975315
             0.5442493    0.74430825237435
 p    1 1.00
             0.1687144                   1
 d    1 1.00
                   0.8                   1

19 0
 s    6 1.00
             3047.5249  0.0018347001629433
             457.36951    0.01403730124668
             103.94869   0.068842606114048
             29.210155    0.23218442062076
              9.286663    0.46794134155879
              3.163927    0.36231203217765
 s    3 1.00
             7.8682724   -0.11933240861517
             1.8812885   -0.16085421161283
             0.5442493     1.1434564825515
 s    1 1.00
             0.1687144                   1
 p    3 1.00
             7.8682724   0.068999095584993
             1.8812885    0.31642397975315
             0.5442493    0.74430825237435
 p    1 1.00
             0.1687144                   1
 d    1 1.00
                   0.8                   1

20 0
 s    6 1.00
             3047.5249  0.0018347001629433
             457.36951    0.01403730124668
             103.94869   0.068842606114048
             29.210155    0.23218442062076
              9.286663    0.46794134155879
              3.163927    0.36231203217765
 s    3 1.00
             7.8682724   -0.11933240861517
             1.8812885   -0.16085421161283
             0.5442493     1.1434564825515
 s    1 1.00
             0.1687144                   1
 p    3 1.00
             7.8682724   0.068999095584993
             1.8812885    0.31642397975315
             0.5442493    0.74430825237435
 p    1 1.00
             0.1687144                   1
 d    1 1.00
                   0.8                   1

21 0
 s    6 1.00
             3047.5249  0.0018347001629433
             457.36951    0.01403730124668
             103.94869   0.068842606114048
             29.210155    0.23218442062076
              9.286663    0.46794134155879
              3.163927    0.36231203217765
 s    3 1.00
             7.8682724   -0.11933240861517
             1.8812885   -0.16085421161283
             0.5442493     1.1434564825515
 s    1 1.00
             0.1687144                   1
 p    3 1.00
             7.8682724   0.068999095584993
             1.8812885    0.31642397975315
             0.5442493    0.74430825237435
 p    1 1.00
             0.1687144                   1
 d    1 1.00
                   0.8                   1

22 0
 s    3 1.00
             18.731137    0.03349459952309
             2.8253937    0.23472694665786
             0.6401217    0.81375731841339
 s    1 1.00
             0.1612778                   1

23 0
 s    3 1.00
             18.731137    0.03349459952309
             2.8253937    0.23472694665786
             0.6401217    0.81375731841339
 s    1 1.00
             0.1612778                   1

24 0
 s    3 1.00
             18.731137    0.03349459952309
             2.8253937    0.23472694665786
             0.6401217    0.81375731841339
 s    1 1.00
             0.1612778                   1

25 0
 s    3 1.00
             18.731137    0.03349459952309
             2.8253937    0.23472694665786
             0.6401217    0.81375731841339
 s    1 1.00
             0.1612778                   1

26 0
 s    3 1.00
             18.731137    0.03349459952309
             2.8253937    0.23472694665786
             0.6401217    0.81375731841339
 s    1 1.00
             0.1612778                   1

27 0
 s    3 1.00
             18.731137    0.03349459952309
             2.8253937    0.23472694665786
             0.6401217    0.81375731841339
 s    1 1.00
             0.1612778                   1

28 0
 s    3 1.00
             18.731137    0.03349459952309
             2.8253937    0.23472694665786
             0.6401217    0.81375731841339
 s    1 1.00
             0.1612778                   1

29 0
 s    3 1.00
             18.731137    0.03349459952309
             2.8253937    0.23472694665786
             0.6401217    0.81375731841339
 s    1 1.00
             0.1612778                   1

30 0
 s    3 1.00
             18.731137    0.03349459952309
             2.8253937    0.23472694665786
             0.6401217    0.81375731841339
 s    1 1.00
             0.1612778                   1

31 0
 s    3 1.00
             18.731137    0.03349459952309
             2.8253937    0.23472694665786
             0.6401217    0.81375731841339
 s    1 1.00
             0.1612778                   1

32 0
 s    3 1.00
             18.731137    0.03349459952309
             2.8253937    0.23472694665786
             0.6401217    0.81375731841339
 s    1 1.00
             0.1612778                   1

33 0
 s    6 1.00
             3047.5249  0.0018347001629433
             457.36951    0.01403730124668
             103.94869   0.068842606114048
             29.210155    0.23218442062076
              9.286663    0.46794134155879
              3.163927    0.36231203217765
 s    3 1.00
             7.8682724   -0.11933240861517
             1.8812885   -0.16085421161283
             0.5442493     1.1434564825515
 s    1 1.00
             0.1687144                   1
 p    3 1.00
             7.8682724   0.068999095584993
             1.8812885    0.31642397975315
             0.5442493    0.74430825237435
 p    1 1.00
             0.1687144                   1
 d    1 1.00
                   0.8                   1

34 0
 s    6 1.00
             3047.5249  0.0018347001629433
             457.36951    0.01403730124668
             103.94869   0.068842606114048
             29.210155    0.23218442062076
              9.286663    0.46794134155879
              3.163927    0.36231203217765
 s    3 1.00
             7.8682724   -0.11933240861517
             1.8812885   -0.16085421161283
             0.5442493     1.1434564825515
 s    1 1.00
             0.1687144                   1
 p    3 1.00
             7.8682724   0.068999095584993
             1.8812885    0.31642397975315
             0.5442493    0.74430825237435
 p    1 1.00
             0.1687144                   1
 d    1 1.00
                   0.8                   1

35 0
 s    3 1.00
             18.731137    0.03349459952309
             2.8253937    0.23472694665786
             0.6401217    0.81375731841339
 s    1 1.00
             0.1612778                   1

36 0
 s    6 1.00
             3047.5249  0.0018347001629433
             457.36951    0.01403730124668
             103.94869   0.068842606114048
             29.210155    0.23218442062076
              9.286663    0.46794134155879
              3.163927    0.36231203217765
 s    3 1.00
             7.8682724   -0.11933240861517
             1.8812885   -0.16085421161283
             0.5442493     1.1434564825515
 s    1 1.00
             0.1687144                   1
 p    3 1.00
             7.8682724   0.068999095584993
             1.8812885    0.31642397975315
             0.5442493    0.74430825237435
 p    1 1.00
             0.1687144                   1
 d    1 1.00
                   0.8                   1

37 0
 s    3 1.00
             18.731137    0.03349459952309
             2.8253937    0.23472694665786
             0.6401217    0.81375731841339
 s    1 1.00
             0.1612778                   1

38 0
 s    3 1.00
             18.731137    0.03349459952309
             2.8253937    0.23472694665786
             0.6401217    0.81375731841339
 s    1 1.00
             0.1612778                   1

39 0
 s    6 1.00
             3047.5249  0.0018347001629433
             457.36951    0.01403730124668
             103.94869   0.068842606114048
             29.210155    0.23218442062076
              9.286663    0.46794134155879
              3.163927    0.36231203217765
 s    3 1.00
             7.8682724   -0.11933240861517
             1.8812885   -0.16085421161283
             0.5442493     1.1434564825515
 s    1 1.00
             0.1687144                   1
 p    3 1.00
             7.8682724   0.068999095584993
             1.8812885    0.31642397975315
             0.5442493    0.74430825237435
 p    1 1.00
             0.1687144                   1
 d    1 1.00
                   0.8                   1

40 0
 s    6 1.00
             3047.5249  0.0018347001629433
             457.36951    0.01403730124668
             103.94869   0.068842606114048
             29.210155    0.23218442062076
              9.286663    0.46794134155879
              3.163927    0.36231203217765
 s    3 1.00
             7.8682724   -0.11933240861517
             1.8812885   -0.16085421161283
             0.5442493     1.1434564825515
 s    1 1.00
             0.1687144                   1
 p    3 1.00
             7.8682724   0.068999095584993
             1.8812885    0.31642397975315
             0.5442493    0.74430825237435
 p    1 1.00
             0.1687144                   1
 d    1 1.00
                   0.8                   1

41 0
 s    3 1.00
             18.731137    0.03349459952309
             2.8253937    0.23472694665786
             0.6401217    0.81375731841339
 s    1 1.00
             0.1612778                   1

42 0
 s    6 1.00
             5484.6717   0.001831099805527
             825.23495   0.013950098518422
             188.04696    0.06844509273075
               52.9645    0.23271427528445
              16.89757    0.47019295006289
             5.7996353    0.35852086192309
 s    3 1.00
             15.539616   -0.11077750382508
             3.5999336   -0.14802630511126
             1.0137618     1.1307670390447
 s    1 1.00
             0.2700058                   1
 p    3 1.00
             15.539616   0.070874299543311
             3.5999336    0.33975279781076
             1.0137618    0.72715859531445
 p    1 1.00
             0.2700058                   1
 d    1 1.00
                   0.8                   1

43 0
 s    3 1.00
             18.731137    0.03349459952309
             2.8253937    0.23472694665786
             0.6401217    0.81375731841339
 s    1 1.00
             0.1612778                   1

[5d]
[7f]
[9g]

[MO]
 Sym= A
 Ene=               0
 Spin= Alpha
 Occup=    1.00000
   1     0.010242046496028
   2    -0.00043407525321885
   3    0.0041212680618918
   4    8.7300222895463e-05
   5    -2.4454975450826e-05
   6    0.00034849131259264
   7    0.00032185690990961
   8    0.00061652550294027
   9    -0.0027939134136128
  10    -0.00033725788211865
  11    -0.00031756522583662
  12    4.9623977875096e-05
  13    -0.00011803902100225
  14    -2.018292891833e-05
  15    -0.00019396509583059
  16    -0.00044010341172693
  17      0.99615862358293
  18     0.024954586545335
  19    -0.015838869671305
  20    0.0003211689205346
  21    4.0392969622377e-06
  22    -0.00011611926152481
  23    -0.0017534294572138
  24    -0.00054415386165168
  25    -0.00051343182200078
  26    0.00053554636828974
  27    -0.00012916779911099
  28    -0.00023662404695605
  29    0.00036232366713847
  30    0.00024789276326747
  31    -0.00028998932966455
  32    0.0021929544739029
  33    0.0066837518746737
  34    7.5913522390177e-05
  35    0.00069210566573925
  36    0.00023019714250314
  37    3.7285764941563e-05
  38    -0.00024764512850552
  39    -0.0013263625997971
  40    0.0018659052383737
  41    0.0023076556935875
  42    -0.00013985386844478
  43    0.00036248731694515
  44    5.5535716597125e-05
  45    -9.8840354451451e-05
  46    -0.00012797063183344
  47    -0.00025504921195035
  48    -0.00034401774353097
  49    6.9558745894118e-05
  50    -0.0002676499360169
  51    0.0002695064435762
  52    0.00012034029903854
  53    6.7743732153202e-06
  54    -0.00019932597692233
  55    -0.0024923819339259
  56    0.00063963984696207
  57    0.0037129095724027
  58    -3.7170240622342e-05
  59    -4.3800680637628e-05
  60    0.00010678217441354
  61    -8.937802946708e-05
  62    -0.00010395097865794
  63    -0.00025955719293733
  64    0.00011008228551248
  65    -1.9303795705157e-06
  66    -2.5614779924675e-06
  67    5.6876469031044e-07
  68    -2.0781158569748e-06
  69    7.9919997627423e-07
  70    1.0379843971103e-06
  71    -2.7995635544258e-06
  72    1.0329565955514e-06
  73    4.0845264205763e-06
  74    1.2027885185943e-05
  75    2.4987382749272e-06
  76    -2.7963054064645e-07
  77    -2.6430012899105e-07
  78    3.2151873299436e-07
  79    2.6177784759951e-07
  80    2.5755990464888e-08
  81    1.4084695015006e-06
  82    7.509211864626e-06
  83    1.0840411300848e-06
  84    -1.2216174622351e-06
  85    -3.4105957263299e-05
  86    5.8377236661506e-06
  87    1.5182193599396e-06
  88    9.025432820592e-06
  89    1.3214277591996e-05
  90    -2.9628872347084e-05
  91    1.0033776738201e-05
  92    3.2974846183822e-07
  93    -7.945975114217e-07
  94    2.0946000498275e-06
  95    -7.0740016585538e-08
  96    -1.8417049145813e-07
  97    6.8668448288799e-06
  98    1.1994728136277e-05
  99    -1.1965208246782e-06
 100    -9.1881027994691e-06
 101    -2.1704585976498e-06
 102    -3.8010790299377e-06
 103    9.9768775300741e-05
 104    -1.0964070597954e-05
 105    -1.3224735078163e-05
 106    -2.2308397898269e-06
 107    -9.3604275916743e-05
 108    7.3433573126481e-05
 109    6.2207330847829e-05
 110    -3.9458502404567e-06
 111    -2.0443333571943e-06
 112    9.0527653406477e-07
 113    1.5940360118715e-06
 114    -2.7431298995291e-06
 115    -3.6474252376357e-06
 116    -1.1483303128286e-05
 117    0.00011624358971143
 118    -2.971299900425e-06
 119    6.5197626243866e-06
 120    3.7611210418714e-06
 121    -2.4958527761985e-05
 122    8.4444042586663e-06
 123    1.7555891678169e-05
 124    4.251264887306e-07
 125    -1.5094231505428e-06
 126    -1.4767990380899e-06
 127    7.8612171134784e-07
 128    -6.2416319172474e-07
 129    8.2460894636201e-06
 130    -4.2770420239838e-05
 131    3.5241847396832e-05
 132    1.1465956849856e-05
 133    -3.2969337830577e-06
 134    7.2377868305024e-05
 135    -0.00015573139106356
 136    1.0670583696377e-05
 137    -0.00014863348215921
 138    5.4832414957661e-06
 139    1.0977969974617e-06
 140    1.7924582879061e-06
 141    1.1317491049248e-06
 142    2.2854608273404e-06
 143    -7.8547685164525e-06
 144    1.4787154786239e-06
 145    4.3723374312868e-05
 146    1.5731103267904e-05
 147    -8.5519237943842e-06
 148    -1.9315908696192e-05
 149    2.2545881958981e-05
 150    -1.2209594546425e-05
 151    -4.1681773675391e-05
 152    -4.9944895989984e-06
 153    -3.1573949611403e-06
 154    -1.1747907353389e-06
 155    2.3802879359657e-06
 156    -2.9807952065558e-06
 157    -6.8507981340741e-09
 158    7.6469618463072e-06
 159    -1.1492355925872e-05
 160    3.5476227016411e-06
 161    -2.4149262509328e-06
 162    1.3571927501278e-06
 163    -2.4178418095994e-05
 164    9.7123458417828e-06
 165    8.4691935276206e-06
 166    1.3932569495997e-06
 167    -7.9910006591034e-07
 168    2.3316118619495e-07
 169    2.0827533509298e-07
 170    2.6528658240047e-07
 171    -9.5138743033234e-07
 172    -5.4391523396833e-06
 173    1.1966603297842e-05
 174    -1.8775342966242e-06
 175    1.1548701769878e-06
 176    4.9990641492698e-06
 177    -4.811084217168e-06
 178    -2.3087849621788e-07
 179    -1.5628408509133e-05
 180    4.603195456645e-07
 181    1.3852938256352e-06
 182    5.5835694128216e-08
 183    -1.8813902425021e-09
 184    7.503635820351e-07
 185    1.0395116113988e-06
 186    -1.7293869197815e-05
 187    1.9730723903184e-05
 188    2.371856879524e-06
 189    2.9684575404214e-06
 190    1.4916748562425e-05
 191    2.2067143438657e-06
 192    -1.1694677636188e-06
 193    -1.8676432920471e-05
 194    1.8640650378008e-06
 195    -3.0229465168067e-07
 196    1.5460616226609e-06
 197    -3.1557249790725e-07
 198    1.4157537220071e-07
 199    -3.1162482420407e-06
 200    1.2769355197563e-07
 201    3.6565611042946e-06
 202    1.7952356020427e-05
 203    -7.6365058071005e-06
 204    -6.8416880752032e-06
 205    3.4509746849877e-06
 206    -7.9572532765993e-06
 207    4.6317951747637e-06
 208    -3.2224138813677e-05
 209    2.8129763639896e-06
 210    -1.5495210323139e-05
 211    2.272093985024e-06
 212    6.2365347923354e-06
 213    1.694018422266e-06
 214    -7.3484529807385e-06
 215    -3.2076318650085e-06
 216    -2.1396322146368e-05
 217    2.9783598395581e-06
 218    9.3759539790615e-06
 219    -6.5375586212465e-07
 220    -5.6019689466328e-07
 221    -7.7962490975009e-05
 222    0.0001029002704848
 223    0.0005580498280436
 224    0.00010071376662094
 225     5.41755227742e-05
 226    -0.00019384749171973
 227    0.00035740677460616
 228    0.00016446709740249
 229    -0.00050066080831647
 230    -1.0043102877896e-06
 231    -2.547830413413e-05
 232    -1.1216558207144e-05
 233    1.4029491644314e-05
 234    1.3303216836485e-05
 235    0.00014369364568047
 236    -0.00029959326419217
 237    -0.0002966071833738
 238    -0.00017602410990911
 239    -0.00014339431188211
 240    0.00051417609624312
 241    9.701463120768e-05
 242    0.00012509143536597
 243    -0.00060900063223134
 244    -4.1113164026157e-06
 245    7.6725038343222e-07
 246    2.6537866447812e-06
 247    -5.0402956788207e-06
 248    -1.2805837420122e-06
 249    -5.0484942891749e-06
 250    0.00013843805783367
 251    -0.00031607833895665
 252    -0.0002357271460891
 253    0.00086630674045033
 254    -0.00049928303639714
 255    -7.5780432857222e-05
 256    -0.00030857960642248
 257    -0.0003733173150622
 258    0.00013275465059112
 259    -0.00098961305946847
 260    -1.9640949718553e-05
 261    -2.7794071567579e-05
 262    -1.6666328944675e-05
 263    6.8330877183967e-05
 264    4.7632639873979e-05
 265    -0.00021255873995193
 266    3.8093617855791e-05
 267    0.00026883531488748
 268    -4.6959078961625e-05
 269    2.016284704836e-05
 270    -0.00025346172981312
 271     0.003486117550259
 272    1.9606080562551e-05
 273    -0.00018495846370074
 274    1.3554599991502e-05
 275    -0.00078147010946975
 276    -0.0015515823290797
 277    0.0013411818221518
 278    4.2075104490519e-05
 279    -9.287271516436e-05
 280    -2.0733321652887e-05