[Molden Format]
made by pyscf v[2.0.1]
[Atoms] (AU)
C   1   6     0.69100024066471     0.64692934207205    -3.48223131169301
H   2   1     2.68052439830868     1.13355088658700    -3.25784032593313
C   3   6    -0.36286361513219     0.85440132524594    -5.97030179418974
H   4   1    -2.35448549047279     0.36322488579172    -6.17995817793143
C   5   6     0.93697958957450     1.61209284601821    -8.05828437677121
H   6   1     1.06549067678056     3.62267689696451    -8.48487489511106
C   7   6     2.16736557798100    -0.10534186648568    -9.75912299477448
H   8   1     2.02320928491733    -2.11383137749881    -9.30645195914250
H   9   1     1.55630230933075    -1.92953025305990    12.99630010416247
C   10   6     0.75233899775814    -2.21270439606481    11.10705728102219
H   11   1    -0.43433408177274    -3.90944857546550    11.22216085340412
C   12   6     2.86362581178706    -2.63237380607947     9.17926416456045
H   13   1     4.39038949912609    -1.24955421540245     9.49899813497433
H   14   1     3.74629220191363    -4.48798724300892     9.47414880959024
C   15   6     2.02478325613682    -2.42177285709634     6.44560829588644
C   16   6     3.88048732735477    -3.58795445234514     4.61402886975252
C   17   6    -0.18412382258602    -1.30464291234259     5.76021113872346
C   18   6    -2.10044360464350    -0.26837831858460     7.71610340967100
C   19   6    -3.08956938670431     2.35282328359417     6.88693925039594
C   20   6    -4.37372924086464    -2.09766595989678     7.93610724222001
C   21   6    -0.83850430601230     0.06372213486173    10.33002307638377
H   22   1     0.38411922151109     1.74281358582432    10.27380136542181
H   23   1    -2.30980003007874     0.45460143924521    11.73986301809809
H   24   1     4.58527064644668    -5.38706904487420     5.36778158031719
H   25   1     5.54944938085014    -2.37631462192748     4.35398898413318
H   26   1     3.06633019150423    -3.94118377050688     2.75255466040884
H   27   1    -4.17727778763735     2.26573369139522     5.12914900961283
H   28   1    -1.52662344944051     3.68001877445626     6.59540397144508
H   29   1    -4.32916174397830     3.13643051467482     8.35225460090378
H   30   1    -5.32329548508442    -2.36691813602939     6.11583672749896
H   31   1    -5.77989366602257    -1.33896741843465     9.25748940450990
H   32   1    -3.79310905208926    -3.96389819310853     8.61386170102686
C   33   6    -1.01100794811226    -1.06331657314144     3.11929490449947
C   34   6     0.37686231036534    -0.33275864505552     1.09165013605873
H   35   1    -3.01671213906703    -1.40297922279997     2.77827895090944
C   36   6    -0.64382707979370    -0.11591880174385    -1.42063131251064
H   37   1     2.35569259782137     0.17174499283897     1.33641070251401
H   38   1    -2.63317482980319    -0.60229203511219    -1.66119700387645
C   39   6     3.47875288242203     0.56169257871714   -11.85961387583028
C   40   6     4.66516051155728    -1.33401759756945   -13.47384510134906
H   41   1     3.69428385946791     2.52875803282145   -12.41815504578381
O   42   8     5.86788117255002    -0.86880199432758   -15.38639878207248
H   43   1     4.39675898316744    -3.32256790318547   -12.83056660829343
[GTO]
1 0
 s    6 1.00
             3047.5249  0.0018347001629433
             457.36951    0.01403730124668
             103.94869   0.068842606114048
             29.210155    0.23218442062076
              9.286663    0.46794134155879
              3.163927    0.36231203217765
 s    3 1.00
             7.8682724   -0.11933240861517
             1.8812885   -0.16085421161283
             0.5442493     1.1434564825515
 s    1 1.00
             0.1687144                   1
 p    3 1.00
             7.8682724   0.068999095584993
             1.8812885    0.31642397975315
             0.5442493    0.74430825237435
 p    1 1.00
             0.1687144                   1
 d    1 1.00
                   0.8                   1

2 0
 s    3 1.00
             18.731137    0.03349459952309
             2.8253937    0.23472694665786
             0.6401217    0.81375731841339
 s    1 1.00
             0.1612778                   1

3 0
 s    6 1.00
             3047.5249  0.0018347001629433
             457.36951    0.01403730124668
             103.94869   0.068842606114048
             29.210155    0.23218442062076
              9.286663    0.46794134155879
              3.163927    0.36231203217765
 s    3 1.00
             7.8682724   -0.11933240861517
             1.8812885   -0.16085421161283
             0.5442493     1.1434564825515
 s    1 1.00
             0.1687144                   1
 p    3 1.00
             7.8682724   0.068999095584993
             1.8812885    0.31642397975315
             0.5442493    0.74430825237435
 p    1 1.00
             0.1687144                   1
 d    1 1.00
                   0.8                   1

4 0
 s    3 1.00
             18.731137    0.03349459952309
             2.8253937    0.23472694665786
             0.6401217    0.81375731841339
 s    1 1.00
             0.1612778                   1

5 0
 s    6 1.00
             3047.5249  0.0018347001629433
             457.36951    0.01403730124668
             103.94869   0.068842606114048
             29.210155    0.23218442062076
              9.286663    0.46794134155879
              3.163927    0.36231203217765
 s    3 1.00
             7.8682724   -0.11933240861517
             1.8812885   -0.16085421161283
             0.5442493     1.1434564825515
 s    1 1.00
             0.1687144                   1
 p    3 1.00
             7.8682724   0.068999095584993
             1.8812885    0.31642397975315
             0.5442493    0.74430825237435
 p    1 1.00
             0.1687144                   1
 d    1 1.00
                   0.8                   1

6 0
 s    3 1.00
             18.731137    0.03349459952309
             2.8253937    0.23472694665786
             0.6401217    0.81375731841339
 s    1 1.00
             0.1612778                   1

7 0
 s    6 1.00
             3047.5249  0.0018347001629433
             457.36951    0.01403730124668
             103.94869   0.068842606114048
             29.210155    0.23218442062076
              9.286663    0.46794134155879
              3.163927    0.36231203217765
 s    3 1.00
             7.8682724   -0.11933240861517
             1.8812885   -0.16085421161283
             0.5442493     1.1434564825515
 s    1 1.00
             0.1687144                   1
 p    3 1.00
             7.8682724   0.068999095584993
             1.8812885    0.31642397975315
             0.5442493    0.74430825237435
 p    1 1.00
             0.1687144                   1
 d    1 1.00
                   0.8                   1

8 0
 s    3 1.00
             18.731137    0.03349459952309
             2.8253937    0.23472694665786
             0.6401217    0.81375731841339
 s    1 1.00
             0.1612778                   1

9 0
 s    3 1.00
             18.731137    0.03349459952309
             2.8253937    0.23472694665786
             0.6401217    0.81375731841339
 s    1 1.00
             0.1612778                   1

10 0
 s    6 1.00
             3047.5249  0.0018347001629433
             457.36951    0.01403730124668
             103.94869   0.068842606114048
             29.210155    0.23218442062076
              9.286663    0.46794134155879
              3.163927    0.36231203217765
 s    3 1.00
             7.8682724   -0.11933240861517
             1.8812885   -0.16085421161283
             0.5442493     1.1434564825515
 s    1 1.00
             0.1687144                   1
 p    3 1.00
             7.8682724   0.068999095584993
             1.8812885    0.31642397975315
             0.5442493    0.74430825237435
 p    1 1.00
             0.1687144                   1
 d    1 1.00
                   0.8                   1

11 0
 s    3 1.00
             18.731137    0.03349459952309
             2.8253937    0.23472694665786
             0.6401217    0.81375731841339
 s    1 1.00
             0.1612778                   1

12 0
 s    6 1.00
             3047.5249  0.0018347001629433
             457.36951    0.01403730124668
             103.94869   0.068842606114048
             29.210155    0.23218442062076
              9.286663    0.46794134155879
              3.163927    0.36231203217765
 s    3 1.00
             7.8682724   -0.11933240861517
             1.8812885   -0.16085421161283
             0.5442493     1.1434564825515
 s    1 1.00
             0.1687144                   1
 p    3 1.00
             7.8682724   0.068999095584993
             1.8812885    0.31642397975315
             0.5442493    0.74430825237435
 p    1 1.00
             0.1687144                   1
 d    1 1.00
                   0.8                   1

13 0
 s    3 1.00
             18.731137    0.03349459952309
             2.8253937    0.23472694665786
             0.6401217    0.81375731841339
 s    1 1.00
             0.1612778                   1

14 0
 s    3 1.00
             18.731137    0.03349459952309
             2.8253937    0.23472694665786
             0.6401217    0.81375731841339
 s    1 1.00
             0.1612778                   1

15 0
 s    6 1.00
             3047.5249  0.0018347001629433
             457.36951    0.01403730124668
             103.94869   0.068842606114048
             29.210155    0.23218442062076
              9.286663    0.46794134155879
              3.163927    0.36231203217765
 s    3 1.00
             7.8682724   -0.11933240861517
             1.8812885   -0.16085421161283
             0.5442493     1.1434564825515
 s    1 1.00
             0.1687144                   1
 p    3 1.00
             7.8682724   0.068999095584993
             1.8812885    0.31642397975315
             0.5442493    0.74430825237435
 p    1 1.00
             0.1687144                   1
 d    1 1.00
                   0.8                   1

16 0
 s    6 1.00
             3047.5249  0.0018347001629433
             457.36951    0.01403730124668
             103.94869   0.068842606114048
             29.210155    0.23218442062076
              9.286663    0.46794134155879
              3.163927    0.36231203217765
 s    3 1.00
             7.8682724   -0.11933240861517
             1.8812885   -0.16085421161283
             0.5442493     1.1434564825515
 s    1 1.00
             0.1687144                   1
 p    3 1.00
             7.8682724   0.068999095584993
             1.8812885    0.31642397975315
             0.5442493    0.74430825237435
 p    1 1.00
             0.1687144                   1
 d    1 1.00
                   0.8                   1

17 0
 s    6 1.00
             3047.5249  0.0018347001629433
             457.36951    0.01403730124668
             103.94869   0.068842606114048
             29.210155    0.23218442062076
              9.286663    0.46794134155879
              3.163927    0.36231203217765
 s    3 1.00
             7.8682724   -0.11933240861517
             1.8812885   -0.16085421161283
             0.5442493     1.1434564825515
 s    1 1.00
             0.1687144                   1
 p    3 1.00
             7.8682724   0.068999095584993
             1.8812885    0.31642397975315
             0.5442493    0.74430825237435
 p    1 1.00
             0.1687144                   1
 d    1 1.00
                   0.8                   1

18 0
 s    6 1.00
             3047.5249  0.0018347001629433
             457.36951    0.01403730124668
             103.94869   0.068842606114048
             29.210155    0.23218442062076
              9.286663    0.46794134155879
              3.163927    0.36231203217765
 s    3 1.00
             7.8682724   -0.11933240861517
             1.8812885   -0.16085421161283
             0.5442493     1.1434564825515
 s    1 1.00
             0.1687144                   1
 p    3 1.00
             7.8682724   0.068999095584993
             1.8812885    0.31642397975315
             0.5442493    0.74430825237435
 p    1 1.00
             0.1687144                   1
 d    1 1.00
                   0.8                   1

19 0
 s    6 1.00
             3047.5249  0.0018347001629433
             457.36951    0.01403730124668
             103.94869   0.068842606114048
             29.210155    0.23218442062076
              9.286663    0.46794134155879
              3.163927    0.36231203217765
 s    3 1.00
             7.8682724   -0.11933240861517
             1.8812885   -0.16085421161283
             0.5442493     1.1434564825515
 s    1 1.00
             0.1687144                   1
 p    3 1.00
             7.8682724   0.068999095584993
             1.8812885    0.31642397975315
             0.5442493    0.74430825237435
 p    1 1.00
             0.1687144                   1
 d    1 1.00
                   0.8                   1

20 0
 s    6 1.00
             3047.5249  0.0018347001629433
             457.36951    0.01403730124668
             103.94869   0.068842606114048
             29.210155    0.23218442062076
              9.286663    0.46794134155879
              3.163927    0.36231203217765
 s    3 1.00
             7.8682724   -0.11933240861517
             1.8812885   -0.16085421161283
             0.5442493     1.1434564825515
 s    1 1.00
             0.1687144                   1
 p    3 1.00
             7.8682724   0.068999095584993
             1.8812885    0.31642397975315
             0.5442493    0.74430825237435
 p    1 1.00
             0.1687144                   1
 d    1 1.00
                   0.8                   1

21 0
 s    6 1.00
             3047.5249  0.0018347001629433
             457.36951    0.01403730124668
             103.94869   0.068842606114048
             29.210155    0.23218442062076
              9.286663    0.46794134155879
              3.163927    0.36231203217765
 s    3 1.00
             7.8682724   -0.11933240861517
             1.8812885   -0.16085421161283
             0.5442493     1.1434564825515
 s    1 1.00
             0.1687144                   1
 p    3 1.00
             7.8682724   0.068999095584993
             1.8812885    0.31642397975315
             0.5442493    0.74430825237435
 p    1 1.00
             0.1687144                   1
 d    1 1.00
                   0.8                   1

22 0
 s    3 1.00
             18.731137    0.03349459952309
             2.8253937    0.23472694665786
             0.6401217    0.81375731841339
 s    1 1.00
             0.1612778                   1

23 0
 s    3 1.00
             18.731137    0.03349459952309
             2.8253937    0.23472694665786
             0.6401217    0.81375731841339
 s    1 1.00
             0.1612778                   1

24 0
 s    3 1.00
             18.731137    0.03349459952309
             2.8253937    0.23472694665786
             0.6401217    0.81375731841339
 s    1 1.00
             0.1612778                   1

25 0
 s    3 1.00
             18.731137    0.03349459952309
             2.8253937    0.23472694665786
             0.6401217    0.81375731841339
 s    1 1.00
             0.1612778                   1

26 0
 s    3 1.00
             18.731137    0.03349459952309
             2.8253937    0.23472694665786
             0.6401217    0.81375731841339
 s    1 1.00
             0.1612778                   1

27 0
 s    3 1.00
             18.731137    0.03349459952309
             2.8253937    0.23472694665786
             0.6401217    0.81375731841339
 s    1 1.00
             0.1612778                   1

28 0
 s    3 1.00
             18.731137    0.03349459952309
             2.8253937    0.23472694665786
             0.6401217    0.81375731841339
 s    1 1.00
             0.1612778                   1

29 0
 s    3 1.00
             18.731137    0.03349459952309
             2.8253937    0.23472694665786
             0.6401217    0.81375731841339
 s    1 1.00
             0.1612778                   1

30 0
 s    3 1.00
             18.731137    0.03349459952309
             2.8253937    0.23472694665786
             0.6401217    0.81375731841339
 s    1 1.00
             0.1612778                   1

31 0
 s    3 1.00
             18.731137    0.03349459952309
             2.8253937    0.23472694665786
             0.6401217    0.81375731841339
 s    1 1.00
             0.1612778                   1

32 0
 s    3 1.00
             18.731137    0.03349459952309
             2.8253937    0.23472694665786
             0.6401217    0.81375731841339
 s    1 1.00
             0.1612778                   1

33 0
 s    6 1.00
             3047.5249  0.0018347001629433
             457.36951    0.01403730124668
             103.94869   0.068842606114048
             29.210155    0.23218442062076
              9.286663    0.46794134155879
              3.163927    0.36231203217765
 s    3 1.00
             7.8682724   -0.11933240861517
             1.8812885   -0.16085421161283
             0.5442493     1.1434564825515
 s    1 1.00
             0.1687144                   1
 p    3 1.00
             7.8682724   0.068999095584993
             1.8812885    0.31642397975315
             0.5442493    0.74430825237435
 p    1 1.00
             0.1687144                   1
 d    1 1.00
                   0.8                   1

34 0
 s    6 1.00
             3047.5249  0.0018347001629433
             457.36951    0.01403730124668
             103.94869   0.068842606114048
             29.210155    0.23218442062076
              9.286663    0.46794134155879
              3.163927    0.36231203217765
 s    3 1.00
             7.8682724   -0.11933240861517
             1.8812885   -0.16085421161283
             0.5442493     1.1434564825515
 s    1 1.00
             0.1687144                   1
 p    3 1.00
             7.8682724   0.068999095584993
             1.8812885    0.31642397975315
             0.5442493    0.74430825237435
 p    1 1.00
             0.1687144                   1
 d    1 1.00
                   0.8                   1

35 0
 s    3 1.00
             18.731137    0.03349459952309
             2.8253937    0.23472694665786
             0.6401217    0.81375731841339
 s    1 1.00
             0.1612778                   1

36 0
 s    6 1.00
             3047.5249  0.0018347001629433
             457.36951    0.01403730124668
             103.94869   0.068842606114048
             29.210155    0.23218442062076
              9.286663    0.46794134155879
              3.163927    0.36231203217765
 s    3 1.00
             7.8682724   -0.11933240861517
             1.8812885   -0.16085421161283
             0.5442493     1.1434564825515
 s    1 1.00
             0.1687144                   1
 p    3 1.00
             7.8682724   0.068999095584993
             1.8812885    0.31642397975315
             0.5442493    0.74430825237435
 p    1 1.00
             0.1687144                   1
 d    1 1.00
                   0.8                   1

37 0
 s    3 1.00
             18.731137    0.03349459952309
             2.8253937    0.23472694665786
             0.6401217    0.81375731841339
 s    1 1.00
             0.1612778                   1

38 0
 s    3 1.00
             18.731137    0.03349459952309
             2.8253937    0.23472694665786
             0.6401217    0.81375731841339
 s    1 1.00
             0.1612778                   1

39 0
 s    6 1.00
             3047.5249  0.0018347001629433
             457.36951    0.01403730124668
             103.94869   0.068842606114048
             29.210155    0.23218442062076
              9.286663    0.46794134155879
              3.163927    0.36231203217765
 s    3 1.00
             7.8682724   -0.11933240861517
             1.8812885   -0.16085421161283
             0.5442493     1.1434564825515
 s    1 1.00
             0.1687144                   1
 p    3 1.00
             7.8682724   0.068999095584993
             1.8812885    0.31642397975315
             0.5442493    0.74430825237435
 p    1 1.00
             0.1687144                   1
 d    1 1.00
                   0.8                   1

40 0
 s    6 1.00
             3047.5249  0.0018347001629433
             457.36951    0.01403730124668
             103.94869   0.068842606114048
             29.210155    0.23218442062076
              9.286663    0.46794134155879
              3.163927    0.36231203217765
 s    3 1.00
             7.8682724   -0.11933240861517
             1.8812885   -0.16085421161283
             0.5442493     1.1434564825515
 s    1 1.00
             0.1687144                   1
 p    3 1.00
             7.8682724   0.068999095584993
             1.8812885    0.31642397975315
             0.5442493    0.74430825237435
 p    1 1.00
             0.1687144                   1
 d    1 1.00
                   0.8                   1

41 0
 s    3 1.00
             18.731137    0.03349459952309
             2.8253937    0.23472694665786
             0.6401217    0.81375731841339
 s    1 1.00
             0.1612778                   1

42 0
 s    6 1.00
             5484.6717   0.001831099805527
             825.23495   0.013950098518422
             188.04696    0.06844509273075
               52.9645    0.23271427528445
              16.89757    0.47019295006289
             5.7996353    0.35852086192309
 s    3 1.00
             15.539616   -0.11077750382508
             3.5999336   -0.14802630511126
             1.0137618     1.1307670390447
 s    1 1.00
             0.2700058                   1
 p    3 1.00
             15.539616   0.070874299543311
             3.5999336    0.33975279781076
             1.0137618    0.72715859531445
 p    1 1.00
             0.2700058                   1
 d    1 1.00
                   0.8                   1

43 0
 s    3 1.00
             18.731137    0.03349459952309
             2.8253937    0.23472694665786
             0.6401217    0.81375731841339
 s    1 1.00
             0.1612778                   1

[5d]
[7f]
[9g]

[MO]
 Sym= A
 Ene=               0
 Spin= Alpha
 Occup=    1.00000
   1     0.010794423283101
   2    -0.00042117631373705
   3     0.004104135489893
   4    8.6617786986219e-05
   5    -2.2268824375048e-05
   6    0.0003498533425268
   7    0.00032663305116126
   8    0.00061025483672761
   9    -0.0027940577160663
  10    -0.00033760680100889
  11    -0.00031720183515038
  12    4.9407707921073e-05
  13    -0.00011768160121274
  14    -2.0038138404318e-05
  15    -0.00019458496441163
  16    -0.0004381577135939
  17      0.99614413817107
  18     0.024973017317574
  19    -0.015827392682577
  20    0.00032741530773603
  21    7.2803062313476e-06
  22    -0.00012741680235953
  23    -0.0017550108079804
  24    -0.00054352246050153
  25    -0.00050639624339035
  26    0.00053363931012839
  27    -0.00013018215104177
  28    -0.00023502064181447
  29    0.0003567736009415
  30    0.00024428712797793
  31    -0.00029010228261246
  32    0.0021920819965834
  33      0.00721993045368
  34    8.7218496553996e-05
  35    0.00068432560480196
  36    0.00023143984127288
  37    3.7500651146205e-05
  38    -0.00025033271698214
  39    -0.0012958506200444
  40    0.0018727399228856
  41    0.0023281575075486
  42    -0.00014420926411922
  43    0.00036367607873017
  44    5.4531071536811e-05
  45    -9.8418430546917e-05
  46    -0.00013231007661155
  47    -0.00025589332940677
  48    -0.00034595102424626
  49    8.2391391126289e-05
  50    -0.00026865027746782
  51      0.00027901898127
  52    0.00011726835202148
  53    6.3941065962299e-06
  54    -0.00020198272260707
  55    -0.0024558037418915
  56    0.00064534038834632
  57    0.0037381083409782
  58    -3.5306562374966e-05
  59    -4.2800183542431e-05
  60    0.00010920664531161
  61    -9.1614616696749e-05
  62    -0.00010010738526215
  63    -0.0002597249613723
  64    0.00010986913399299
  65    -1.9267922610709e-06
  66    -2.5251853657524e-06
  67    5.6868621704352e-07
  68    -2.1078895451868e-06
  69    8.7515336897966e-07
  70    1.0472731060038e-06
  71    -2.7958454938761e-06
  72    1.0430093321841e-06
  73    4.0382948936174e-06
  74    1.1979204887323e-05
  75    2.4396556176665e-06
  76    -2.7777262233282e-07
  77    -2.6592092404725e-07
  78    3.2530455366017e-07
  79    2.6463874165119e-07
  80    2.5200923555638e-08
  81    1.3944599835179e-06
  82    7.4735827748339e-06
  83    1.0908295518498e-06
  84    -1.1877428611972e-06
  85    -3.4118631159331e-05
  86    5.8430802301758e-06
  87    1.514719003838e-06
  88    9.0409171442804e-06
  89    1.3320496377145e-05
  90    -2.9633652682585e-05
  91    1.0015734208252e-05
  92    3.2234889128532e-07
  93    -7.9661348797491e-07
  94    2.1013340035593e-06
  95    -7.4392663122872e-08
  96    -1.7929385044169e-07
  97    6.8862056266778e-06
  98    1.2014599291986e-05
  99    -1.1963555986418e-06
 100    -9.1851296857855e-06
 101    -2.2047935683909e-06
 102    -3.8615921554062e-06
 103    0.00010130594820179
 104    -1.1062389433814e-05
 105    -1.3243854388091e-05
 106    -2.2535442000479e-06
 107    -9.4020581088471e-05
 108    7.3480377040716e-05
 109    6.1647103335298e-05
 110    -3.9202655227749e-06
 111    -2.0300715560119e-06
 112    8.9744184489775e-07
 113    1.6200608530997e-06
 114    -2.7599378312354e-06
 115    -3.6453941620807e-06
 116    -1.1403810217438e-05
 117    0.00011589383403021
 118    -2.9803601109913e-06
 119    6.5688727373027e-06
 120    3.7202115083124e-06
 121    -2.4734387501969e-05
 122    8.0577674316529e-06
 123    1.755539201659e-05
 124    4.3292356378717e-07
 125    -1.4962950185941e-06
 126    -1.490598747555e-06
 127    7.6797348023383e-07
 128    -6.1405804707391e-07
 129    8.2521558569022e-06
 130    -4.2671287961166e-05
 131    3.5378412671967e-05
 132    1.1565770004596e-05
 133    -3.3542550000055e-06
 134    7.2336791824339e-05
 135    -0.00015708376819052
 136    1.1458375520255e-05
 137    -0.00014829132985777
 138    5.5196390617996e-06
 139    1.0601378199906e-06
 140    1.8068623886182e-06
 141    1.1066203755724e-06
 142    2.2835595495144e-06
 143    -7.8472958759846e-06
 144    1.6806112027092e-06
 145    4.2492445112089e-05
 146    1.5739889922346e-05
 147    -8.5552198345346e-06
 148    -1.9323462782495e-05
 149    2.2235532545373e-05
 150    -1.2266225651596e-05
 151    -4.104506166245e-05
 152    -5.0191991958017e-06
 153    -3.127529791904e-06
 154    -1.1826001096572e-06
 155    2.3784584344462e-06
 156    -2.9713577182304e-06
 157    -9.7860688056149e-09
 158    7.6182853374967e-06
 159    -1.1217174107788e-05
 160    3.5519473914897e-06
 161    -2.4338816763806e-06
 162     1.41069939756e-06
 163    -2.4043763235879e-05
 164    9.5350796905477e-06
 165    8.3807510726948e-06
 166    1.3776891616169e-06
 167    -7.8187010508396e-07
 168    2.3693023421758e-07
 169    1.9838243389966e-07
 170    2.624496713844e-07
 171    -9.5049642255409e-07
 172    -5.3831412210582e-06
 173    1.1874677004133e-05
 174    -1.8554876664973e-06
 175    1.1628591238051e-06
 176    4.983964003739e-06
 177    -4.8816096616214e-06
 178    -2.0607920083339e-07
 179    -1.5632742172333e-05
 180    4.5893428150621e-07
 181    1.3814683313112e-06
 182    4.2390206456013e-08
 183    -2.24937616061e-10
 184    7.5132558486284e-07
 185    1.0408466614608e-06
 186    -1.7313902528605e-05
 187    1.971416514033e-05
 188    2.3662911018117e-06
 189    2.9704011012349e-06
 190    1.4916614182258e-05
 191    2.3686275584347e-06
 192    -1.1252022618706e-06
 193    -1.870879618087e-05
 194    1.8785879076544e-06
 195    -3.04044345045e-07
 196    1.5422618468809e-06
 197    -3.257288593745e-07
 198    1.4188565335951e-07
 199    -3.1331560503569e-06
 200    7.6053326900698e-08
 201    3.6696803090527e-06
 202    1.7995759196394e-05
 203    -7.6570278033406e-06
 204    -7.0412746625979e-06
 205    3.4869789237824e-06
 206    -7.8210874054491e-06
 207    4.689772368139e-06
 208    -3.2429521129259e-05
 209    2.7633412312987e-06
 210    -1.5481144796116e-05
 211    2.2404021262621e-06
 212    6.2280079594625e-06
 213    1.7142017878543e-06
 214    -7.2781363773448e-06
 215    -3.2110641176685e-06
 216    -2.1381693844845e-05
 217    2.9878704695523e-06
 218    9.3269966199681e-06
 219    -6.471687160748e-07
 220    -5.21487497267e-07
 221    -7.8070385296905e-05
 222    0.00010298950689835
 223    0.00055739947963862
 224    0.00010076589332771
 225    5.4469449433579e-05
 226    -0.00019377515519481
 227    0.00035684912935232
 228    0.00016422976446982
 229    -0.00050121834026657
 230    -9.9552399479684e-07
 231    -2.5443623262194e-05
 232    -1.1266270634686e-05
 233    1.397055288704e-05
 234    1.3295397056497e-05
 235    0.0001435045463581
 236    -0.00029848088963654
 237    -0.00029955996558009
 238    -0.00017649550290847
 239    -0.00014328076701107
 240    0.00051393752955488
 241     9.82549111446e-05
 242    0.00012394404952959
 243    -0.00060569871598399
 244    -4.1338259701143e-06
 245    7.2369941852264e-07
 246    2.8522065292783e-06
 247    -5.1057802602719e-06
 248    -1.1721367237834e-06
 249    -5.0809368655989e-06
 250    0.00013806173216904
 251    -0.00031629167199409
 252    -0.00023418740897498
 253    0.00087474767878169
 254    -0.00049975428642813
 255    -7.6669824513807e-05
 256    -0.00030766166445031
 257    -0.00037217517612814
 258    0.00013659481848228
 259    -0.00098683636444871
 260    -1.9540826147055e-05
 261    -2.7432679247733e-05
 262    -1.6933800072167e-05
 263    6.8127955154706e-05
 264    4.7975519067893e-05
 265    -0.00021245862145815
 266    3.7565986154346e-05
 267    0.0002703786074337
 268    -4.5308319407979e-05
 269    1.992132170619e-05
 270    -0.00025306272543859
 271    0.0034832286252515
 272    1.7679815510703e-05
 273    -0.00018504953482025
 274    1.2452964757313e-05
 275    -0.00079945889897669
 276    -0.0015530016845758
 277    0.0013267312211981
 278    4.1977782871848e-05
 279    -9.2939814638031e-05
 280    -1.9818207773055e-05