[Molden Format]
made by pyscf v[2.0.1]
[Atoms] (AU)
C   1   6     0.69100024066471     0.64692934207205    -3.48223131169301
H   2   1     2.68052439830868     1.13355088658700    -3.25784032593313
C   3   6    -0.36286361513219     0.85440132524594    -5.97030179418974
H   4   1    -2.35448549047279     0.36322488579172    -6.17995817793143
C   5   6     0.93697958957450     1.61209284601821    -8.05828437677121
H   6   1     1.79023114573091     3.48620134168797    -8.08322278856913
C   7   6     1.25568723688000     0.06665493916240   -10.26426053014808
H   8   1     0.39118722523993    -1.80671768770582   -10.21099750517578
H   9   1     1.55630230933075    -1.92953025305990    12.99630010416247
C   10   6     0.75233899775814    -2.21270439606481    11.10705728102219
H   11   1    -0.43433408177274    -3.90944857546550    11.22216085340412
C   12   6     2.86362581178706    -2.63237380607947     9.17926416456045
H   13   1     4.39038949912609    -1.24955421540245     9.49899813497433
H   14   1     3.74629220191363    -4.48798724300892     9.47414880959024
C   15   6     2.02478325613682    -2.42177285709634     6.44560829588644
C   16   6     3.88048732735477    -3.58795445234514     4.61402886975252
C   17   6    -0.18412382258602    -1.30464291234259     5.76021113872346
C   18   6    -2.10044360464350    -0.26837831858460     7.71610340967100
C   19   6    -3.08956938670431     2.35282328359417     6.88693925039594
C   20   6    -4.37372924086464    -2.09766595989678     7.93610724222001
C   21   6    -0.83850430601230     0.06372213486173    10.33002307638377
H   22   1     0.38411922151109     1.74281358582432    10.27380136542181
H   23   1    -2.30980003007874     0.45460143924521    11.73986301809809
H   24   1     4.58527064644668    -5.38706904487420     5.36778158031719
H   25   1     5.54944938085014    -2.37631462192748     4.35398898413318
H   26   1     3.06633019150423    -3.94118377050688     2.75255466040884
H   27   1    -4.17727778763735     2.26573369139522     5.12914900961283
H   28   1    -1.52662344944051     3.68001877445626     6.59540397144508
H   29   1    -4.32916174397830     3.13643051467482     8.35225460090378
H   30   1    -5.32329548508442    -2.36691813602939     6.11583672749896
H   31   1    -5.77989366602257    -1.33896741843465     9.25748940450990
H   32   1    -3.79310905208926    -3.96389819310853     8.61386170102686
C   33   6    -1.01100794811226    -1.06331657314144     3.11929490449947
C   34   6     0.37686231036534    -0.33275864505552     1.09165013605873
H   35   1    -3.01671213906703    -1.40297922279997     2.77827895090944
C   36   6    -0.64382707979370    -0.11591880174385    -1.42063131251064
H   37   1     2.35569259782137     0.17174499283897     1.33641070251401
H   38   1    -2.63317482980319    -0.60229203511219    -1.66119700387645
C   39   6     2.53016326718275     0.74184279311179   -12.38477126217512
C   40   6     2.74761784180424    -0.97075180884473   -14.53576076061004
H   41   1     3.43489191747297     2.57981441042514   -12.56110828288274
O   42   8     3.86136937293188    -0.48701494751058   -16.49697984673750
H   43   1     1.79359090776017    -2.83108880557309   -14.27278208139205
[GTO]
1 0
 s    6 1.00
             3047.5249  0.0018347001629433
             457.36951    0.01403730124668
             103.94869   0.068842606114048
             29.210155    0.23218442062076
              9.286663    0.46794134155879
              3.163927    0.36231203217765
 s    3 1.00
             7.8682724   -0.11933240861517
             1.8812885   -0.16085421161283
             0.5442493     1.1434564825515
 s    1 1.00
             0.1687144                   1
 p    3 1.00
             7.8682724   0.068999095584993
             1.8812885    0.31642397975315
             0.5442493    0.74430825237435
 p    1 1.00
             0.1687144                   1
 d    1 1.00
                   0.8                   1

2 0
 s    3 1.00
             18.731137    0.03349459952309
             2.8253937    0.23472694665786
             0.6401217    0.81375731841339
 s    1 1.00
             0.1612778                   1

3 0
 s    6 1.00
             3047.5249  0.0018347001629433
             457.36951    0.01403730124668
             103.94869   0.068842606114048
             29.210155    0.23218442062076
              9.286663    0.46794134155879
              3.163927    0.36231203217765
 s    3 1.00
             7.8682724   -0.11933240861517
             1.8812885   -0.16085421161283
             0.5442493     1.1434564825515
 s    1 1.00
             0.1687144                   1
 p    3 1.00
             7.8682724   0.068999095584993
             1.8812885    0.31642397975315
             0.5442493    0.74430825237435
 p    1 1.00
             0.1687144                   1
 d    1 1.00
                   0.8                   1

4 0
 s    3 1.00
             18.731137    0.03349459952309
             2.8253937    0.23472694665786
             0.6401217    0.81375731841339
 s    1 1.00
             0.1612778                   1

5 0
 s    6 1.00
             3047.5249  0.0018347001629433
             457.36951    0.01403730124668
             103.94869   0.068842606114048
             29.210155    0.23218442062076
              9.286663    0.46794134155879
              3.163927    0.36231203217765
 s    3 1.00
             7.8682724   -0.11933240861517
             1.8812885   -0.16085421161283
             0.5442493     1.1434564825515
 s    1 1.00
             0.1687144                   1
 p    3 1.00
             7.8682724   0.068999095584993
             1.8812885    0.31642397975315
             0.5442493    0.74430825237435
 p    1 1.00
             0.1687144                   1
 d    1 1.00
                   0.8                   1

6 0
 s    3 1.00
             18.731137    0.03349459952309
             2.8253937    0.23472694665786
             0.6401217    0.81375731841339
 s    1 1.00
             0.1612778                   1

7 0
 s    6 1.00
             3047.5249  0.0018347001629433
             457.36951    0.01403730124668
             103.94869   0.068842606114048
             29.210155    0.23218442062076
              9.286663    0.46794134155879
              3.163927    0.36231203217765
 s    3 1.00
             7.8682724   -0.11933240861517
             1.8812885   -0.16085421161283
             0.5442493     1.1434564825515
 s    1 1.00
             0.1687144                   1
 p    3 1.00
             7.8682724   0.068999095584993
             1.8812885    0.31642397975315
             0.5442493    0.74430825237435
 p    1 1.00
             0.1687144                   1
 d    1 1.00
                   0.8                   1

8 0
 s    3 1.00
             18.731137    0.03349459952309
             2.8253937    0.23472694665786
             0.6401217    0.81375731841339
 s    1 1.00
             0.1612778                   1

9 0
 s    3 1.00
             18.731137    0.03349459952309
             2.8253937    0.23472694665786
             0.6401217    0.81375731841339
 s    1 1.00
             0.1612778                   1

10 0
 s    6 1.00
             3047.5249  0.0018347001629433
             457.36951    0.01403730124668
             103.94869   0.068842606114048
             29.210155    0.23218442062076
              9.286663    0.46794134155879
              3.163927    0.36231203217765
 s    3 1.00
             7.8682724   -0.11933240861517
             1.8812885   -0.16085421161283
             0.5442493     1.1434564825515
 s    1 1.00
             0.1687144                   1
 p    3 1.00
             7.8682724   0.068999095584993
             1.8812885    0.31642397975315
             0.5442493    0.74430825237435
 p    1 1.00
             0.1687144                   1
 d    1 1.00
                   0.8                   1

11 0
 s    3 1.00
             18.731137    0.03349459952309
             2.8253937    0.23472694665786
             0.6401217    0.81375731841339
 s    1 1.00
             0.1612778                   1

12 0
 s    6 1.00
             3047.5249  0.0018347001629433
             457.36951    0.01403730124668
             103.94869   0.068842606114048
             29.210155    0.23218442062076
              9.286663    0.46794134155879
              3.163927    0.36231203217765
 s    3 1.00
             7.8682724   -0.11933240861517
             1.8812885   -0.16085421161283
             0.5442493     1.1434564825515
 s    1 1.00
             0.1687144                   1
 p    3 1.00
             7.8682724   0.068999095584993
             1.8812885    0.31642397975315
             0.5442493    0.74430825237435
 p    1 1.00
             0.1687144                   1
 d    1 1.00
                   0.8                   1

13 0
 s    3 1.00
             18.731137    0.03349459952309
             2.8253937    0.23472694665786
             0.6401217    0.81375731841339
 s    1 1.00
             0.1612778                   1

14 0
 s    3 1.00
             18.731137    0.03349459952309
             2.8253937    0.23472694665786
             0.6401217    0.81375731841339
 s    1 1.00
             0.1612778                   1

15 0
 s    6 1.00
             3047.5249  0.0018347001629433
             457.36951    0.01403730124668
             103.94869   0.068842606114048
             29.210155    0.23218442062076
              9.286663    0.46794134155879
              3.163927    0.36231203217765
 s    3 1.00
             7.8682724   -0.11933240861517
             1.8812885   -0.16085421161283
             0.5442493     1.1434564825515
 s    1 1.00
             0.1687144                   1
 p    3 1.00
             7.8682724   0.068999095584993
             1.8812885    0.31642397975315
             0.5442493    0.74430825237435
 p    1 1.00
             0.1687144                   1
 d    1 1.00
                   0.8                   1

16 0
 s    6 1.00
             3047.5249  0.0018347001629433
             457.36951    0.01403730124668
             103.94869   0.068842606114048
             29.210155    0.23218442062076
              9.286663    0.46794134155879
              3.163927    0.36231203217765
 s    3 1.00
             7.8682724   -0.11933240861517
             1.8812885   -0.16085421161283
             0.5442493     1.1434564825515
 s    1 1.00
             0.1687144                   1
 p    3 1.00
             7.8682724   0.068999095584993
             1.8812885    0.31642397975315
             0.5442493    0.74430825237435
 p    1 1.00
             0.1687144                   1
 d    1 1.00
                   0.8                   1

17 0
 s    6 1.00
             3047.5249  0.0018347001629433
             457.36951    0.01403730124668
             103.94869   0.068842606114048
             29.210155    0.23218442062076
              9.286663    0.46794134155879
              3.163927    0.36231203217765
 s    3 1.00
             7.8682724   -0.11933240861517
             1.8812885   -0.16085421161283
             0.5442493     1.1434564825515
 s    1 1.00
             0.1687144                   1
 p    3 1.00
             7.8682724   0.068999095584993
             1.8812885    0.31642397975315
             0.5442493    0.74430825237435
 p    1 1.00
             0.1687144                   1
 d    1 1.00
                   0.8                   1

18 0
 s    6 1.00
             3047.5249  0.0018347001629433
             457.36951    0.01403730124668
             103.94869   0.068842606114048
             29.210155    0.23218442062076
              9.286663    0.46794134155879
              3.163927    0.36231203217765
 s    3 1.00
             7.8682724   -0.11933240861517
             1.8812885   -0.16085421161283
             0.5442493     1.1434564825515
 s    1 1.00
             0.1687144                   1
 p    3 1.00
             7.8682724   0.068999095584993
             1.8812885    0.31642397975315
             0.5442493    0.74430825237435
 p    1 1.00
             0.1687144                   1
 d    1 1.00
                   0.8                   1

19 0
 s    6 1.00
             3047.5249  0.0018347001629433
             457.36951    0.01403730124668
             103.94869   0.068842606114048
             29.210155    0.23218442062076
              9.286663    0.46794134155879
              3.163927    0.36231203217765
 s    3 1.00
             7.8682724   -0.11933240861517
             1.8812885   -0.16085421161283
             0.5442493     1.1434564825515
 s    1 1.00
             0.1687144                   1
 p    3 1.00
             7.8682724   0.068999095584993
             1.8812885    0.31642397975315
             0.5442493    0.74430825237435
 p    1 1.00
             0.1687144                   1
 d    1 1.00
                   0.8                   1

20 0
 s    6 1.00
             3047.5249  0.0018347001629433
             457.36951    0.01403730124668
             103.94869   0.068842606114048
             29.210155    0.23218442062076
              9.286663    0.46794134155879
              3.163927    0.36231203217765
 s    3 1.00
             7.8682724   -0.11933240861517
             1.8812885   -0.16085421161283
             0.5442493     1.1434564825515
 s    1 1.00
             0.1687144                   1
 p    3 1.00
             7.8682724   0.068999095584993
             1.8812885    0.31642397975315
             0.5442493    0.74430825237435
 p    1 1.00
             0.1687144                   1
 d    1 1.00
                   0.8                   1

21 0
 s    6 1.00
             3047.5249  0.0018347001629433
             457.36951    0.01403730124668
             103.94869   0.068842606114048
             29.210155    0.23218442062076
              9.286663    0.46794134155879
              3.163927    0.36231203217765
 s    3 1.00
             7.8682724   -0.11933240861517
             1.8812885   -0.16085421161283
             0.5442493     1.1434564825515
 s    1 1.00
             0.1687144                   1
 p    3 1.00
             7.8682724   0.068999095584993
             1.8812885    0.31642397975315
             0.5442493    0.74430825237435
 p    1 1.00
             0.1687144                   1
 d    1 1.00
                   0.8                   1

22 0
 s    3 1.00
             18.731137    0.03349459952309
             2.8253937    0.23472694665786
             0.6401217    0.81375731841339
 s    1 1.00
             0.1612778                   1

23 0
 s    3 1.00
             18.731137    0.03349459952309
             2.8253937    0.23472694665786
             0.6401217    0.81375731841339
 s    1 1.00
             0.1612778                   1

24 0
 s    3 1.00
             18.731137    0.03349459952309
             2.8253937    0.23472694665786
             0.6401217    0.81375731841339
 s    1 1.00
             0.1612778                   1

25 0
 s    3 1.00
             18.731137    0.03349459952309
             2.8253937    0.23472694665786
             0.6401217    0.81375731841339
 s    1 1.00
             0.1612778                   1

26 0
 s    3 1.00
             18.731137    0.03349459952309
             2.8253937    0.23472694665786
             0.6401217    0.81375731841339
 s    1 1.00
             0.1612778                   1

27 0
 s    3 1.00
             18.731137    0.03349459952309
             2.8253937    0.23472694665786
             0.6401217    0.81375731841339
 s    1 1.00
             0.1612778                   1

28 0
 s    3 1.00
             18.731137    0.03349459952309
             2.8253937    0.23472694665786
             0.6401217    0.81375731841339
 s    1 1.00
             0.1612778                   1

29 0
 s    3 1.00
             18.731137    0.03349459952309
             2.8253937    0.23472694665786
             0.6401217    0.81375731841339
 s    1 1.00
             0.1612778                   1

30 0
 s    3 1.00
             18.731137    0.03349459952309
             2.8253937    0.23472694665786
             0.6401217    0.81375731841339
 s    1 1.00
             0.1612778                   1

31 0
 s    3 1.00
             18.731137    0.03349459952309
             2.8253937    0.23472694665786
             0.6401217    0.81375731841339
 s    1 1.00
             0.1612778                   1

32 0
 s    3 1.00
             18.731137    0.03349459952309
             2.8253937    0.23472694665786
             0.6401217    0.81375731841339
 s    1 1.00
             0.1612778                   1

33 0
 s    6 1.00
             3047.5249  0.0018347001629433
             457.36951    0.01403730124668
             103.94869   0.068842606114048
             29.210155    0.23218442062076
              9.286663    0.46794134155879
              3.163927    0.36231203217765
 s    3 1.00
             7.8682724   -0.11933240861517
             1.8812885   -0.16085421161283
             0.5442493     1.1434564825515
 s    1 1.00
             0.1687144                   1
 p    3 1.00
             7.8682724   0.068999095584993
             1.8812885    0.31642397975315
             0.5442493    0.74430825237435
 p    1 1.00
             0.1687144                   1
 d    1 1.00
                   0.8                   1

34 0
 s    6 1.00
             3047.5249  0.0018347001629433
             457.36951    0.01403730124668
             103.94869   0.068842606114048
             29.210155    0.23218442062076
              9.286663    0.46794134155879
              3.163927    0.36231203217765
 s    3 1.00
             7.8682724   -0.11933240861517
             1.8812885   -0.16085421161283
             0.5442493     1.1434564825515
 s    1 1.00
             0.1687144                   1
 p    3 1.00
             7.8682724   0.068999095584993
             1.8812885    0.31642397975315
             0.5442493    0.74430825237435
 p    1 1.00
             0.1687144                   1
 d    1 1.00
                   0.8                   1

35 0
 s    3 1.00
             18.731137    0.03349459952309
             2.8253937    0.23472694665786
             0.6401217    0.81375731841339
 s    1 1.00
             0.1612778                   1

36 0
 s    6 1.00
             3047.5249  0.0018347001629433
             457.36951    0.01403730124668
             103.94869   0.068842606114048
             29.210155    0.23218442062076
              9.286663    0.46794134155879
              3.163927    0.36231203217765
 s    3 1.00
             7.8682724   -0.11933240861517
             1.8812885   -0.16085421161283
             0.5442493     1.1434564825515
 s    1 1.00
             0.1687144                   1
 p    3 1.00
             7.8682724   0.068999095584993
             1.8812885    0.31642397975315
             0.5442493    0.74430825237435
 p    1 1.00
             0.1687144                   1
 d    1 1.00
                   0.8                   1

37 0
 s    3 1.00
             18.731137    0.03349459952309
             2.8253937    0.23472694665786
             0.6401217    0.81375731841339
 s    1 1.00
             0.1612778                   1

38 0
 s    3 1.00
             18.731137    0.03349459952309
             2.8253937    0.23472694665786
             0.6401217    0.81375731841339
 s    1 1.00
             0.1612778                   1

39 0
 s    6 1.00
             3047.5249  0.0018347001629433
             457.36951    0.01403730124668
             103.94869   0.068842606114048
             29.210155    0.23218442062076
              9.286663    0.46794134155879
              3.163927    0.36231203217765
 s    3 1.00
             7.8682724   -0.11933240861517
             1.8812885   -0.16085421161283
             0.5442493     1.1434564825515
 s    1 1.00
             0.1687144                   1
 p    3 1.00
             7.8682724   0.068999095584993
             1.8812885    0.31642397975315
             0.5442493    0.74430825237435
 p    1 1.00
             0.1687144                   1
 d    1 1.00
                   0.8                   1

40 0
 s    6 1.00
             3047.5249  0.0018347001629433
             457.36951    0.01403730124668
             103.94869   0.068842606114048
             29.210155    0.23218442062076
              9.286663    0.46794134155879
              3.163927    0.36231203217765
 s    3 1.00
             7.8682724   -0.11933240861517
             1.8812885   -0.16085421161283
             0.5442493     1.1434564825515
 s    1 1.00
             0.1687144                   1
 p    3 1.00
             7.8682724   0.068999095584993
             1.8812885    0.31642397975315
             0.5442493    0.74430825237435
 p    1 1.00
             0.1687144                   1
 d    1 1.00
                   0.8                   1

41 0
 s    3 1.00
             18.731137    0.03349459952309
             2.8253937    0.23472694665786
             0.6401217    0.81375731841339
 s    1 1.00
             0.1612778                   1

42 0
 s    6 1.00
             5484.6717   0.001831099805527
             825.23495   0.013950098518422
             188.04696    0.06844509273075
               52.9645    0.23271427528445
              16.89757    0.47019295006289
             5.7996353    0.35852086192309
 s    3 1.00
             15.539616   -0.11077750382508
             3.5999336   -0.14802630511126
             1.0137618     1.1307670390447
 s    1 1.00
             0.2700058                   1
 p    3 1.00
             15.539616   0.070874299543311
             3.5999336    0.33975279781076
             1.0137618    0.72715859531445
 p    1 1.00
             0.2700058                   1
 d    1 1.00
                   0.8                   1

43 0
 s    3 1.00
             18.731137    0.03349459952309
             2.8253937    0.23472694665786
             0.6401217    0.81375731841339
 s    1 1.00
             0.1612778                   1

[5d]
[7f]
[9g]

[MO]
 Sym= A
 Ene=               0
 Spin= Alpha
 Occup=    1.00000
   1     0.019938616519785
   2    -0.00016230774825498
   3    0.0036327269145237
   4    9.120225981941e-05
   5    1.1206957324121e-05
   6    0.0003495315707316
   7    0.00034158389635268
   8    0.00039340021718034
   9    -0.0021589808444561
  10    -0.00035706990637377
  11    -0.00033756666086187
  12    4.6482881272113e-05
  13    -0.00012224112249416
  14    -1.1996449496711e-05
  15    -0.00017764328069313
  16    -0.00040815503458529
  17      0.99569655703649
  18     0.024892734144739
  19    -0.015090995457519
  20    0.00029332946506941
  21    2.5190998282109e-05
  22    -9.8931222232678e-05
  23    -0.0014924262001051
  24    -0.00046059312832886
  25    -0.00022243241048873
  26    0.00052624880128219
  27    -0.00011749271173877
  28    -0.00024133514212375
  29    0.00029901766223582
  30    0.00018907658055551
  31    -0.00026841563247667
  32    0.0021951500844198
  33     0.023163948073169
  34    0.00025259603701723
  35    0.0015251442044184
  36    0.00023485451964405
  37    5.2539968595997e-05
  38    -0.000313876868579
  39    -0.00050888913310907
  40    0.0012161248302048
  41    0.0025984005812529
  42    -0.00019931678577376
  43    0.00029415952098245
  44    5.9332280561462e-05
  45    -0.00012398550029356
  46    -0.00019563427595708
  47    -0.00023342087079947
  48    -0.00030480335318782
  49    0.0020271365181515
  50    -0.00018490711687609
  51    0.00026224751088729
  52    2.3856802220765e-05
  53    3.0130238720081e-05
  54    -0.00020322001439771
  55    -0.0011042882924124
  56    0.00025898652953126
  57    0.0032149268823752
  58    1.9854940133511e-05
  59    4.438925989661e-07
  60    0.00010994736397941
  61    -6.9590697960098e-05
  62    7.1159200372509e-06
  63    -0.00020462349719484
  64    2.9458224444354e-05
  65    -1.7142200208451e-06
  66    -2.7368162177396e-06
  67    6.151215016596e-07
  68    -1.786167206076e-06
  69    1.3977115219187e-06
  70    7.5702747973047e-07
  71    -2.1660435517368e-06
  72    9.8730886018766e-07
  73    2.1388331666083e-06
  74    1.0004211624066e-05
  75    2.3819744684945e-06
  76    -3.6887707806794e-07
  77    -3.0647323794975e-07
  78    3.0079256966538e-07
  79    2.1448450341044e-07
  80    -2.4712691794673e-08
  81    1.0555001394679e-06
  82    6.2755653043873e-06
  83    1.0509057634764e-06
  84    -1.6645665283621e-06
  85    -2.7965644601056e-05
  86    5.6933448609184e-06
  87    1.1573850096994e-06
  88    8.8760306861513e-06
  89    1.1712666303245e-05
  90    -2.3350433227975e-05
  91    9.6962789659794e-06
  92    2.0967802469799e-07
  93    -5.6076451185669e-07
  94    1.6710703797938e-06
  95    3.5960761324353e-08
  96    -9.5475338291405e-08
  97    6.277198762087e-06
  98    1.118173582813e-05
  99    -7.6211654665696e-07
 100    -7.5496268354298e-06
 101    -2.4363040107487e-06
 102    -2.8537089057806e-06
 103    7.8362480017146e-05
 104    -1.1795791262493e-05
 105    -1.2844453710593e-05
 106    -1.8216471161756e-06
 107    -7.9176376338926e-05
 108    5.3664349643103e-05
 109    5.3010207887123e-05
 110    -3.656240890706e-06
 111    -2.2867400696783e-06
 112    9.9386188172919e-07
 113    1.9959901668393e-06
 114    -2.1696666832977e-06
 115    -3.6172934401247e-06
 116    -1.0241932716249e-05
 117    0.00010322654085568
 118    -2.8444880783663e-06
 119    6.1712424093721e-06
 120    3.4965386890379e-06
 121    -2.1762277544719e-05
 122    8.5136657841089e-06
 123    1.1290970301465e-05
 124    2.6556035398033e-07
 125    -1.0564975558517e-06
 126    -1.226243030724e-06
 127    6.1196185936538e-07
 128    -3.5995374097682e-07
 129    8.111473540365e-06
 130    -3.9497747581736e-05
 131    1.6814857454676e-05
 132    1.0407152549359e-05
 133    -3.8695127779849e-06
 134    7.1615702763167e-05
 135    -0.00011635250008695
 136    1.5608391998437e-05
 137    -0.00012032349268034
 138    5.3321113556565e-06
 139    -1.6040801641686e-07
 140    7.0059150238632e-07
 141    7.7364715921098e-07
 142    1.2068091171089e-06
 143    -7.7217825893316e-06
 144    5.5293387508449e-06
 145    4.2753600519764e-05
 146    1.5634705695742e-05
 147    -8.5079253844321e-06
 148    -2.1996736340325e-05
 149    2.4090115249082e-05
 150    -2.7275266974622e-05
 151    -2.2839289829005e-05
 152    -4.6496245232129e-06
 153    -2.6840674668784e-06
 154    -3.5056063689648e-07
 155    2.2727487506749e-06
 156    -2.346168078883e-06
 157    -3.6215450214807e-07
 158    4.3750657914156e-06
 159    6.5163363774763e-06
 160    3.0659791036656e-06
 161    -2.8603053174749e-06
 162    2.6430787215277e-06
 163    -1.6187242146104e-05
 164    1.5269748992419e-06
 165    5.4589843114742e-06
 166    6.2310233213514e-07
 167    -4.4333284635777e-07
 168    2.4671292621459e-07
 169    -1.7859902088141e-07
 170    -1.0404167112561e-07
 171    -9.7110885349703e-07
 172    -4.4304948116213e-06
 173    1.0564679302338e-05
 174    -9.8351445275899e-07
 175    1.4216561505049e-06
 176    3.8163675558514e-06
 177    -1.2161538669768e-05
 178    -1.2425387802962e-06
 179    -1.7023251027916e-05
 180    5.1906315610302e-07
 181    5.8608993303301e-07
 182    -1.2159727648456e-07
 183    -2.5119786112792e-07
 184    2.2590918089228e-07
 185    1.4565767067752e-06
 186    -1.4039367404419e-05
 187    3.8683850904252e-06
 188    2.8806585315362e-06
 189    3.0302901703338e-06
 190    1.4888850220566e-05
 191    4.6868493294046e-06
 192    3.4273610675937e-06
 193    -1.0350794266771e-05
 194    1.6343740487341e-06
 195    -7.2189760659116e-07
 196    8.2177211021416e-07
 197    -2.4095482287953e-07
 198    -2.5783893062996e-08
 199    -2.3039682256525e-06
 200    -8.0633843712441e-07
 201    4.0750395769651e-06
 202    1.7136959190322e-05
 203    -6.8686282675404e-06
 204    -6.0584437568146e-06
 205    2.7288049324358e-06
 206    -5.1190467808235e-06
 207    4.531455355757e-06
 208    -3.506755813382e-05
 209    6.5490212340814e-07
 210    -1.4841828011579e-05
 211    8.708098941445e-07
 212    3.7286000795504e-06
 213    1.8227978623305e-06
 214    -3.7831788289999e-06
 215    -1.6932945948866e-06
 216    -2.9936837667475e-05
 217    2.5845387182261e-06
 218    7.4958000230317e-06
 219    -8.2866168206213e-07
 220    1.1030802115045e-06
 221    -7.7369537933831e-05
 222    0.0001206477834132
 223    0.00039455527331628
 224    9.8757281876368e-05
 225    5.8076151552684e-05
 226    -0.00019374056270966
 227    0.00030516203258884
 228    0.00012727426449525
 229    -0.00036426702887547
 230    -3.4576956070407e-06
 231    -1.968659428103e-05
 232    -8.116701255962e-06
 233    1.0963522541216e-05
 234    1.0889176538745e-05
 235    0.00013655002445571
 236    -0.00028956209323935
 237    -1.5994674697537e-05
 238    -0.00018118368291794
 239    -0.00013932441147395
 240    0.00049247467963695
 241    1.151623779815e-05
 242    7.9490250428026e-05
 243    -0.00054159035170483
 244    2.8379628337289e-06
 245    -4.9482477484881e-06
 246    1.6190388939797e-06
 247    -6.2519847577357e-06
 248    9.8093374293427e-07
 249    -8.5099694452844e-07
 250    0.00013625248935464
 251    -0.00031452389529684
 252    -0.00018444335766909
 253    0.00053073818285778
 254    -0.00050219998579733
 255    -9.0649965372074e-05
 256    -0.00027922299597264
 257    -0.00059358697521881
 258    0.00011541496094726
 259    -0.00094556798340559
 260    -2.5448494384663e-05
 261    -1.592680069295e-05
 262    -1.5617773043982e-05
 263    6.0357628305277e-05
 264    4.7990967134913e-05
 265    -0.00020248725449343
 266    2.147760467212e-05
 267    0.00028189693506729
 268    -8.6505619147103e-05
 269    2.0951328134826e-05
 270    -0.00018825114272976
 271    0.0025912964258931
 272    -3.6411178423393e-05
 273    -0.00018774543362173
 274    -4.3599748023785e-05
 275    -0.0010172083981506
 276    -0.0010101244218471
 277    0.00087435770818114
 278    3.9461748655779e-05
 279    -6.5500981981789e-05
 280    5.2544168119138e-06