[Molden Format]
made by pyscf v[2.0.1]
[Atoms] (AU)
C   1   6     0.69100024066471     0.64692934207205    -3.48223131169301
H   2   1     2.68052439830868     1.13355088658700    -3.25784032593313
C   3   6    -0.36286361513219     0.85440132524594    -5.97030179418974
H   4   1    -2.35448549047279     0.36322488579172    -6.17995817793143
C   5   6     0.93697958957450     1.61209284601821    -8.05828437677121
H   6   1     0.50725181311820     3.44287068169954    -8.89764684313250
C   7   6     2.86970100877903     0.12057508237944    -9.23991306333710
H   8   1     3.28022106466413    -1.70875314533660    -8.37692190559989
H   9   1     1.55630230933075    -1.92953025305990    12.99630010416247
C   10   6     0.75233899775814    -2.21270439606481    11.10705728102219
H   11   1    -0.43433408177274    -3.90944857546550    11.22216085340412
C   12   6     2.86362581178706    -2.63237380607947     9.17926416456045
H   13   1     4.39038949912609    -1.24955421540245     9.49899813497433
H   14   1     3.74629220191363    -4.48798724300892     9.47414880959024
C   15   6     2.02478325613682    -2.42177285709634     6.44560829588644
C   16   6     3.88048732735477    -3.58795445234514     4.61402886975252
C   17   6    -0.18412382258602    -1.30464291234259     5.76021113872346
C   18   6    -2.10044360464350    -0.26837831858460     7.71610340967100
C   19   6    -3.08956938670431     2.35282328359417     6.88693925039594
C   20   6    -4.37372924086464    -2.09766595989678     7.93610724222001
C   21   6    -0.83850430601230     0.06372213486173    10.33002307638377
H   22   1     0.38411922151109     1.74281358582432    10.27380136542181
H   23   1    -2.30980003007874     0.45460143924521    11.73986301809809
H   24   1     4.58527064644668    -5.38706904487420     5.36778158031719
H   25   1     5.54944938085014    -2.37631462192748     4.35398898413318
H   26   1     3.06633019150423    -3.94118377050688     2.75255466040884
H   27   1    -4.17727778763735     2.26573369139522     5.12914900961283
H   28   1    -1.52662344944051     3.68001877445626     6.59540397144508
H   29   1    -4.32916174397830     3.13643051467482     8.35225460090378
H   30   1    -5.32329548508442    -2.36691813602939     6.11583672749896
H   31   1    -5.77989366602257    -1.33896741843465     9.25748940450990
H   32   1    -3.79310905208926    -3.96389819310853     8.61386170102686
C   33   6    -1.01100794811226    -1.06331657314144     3.11929490449947
C   34   6     0.37686231036534    -0.33275864505552     1.09165013605873
H   35   1    -3.01671213906703    -1.40297922279997     2.77827895090944
C   36   6    -0.64382707979370    -0.11591880174385    -1.42063131251064
H   37   1     2.35569259782137     0.17174499283897     1.33641070251401
H   38   1    -2.63317482980319    -0.60229203511219    -1.66119700387645
C   39   6     4.20991814769739     0.79575668965015   -11.31949989075694
C   40   6     6.14288813089389    -0.86010693489370   -12.38193355267250
H   41   1     3.89481568247576     2.59125541029260   -12.27063769452772
O   42   8     7.41472391465697    -0.37430332261595   -14.24398959848541
H   43   1     6.40229959564941    -2.67780216203268   -11.34807250251721
[GTO]
1 0
 s    6 1.00
             3047.5249  0.0018347001629433
             457.36951    0.01403730124668
             103.94869   0.068842606114048
             29.210155    0.23218442062076
              9.286663    0.46794134155879
              3.163927    0.36231203217765
 s    3 1.00
             7.8682724   -0.11933240861517
             1.8812885   -0.16085421161283
             0.5442493     1.1434564825515
 s    1 1.00
             0.1687144                   1
 p    3 1.00
             7.8682724   0.068999095584993
             1.8812885    0.31642397975315
             0.5442493    0.74430825237435
 p    1 1.00
             0.1687144                   1
 d    1 1.00
                   0.8                   1

2 0
 s    3 1.00
             18.731137    0.03349459952309
             2.8253937    0.23472694665786
             0.6401217    0.81375731841339
 s    1 1.00
             0.1612778                   1

3 0
 s    6 1.00
             3047.5249  0.0018347001629433
             457.36951    0.01403730124668
             103.94869   0.068842606114048
             29.210155    0.23218442062076
              9.286663    0.46794134155879
              3.163927    0.36231203217765
 s    3 1.00
             7.8682724   -0.11933240861517
             1.8812885   -0.16085421161283
             0.5442493     1.1434564825515
 s    1 1.00
             0.1687144                   1
 p    3 1.00
             7.8682724   0.068999095584993
             1.8812885    0.31642397975315
             0.5442493    0.74430825237435
 p    1 1.00
             0.1687144                   1
 d    1 1.00
                   0.8                   1

4 0
 s    3 1.00
             18.731137    0.03349459952309
             2.8253937    0.23472694665786
             0.6401217    0.81375731841339
 s    1 1.00
             0.1612778                   1

5 0
 s    6 1.00
             3047.5249  0.0018347001629433
             457.36951    0.01403730124668
             103.94869   0.068842606114048
             29.210155    0.23218442062076
              9.286663    0.46794134155879
              3.163927    0.36231203217765
 s    3 1.00
             7.8682724   -0.11933240861517
             1.8812885   -0.16085421161283
             0.5442493     1.1434564825515
 s    1 1.00
             0.1687144                   1
 p    3 1.00
             7.8682724   0.068999095584993
             1.8812885    0.31642397975315
             0.5442493    0.74430825237435
 p    1 1.00
             0.1687144                   1
 d    1 1.00
                   0.8                   1

6 0
 s    3 1.00
             18.731137    0.03349459952309
             2.8253937    0.23472694665786
             0.6401217    0.81375731841339
 s    1 1.00
             0.1612778                   1

7 0
 s    6 1.00
             3047.5249  0.0018347001629433
             457.36951    0.01403730124668
             103.94869   0.068842606114048
             29.210155    0.23218442062076
              9.286663    0.46794134155879
              3.163927    0.36231203217765
 s    3 1.00
             7.8682724   -0.11933240861517
             1.8812885   -0.16085421161283
             0.5442493     1.1434564825515
 s    1 1.00
             0.1687144                   1
 p    3 1.00
             7.8682724   0.068999095584993
             1.8812885    0.31642397975315
             0.5442493    0.74430825237435
 p    1 1.00
             0.1687144                   1
 d    1 1.00
                   0.8                   1

8 0
 s    3 1.00
             18.731137    0.03349459952309
             2.8253937    0.23472694665786
             0.6401217    0.81375731841339
 s    1 1.00
             0.1612778                   1

9 0
 s    3 1.00
             18.731137    0.03349459952309
             2.8253937    0.23472694665786
             0.6401217    0.81375731841339
 s    1 1.00
             0.1612778                   1

10 0
 s    6 1.00
             3047.5249  0.0018347001629433
             457.36951    0.01403730124668
             103.94869   0.068842606114048
             29.210155    0.23218442062076
              9.286663    0.46794134155879
              3.163927    0.36231203217765
 s    3 1.00
             7.8682724   -0.11933240861517
             1.8812885   -0.16085421161283
             0.5442493     1.1434564825515
 s    1 1.00
             0.1687144                   1
 p    3 1.00
             7.8682724   0.068999095584993
             1.8812885    0.31642397975315
             0.5442493    0.74430825237435
 p    1 1.00
             0.1687144                   1
 d    1 1.00
                   0.8                   1

11 0
 s    3 1.00
             18.731137    0.03349459952309
             2.8253937    0.23472694665786
             0.6401217    0.81375731841339
 s    1 1.00
             0.1612778                   1

12 0
 s    6 1.00
             3047.5249  0.0018347001629433
             457.36951    0.01403730124668
             103.94869   0.068842606114048
             29.210155    0.23218442062076
              9.286663    0.46794134155879
              3.163927    0.36231203217765
 s    3 1.00
             7.8682724   -0.11933240861517
             1.8812885   -0.16085421161283
             0.5442493     1.1434564825515
 s    1 1.00
             0.1687144                   1
 p    3 1.00
             7.8682724   0.068999095584993
             1.8812885    0.31642397975315
             0.5442493    0.74430825237435
 p    1 1.00
             0.1687144                   1
 d    1 1.00
                   0.8                   1

13 0
 s    3 1.00
             18.731137    0.03349459952309
             2.8253937    0.23472694665786
             0.6401217    0.81375731841339
 s    1 1.00
             0.1612778                   1

14 0
 s    3 1.00
             18.731137    0.03349459952309
             2.8253937    0.23472694665786
             0.6401217    0.81375731841339
 s    1 1.00
             0.1612778                   1

15 0
 s    6 1.00
             3047.5249  0.0018347001629433
             457.36951    0.01403730124668
             103.94869   0.068842606114048
             29.210155    0.23218442062076
              9.286663    0.46794134155879
              3.163927    0.36231203217765
 s    3 1.00
             7.8682724   -0.11933240861517
             1.8812885   -0.16085421161283
             0.5442493     1.1434564825515
 s    1 1.00
             0.1687144                   1
 p    3 1.00
             7.8682724   0.068999095584993
             1.8812885    0.31642397975315
             0.5442493    0.74430825237435
 p    1 1.00
             0.1687144                   1
 d    1 1.00
                   0.8                   1

16 0
 s    6 1.00
             3047.5249  0.0018347001629433
             457.36951    0.01403730124668
             103.94869   0.068842606114048
             29.210155    0.23218442062076
              9.286663    0.46794134155879
              3.163927    0.36231203217765
 s    3 1.00
             7.8682724   -0.11933240861517
             1.8812885   -0.16085421161283
             0.5442493     1.1434564825515
 s    1 1.00
             0.1687144                   1
 p    3 1.00
             7.8682724   0.068999095584993
             1.8812885    0.31642397975315
             0.5442493    0.74430825237435
 p    1 1.00
             0.1687144                   1
 d    1 1.00
                   0.8                   1

17 0
 s    6 1.00
             3047.5249  0.0018347001629433
             457.36951    0.01403730124668
             103.94869   0.068842606114048
             29.210155    0.23218442062076
              9.286663    0.46794134155879
              3.163927    0.36231203217765
 s    3 1.00
             7.8682724   -0.11933240861517
             1.8812885   -0.16085421161283
             0.5442493     1.1434564825515
 s    1 1.00
             0.1687144                   1
 p    3 1.00
             7.8682724   0.068999095584993
             1.8812885    0.31642397975315
             0.5442493    0.74430825237435
 p    1 1.00
             0.1687144                   1
 d    1 1.00
                   0.8                   1

18 0
 s    6 1.00
             3047.5249  0.0018347001629433
             457.36951    0.01403730124668
             103.94869   0.068842606114048
             29.210155    0.23218442062076
              9.286663    0.46794134155879
              3.163927    0.36231203217765
 s    3 1.00
             7.8682724   -0.11933240861517
             1.8812885   -0.16085421161283
             0.5442493     1.1434564825515
 s    1 1.00
             0.1687144                   1
 p    3 1.00
             7.8682724   0.068999095584993
             1.8812885    0.31642397975315
             0.5442493    0.74430825237435
 p    1 1.00
             0.1687144                   1
 d    1 1.00
                   0.8                   1

19 0
 s    6 1.00
             3047.5249  0.0018347001629433
             457.36951    0.01403730124668
             103.94869   0.068842606114048
             29.210155    0.23218442062076
              9.286663    0.46794134155879
              3.163927    0.36231203217765
 s    3 1.00
             7.8682724   -0.11933240861517
             1.8812885   -0.16085421161283
             0.5442493     1.1434564825515
 s    1 1.00
             0.1687144                   1
 p    3 1.00
             7.8682724   0.068999095584993
             1.8812885    0.31642397975315
             0.5442493    0.74430825237435
 p    1 1.00
             0.1687144                   1
 d    1 1.00
                   0.8                   1

20 0
 s    6 1.00
             3047.5249  0.0018347001629433
             457.36951    0.01403730124668
             103.94869   0.068842606114048
             29.210155    0.23218442062076
              9.286663    0.46794134155879
              3.163927    0.36231203217765
 s    3 1.00
             7.8682724   -0.11933240861517
             1.8812885   -0.16085421161283
             0.5442493     1.1434564825515
 s    1 1.00
             0.1687144                   1
 p    3 1.00
             7.8682724   0.068999095584993
             1.8812885    0.31642397975315
             0.5442493    0.74430825237435
 p    1 1.00
             0.1687144                   1
 d    1 1.00
                   0.8                   1

21 0
 s    6 1.00
             3047.5249  0.0018347001629433
             457.36951    0.01403730124668
             103.94869   0.068842606114048
             29.210155    0.23218442062076
              9.286663    0.46794134155879
              3.163927    0.36231203217765
 s    3 1.00
             7.8682724   -0.11933240861517
             1.8812885   -0.16085421161283
             0.5442493     1.1434564825515
 s    1 1.00
             0.1687144                   1
 p    3 1.00
             7.8682724   0.068999095584993
             1.8812885    0.31642397975315
             0.5442493    0.74430825237435
 p    1 1.00
             0.1687144                   1
 d    1 1.00
                   0.8                   1

22 0
 s    3 1.00
             18.731137    0.03349459952309
             2.8253937    0.23472694665786
             0.6401217    0.81375731841339
 s    1 1.00
             0.1612778                   1

23 0
 s    3 1.00
             18.731137    0.03349459952309
             2.8253937    0.23472694665786
             0.6401217    0.81375731841339
 s    1 1.00
             0.1612778                   1

24 0
 s    3 1.00
             18.731137    0.03349459952309
             2.8253937    0.23472694665786
             0.6401217    0.81375731841339
 s    1 1.00
             0.1612778                   1

25 0
 s    3 1.00
             18.731137    0.03349459952309
             2.8253937    0.23472694665786
             0.6401217    0.81375731841339
 s    1 1.00
             0.1612778                   1

26 0
 s    3 1.00
             18.731137    0.03349459952309
             2.8253937    0.23472694665786
             0.6401217    0.81375731841339
 s    1 1.00
             0.1612778                   1

27 0
 s    3 1.00
             18.731137    0.03349459952309
             2.8253937    0.23472694665786
             0.6401217    0.81375731841339
 s    1 1.00
             0.1612778                   1

28 0
 s    3 1.00
             18.731137    0.03349459952309
             2.8253937    0.23472694665786
             0.6401217    0.81375731841339
 s    1 1.00
             0.1612778                   1

29 0
 s    3 1.00
             18.731137    0.03349459952309
             2.8253937    0.23472694665786
             0.6401217    0.81375731841339
 s    1 1.00
             0.1612778                   1

30 0
 s    3 1.00
             18.731137    0.03349459952309
             2.8253937    0.23472694665786
             0.6401217    0.81375731841339
 s    1 1.00
             0.1612778                   1

31 0
 s    3 1.00
             18.731137    0.03349459952309
             2.8253937    0.23472694665786
             0.6401217    0.81375731841339
 s    1 1.00
             0.1612778                   1

32 0
 s    3 1.00
             18.731137    0.03349459952309
             2.8253937    0.23472694665786
             0.6401217    0.81375731841339
 s    1 1.00
             0.1612778                   1

33 0
 s    6 1.00
             3047.5249  0.0018347001629433
             457.36951    0.01403730124668
             103.94869   0.068842606114048
             29.210155    0.23218442062076
              9.286663    0.46794134155879
              3.163927    0.36231203217765
 s    3 1.00
             7.8682724   -0.11933240861517
             1.8812885   -0.16085421161283
             0.5442493     1.1434564825515
 s    1 1.00
             0.1687144                   1
 p    3 1.00
             7.8682724   0.068999095584993
             1.8812885    0.31642397975315
             0.5442493    0.74430825237435
 p    1 1.00
             0.1687144                   1
 d    1 1.00
                   0.8                   1

34 0
 s    6 1.00
             3047.5249  0.0018347001629433
             457.36951    0.01403730124668
             103.94869   0.068842606114048
             29.210155    0.23218442062076
              9.286663    0.46794134155879
              3.163927    0.36231203217765
 s    3 1.00
             7.8682724   -0.11933240861517
             1.8812885   -0.16085421161283
             0.5442493     1.1434564825515
 s    1 1.00
             0.1687144                   1
 p    3 1.00
             7.8682724   0.068999095584993
             1.8812885    0.31642397975315
             0.5442493    0.74430825237435
 p    1 1.00
             0.1687144                   1
 d    1 1.00
                   0.8                   1

35 0
 s    3 1.00
             18.731137    0.03349459952309
             2.8253937    0.23472694665786
             0.6401217    0.81375731841339
 s    1 1.00
             0.1612778                   1

36 0
 s    6 1.00
             3047.5249  0.0018347001629433
             457.36951    0.01403730124668
             103.94869   0.068842606114048
             29.210155    0.23218442062076
              9.286663    0.46794134155879
              3.163927    0.36231203217765
 s    3 1.00
             7.8682724   -0.11933240861517
             1.8812885   -0.16085421161283
             0.5442493     1.1434564825515
 s    1 1.00
             0.1687144                   1
 p    3 1.00
             7.8682724   0.068999095584993
             1.8812885    0.31642397975315
             0.5442493    0.74430825237435
 p    1 1.00
             0.1687144                   1
 d    1 1.00
                   0.8                   1

37 0
 s    3 1.00
             18.731137    0.03349459952309
             2.8253937    0.23472694665786
             0.6401217    0.81375731841339
 s    1 1.00
             0.1612778                   1

38 0
 s    3 1.00
             18.731137    0.03349459952309
             2.8253937    0.23472694665786
             0.6401217    0.81375731841339
 s    1 1.00
             0.1612778                   1

39 0
 s    6 1.00
             3047.5249  0.0018347001629433
             457.36951    0.01403730124668
             103.94869   0.068842606114048
             29.210155    0.23218442062076
              9.286663    0.46794134155879
              3.163927    0.36231203217765
 s    3 1.00
             7.8682724   -0.11933240861517
             1.8812885   -0.16085421161283
             0.5442493     1.1434564825515
 s    1 1.00
             0.1687144                   1
 p    3 1.00
             7.8682724   0.068999095584993
             1.8812885    0.31642397975315
             0.5442493    0.74430825237435
 p    1 1.00
             0.1687144                   1
 d    1 1.00
                   0.8                   1

40 0
 s    6 1.00
             3047.5249  0.0018347001629433
             457.36951    0.01403730124668
             103.94869   0.068842606114048
             29.210155    0.23218442062076
              9.286663    0.46794134155879
              3.163927    0.36231203217765
 s    3 1.00
             7.8682724   -0.11933240861517
             1.8812885   -0.16085421161283
             0.5442493     1.1434564825515
 s    1 1.00
             0.1687144                   1
 p    3 1.00
             7.8682724   0.068999095584993
             1.8812885    0.31642397975315
             0.5442493    0.74430825237435
 p    1 1.00
             0.1687144                   1
 d    1 1.00
                   0.8                   1

41 0
 s    3 1.00
             18.731137    0.03349459952309
             2.8253937    0.23472694665786
             0.6401217    0.81375731841339
 s    1 1.00
             0.1612778                   1

42 0
 s    6 1.00
             5484.6717   0.001831099805527
             825.23495   0.013950098518422
             188.04696    0.06844509273075
               52.9645    0.23271427528445
              16.89757    0.47019295006289
             5.7996353    0.35852086192309
 s    3 1.00
             15.539616   -0.11077750382508
             3.5999336   -0.14802630511126
             1.0137618     1.1307670390447
 s    1 1.00
             0.2700058                   1
 p    3 1.00
             15.539616   0.070874299543311
             3.5999336    0.33975279781076
             1.0137618    0.72715859531445
 p    1 1.00
             0.2700058                   1
 d    1 1.00
                   0.8                   1

43 0
 s    3 1.00
             18.731137    0.03349459952309
             2.8253937    0.23472694665786
             0.6401217    0.81375731841339
 s    1 1.00
             0.1612778                   1

[5d]
[7f]
[9g]

[MO]
 Sym= A
 Ene=               0
 Spin= Alpha
 Occup=    1.00000
   1    -0.018018675442906
   2    0.00021269737805642
   3    -0.0039658494434489
   4    -0.00011557096865568
   5    9.4419203560449e-05
   6    -0.00031345758089231
   7    -0.00029878146369151
   8    -0.00070935955417443
   9     0.002522911355251
  10    0.00031941330875702
  11     0.000344131217745
  12    -7.1984310214971e-05
  13    0.0001181286966412
  14    -9.8774709854032e-07
  15    0.00017520799104618
  16    0.00045175934447349
  17     -0.99588204763213
  18    -0.025013278435577
  19     0.015517594664729
  20    -0.00037999172592676
  21    -6.3682078843281e-05
  22    0.00010484775145413
  23    0.0017526943057352
  24    0.00056015745752339
  25    0.00042724989233263
  26    -0.00048812187742228
  27    0.00013932469396405
  28    0.00025625643843487
  29    -0.00032944757586091
  30    -0.00019003326678678
  31    0.00031893960146374
  32    -0.0021215169601335
  33    -0.016831176948487
  34    -0.0001926392785031
  35    -0.0012107376049605
  36    -0.00023692104098588
  37    -5.6493744246967e-05
  38    0.00027011160033826
  39    0.0017026915442376
  40    -0.0013505218473825
  41    -0.0017736223981859
  42    0.00010038867851242
  43    -0.00035136168745419
  44    -0.00016598634486946
  45    0.00018428645952946
  46    5.0309673413148e-05
  47    0.00024368908911517
  48    0.00025289977192356
  49    -0.00053801187573795
  50    0.00022054225630653
  51    0.00012193656791888
  52    -0.0001730043447663
  53    -3.8935881823189e-05
  54    0.00014379094506349
  55    0.0028723852589785
  56    -0.00014324617669979
  57    -0.0028690880003495
  58    6.8982436772675e-05
  59    3.0036912614632e-05
  60    -3.7885356362001e-05
  61    1.3564067882448e-05
  62    0.00014101462033588
  63    0.00024005896608623
  64    -5.8356505077469e-05
  65    1.8248338607372e-06
  66    2.8686119641122e-06
  67    -6.4306589026613e-07
  68    1.4735488167275e-06
  69    1.7881313252947e-06
  70    -7.1043827946381e-07
  71    2.5332394464189e-06
  72    -9.7105577734011e-07
  73    -3.9614626969561e-06
  74    -1.2151139626297e-05
  75    -2.9416756640818e-06
  76    3.1847315700627e-07
  77    1.9031265470567e-07
  78    -2.2699765823911e-07
  79    -1.752445089177e-07
  80    -3.9192967866719e-08
  81    -1.4958057011098e-06
  82    -7.8984336892874e-06
  83    -1.049720319841e-06
  84    1.9978500557619e-06
  85    3.0539355658969e-05
  86    -5.8943166502594e-06
  87    -1.2296029205427e-06
  88    -9.0150081280205e-06
  89    -9.9572869427218e-06
  90    2.6743708272309e-05
  91    -1.101338038815e-05
  92    -3.2675578397207e-07
  93    5.3526198290402e-07
  94    -1.841016945056e-06
  95    -5.056771259144e-08
  96    1.9532046185681e-07
  97    -6.5684759505569e-06
  98    -1.2083953909846e-05
  99    9.1426026751529e-07
 100    8.5183373938119e-06
 101    2.0780709963644e-06
 102    1.1138947663335e-06
 103    -5.7987129463255e-05
 104    1.1087726274165e-05
 105    1.3043588283902e-05
 106    1.8740937680772e-06
 107    7.6272965259312e-05
 108    -6.0923427286009e-05
 109    -6.5215357813245e-05
 110    4.1919930871811e-06
 111    2.3061615347505e-06
 112    -9.305322776737e-07
 113    -9.9016709423472e-07
 114    2.2497609151321e-06
 115    3.6309427067673e-06
 116    1.129116640333e-05
 117    -0.00010838475287443
 118    2.5174995076838e-06
 119    -5.0794802171152e-06
 120    -4.6505489992449e-06
 121    2.7061834427258e-05
 122    -1.6212451898046e-05
 123    -1.635281334943e-05
 124    -1.6381121315653e-07
 125    1.6639938940355e-06
 126    1.1702927789976e-06
 127    -1.1346584479204e-06
 128    7.0820030388628e-07
 129    -8.4832922860625e-06
 130    4.0059644094304e-05
 131    -2.006836411517e-05
 132    -1.0631762640127e-05
 133    1.2110086864162e-06
 134    -7.3297573384283e-05
 135    0.00011001383756037
 136    6.2913420753491e-06
 137    0.00012841892070523
 138    -4.3418704650401e-06
 139    -1.0435729038705e-06
 140    -9.9852833198103e-07
 141    -1.3360133258415e-06
 142    -1.7759156611591e-06
 143    8.3360695686997e-06
 144    7.5037441075094e-09
 145    -6.6953195417624e-05
 146    -1.6051757956098e-05
 147    9.5328608174949e-06
 148    2.0739632106551e-05
 149    -2.8442921870707e-05
 150    1.2618279212736e-05
 151    4.8843042034974e-05
 152    4.2033505101759e-06
 153    3.572871334887e-06
 154    8.4934881856706e-07
 155    -2.2299263291344e-06
 156    2.9285146074616e-06
 157    2.944930006616e-09
 158    -7.1614609779305e-06
 159    1.4041464532986e-05
 160    -3.1196374252603e-06
 161    2.0878617266949e-06
 162    -1.1883299068012e-06
 163    2.3074654702794e-05
 164    -1.0935960529257e-05
 165    -9.3202161120734e-06
 166    -1.4029992823973e-06
 167    1.1506746589589e-06
 168    -2.259939885456e-07
 169    -3.2641309297802e-07
 170    -1.7011349392551e-07
 171    1.0998943690901e-06
 172    5.888612310426e-06
 173    -1.4537216023418e-05
 174    1.5956000997913e-06
 175    -1.264952660918e-06
 176    -4.8360110989193e-06
 177    5.3370966010067e-06
 178    7.0491325785637e-07
 179    1.5056685448791e-05
 180    -4.0088499654743e-07
 181    -1.1750991979258e-06
 182    -2.5658374760927e-07
 183    -6.1097664669353e-08
 184    -5.9501581389108e-07
 185    -1.3459712970568e-06
 186    1.530319658058e-05
 187    -1.2774406415966e-05
 188    -2.8589514327321e-06
 189    -2.9245111158572e-06
 190    -1.5131730805907e-05
 191    4.3067753160018e-07
 192    9.7156946146356e-07
 193    1.2747226335739e-05
 194    -1.4157151830519e-06
 195    4.0759779377729e-07
 196    -1.4867702097776e-06
 197    1.3273286642651e-07
 198    -1.2226937111715e-07
 199    2.3442406242454e-06
 200    -1.29123792425e-06
 201    -3.6782899670013e-06
 202    -1.6485874690309e-05
 203    6.4069160318557e-06
 204    2.0039721828229e-06
 205    -2.7362744495913e-06
 206    7.8625503725822e-06
 207    -2.5132670493373e-06
 208    2.4305517529208e-05
 209    -2.5621411530841e-06
 210    1.4605113282152e-05
 211    -2.336326097917e-06
 212    -5.1800361228175e-06
 213    -1.7764690371707e-06
 214    6.2280928633825e-06
 215    2.8659384313641e-06
 216    2.4111081639544e-05
 217    -2.7070527366029e-06
 218    -9.4965197553304e-06
 219    8.1040156279119e-07
 220    1.0449637103627e-06
 221    7.9179377680113e-05
 222    -0.00011031989602089
 223    -0.00052777788673994
 224    -0.00010144412403264
 225    -5.3417286866285e-05
 226    0.00019736820425784
 227    -0.00034200059133194
 228    -0.00015775668659442
 229    0.00043681264732838
 230    8.7325855724974e-07
 231    2.4111289813958e-05
 232    8.9931697958586e-06
 233    -1.3636166997332e-05
 234    -1.2010646745698e-05
 235    -0.00014004320130343
 236    0.00029065240455203
 237    0.00018960543047761
 238    0.00017888699128377
 239    0.00015125001042554
 240    -0.00050655757244311
 241    -6.3310426399198e-05
 242    -0.00013286188429425
 243    0.00059751549320518
 244    2.5727416671328e-06
 245    -3.2866298499969e-08
 246    1.3085618380628e-06
 247    4.3474477798418e-06
 248    3.9509577576261e-06
 249    2.8940508000814e-06
 250    -0.00013748307825286
 251    0.00031794585160681
 252    0.00020795659989452
 253    -0.00071596221858945
 254    0.00050733133771282
 255    7.7871466551788e-05
 256    0.0002880116944507
 257    0.00044093863536511
 258    -1.0310880953554e-05
 259    0.00098217802598323
 260    2.2616841673468e-05
 261    2.1536961054772e-05
 262    8.5330020366257e-06
 263    -7.1044088087751e-05
 264    -3.5139818466531e-05
 265    0.00020911858767539
 266    -2.9210054556052e-05
 267    -0.00027811185503543
 268    5.2987397756481e-05
 269    -1.9378912746572e-05
 270    0.00023558762419669
 271    -0.0032982362024757
 272    -6.4116396188888e-05
 273    0.00017009440608089
 274    -4.1093752131071e-05
 275    0.00043194378954553
 276    0.0012554944303229
 277    -0.0015686099037912
 278    -4.7757281201638e-05
 279    8.1043164318366e-05
 280    3.2607464762719e-05