[Molden Format]
made by pyscf v[2.0.1]
[Atoms] (AU)
C   1   6     0.69100024066471     0.64692934207205    -3.48223131169301
H   2   1     2.68052439830868     1.13355088658700    -3.25784032593313
C   3   6    -0.36286361513219     0.85440132524594    -5.97030179418974
H   4   1    -2.35448549047279     0.36322488579172    -6.17995817793143
C   5   6     0.93697958957450     1.61209284601821    -8.05828437677121
H   6   1     0.85962833397368     3.59050820045091    -8.62470494839578
C   7   6     2.42635389771936    -0.06497183323565    -9.58324401854610
H   8   1     2.48676726707897    -2.04132781761705    -8.99156043119802
H   9   1     1.55630230933075    -1.92953025305990    12.99630010416247
C   10   6     0.75233899775814    -2.21270439606481    11.10705728102219
H   11   1    -0.43433408177274    -3.90944857546550    11.22216085340412
C   12   6     2.86362581178706    -2.63237380607947     9.17926416456045
H   13   1     4.39038949912609    -1.24955421540245     9.49899813497433
H   14   1     3.74629220191363    -4.48798724300892     9.47414880959024
C   15   6     2.02478325613682    -2.42177285709634     6.44560829588644
C   16   6     3.88048732735477    -3.58795445234514     4.61402886975252
C   17   6    -0.18412382258602    -1.30464291234259     5.76021113872346
C   18   6    -2.10044360464350    -0.26837831858460     7.71610340967100
C   19   6    -3.08956938670431     2.35282328359417     6.88693925039594
C   20   6    -4.37372924086464    -2.09766595989678     7.93610724222001
C   21   6    -0.83850430601230     0.06372213486173    10.33002307638377
H   22   1     0.38411922151109     1.74281358582432    10.27380136542181
H   23   1    -2.30980003007874     0.45460143924521    11.73986301809809
H   24   1     4.58527064644668    -5.38706904487420     5.36778158031719
H   25   1     5.54944938085014    -2.37631462192748     4.35398898413318
H   26   1     3.06633019150423    -3.94118377050688     2.75255466040884
H   27   1    -4.17727778763735     2.26573369139522     5.12914900961283
H   28   1    -1.52662344944051     3.68001877445626     6.59540397144508
H   29   1    -4.32916174397830     3.13643051467482     8.35225460090378
H   30   1    -5.32329548508442    -2.36691813602939     6.11583672749896
H   31   1    -5.77989366602257    -1.33896741843465     9.25748940450990
H   32   1    -3.79310905208926    -3.96389819310853     8.61386170102686
C   33   6    -1.01100794811226    -1.06331657314144     3.11929490449947
C   34   6     0.37686231036534    -0.33275864505552     1.09165013605873
H   35   1    -3.01671213906703    -1.40297922279997     2.77827895090944
C   36   6    -0.64382707979370    -0.11591880174385    -1.42063131251064
H   37   1     2.35569259782137     0.17174499283897     1.33641070251401
H   38   1    -2.63317482980319    -0.60229203511219    -1.66119700387645
C   39   6     3.74832505967432     0.60333842975764   -11.67668310140841
C   40   6     5.21001738076888    -1.24955999097241   -13.10400422335708
H   41   1     3.76814643119893     2.53960520723023   -12.36823673003836
O   42   8     6.43815552067501    -0.78092818090474   -14.99949494178040
H   43   1     5.13629360998863    -3.20740752771493   -12.32839043702936
[GTO]
1 0
 s    6 1.00
             3047.5249  0.0018347001629433
             457.36951    0.01403730124668
             103.94869   0.068842606114048
             29.210155    0.23218442062076
              9.286663    0.46794134155879
              3.163927    0.36231203217765
 s    3 1.00
             7.8682724   -0.11933240861517
             1.8812885   -0.16085421161283
             0.5442493     1.1434564825515
 s    1 1.00
             0.1687144                   1
 p    3 1.00
             7.8682724   0.068999095584993
             1.8812885    0.31642397975315
             0.5442493    0.74430825237435
 p    1 1.00
             0.1687144                   1
 d    1 1.00
                   0.8                   1

2 0
 s    3 1.00
             18.731137    0.03349459952309
             2.8253937    0.23472694665786
             0.6401217    0.81375731841339
 s    1 1.00
             0.1612778                   1

3 0
 s    6 1.00
             3047.5249  0.0018347001629433
             457.36951    0.01403730124668
             103.94869   0.068842606114048
             29.210155    0.23218442062076
              9.286663    0.46794134155879
              3.163927    0.36231203217765
 s    3 1.00
             7.8682724   -0.11933240861517
             1.8812885   -0.16085421161283
             0.5442493     1.1434564825515
 s    1 1.00
             0.1687144                   1
 p    3 1.00
             7.8682724   0.068999095584993
             1.8812885    0.31642397975315
             0.5442493    0.74430825237435
 p    1 1.00
             0.1687144                   1
 d    1 1.00
                   0.8                   1

4 0
 s    3 1.00
             18.731137    0.03349459952309
             2.8253937    0.23472694665786
             0.6401217    0.81375731841339
 s    1 1.00
             0.1612778                   1

5 0
 s    6 1.00
             3047.5249  0.0018347001629433
             457.36951    0.01403730124668
             103.94869   0.068842606114048
             29.210155    0.23218442062076
              9.286663    0.46794134155879
              3.163927    0.36231203217765
 s    3 1.00
             7.8682724   -0.11933240861517
             1.8812885   -0.16085421161283
             0.5442493     1.1434564825515
 s    1 1.00
             0.1687144                   1
 p    3 1.00
             7.8682724   0.068999095584993
             1.8812885    0.31642397975315
             0.5442493    0.74430825237435
 p    1 1.00
             0.1687144                   1
 d    1 1.00
                   0.8                   1

6 0
 s    3 1.00
             18.731137    0.03349459952309
             2.8253937    0.23472694665786
             0.6401217    0.81375731841339
 s    1 1.00
             0.1612778                   1

7 0
 s    6 1.00
             3047.5249  0.0018347001629433
             457.36951    0.01403730124668
             103.94869   0.068842606114048
             29.210155    0.23218442062076
              9.286663    0.46794134155879
              3.163927    0.36231203217765
 s    3 1.00
             7.8682724   -0.11933240861517
             1.8812885   -0.16085421161283
             0.5442493     1.1434564825515
 s    1 1.00
             0.1687144                   1
 p    3 1.00
             7.8682724   0.068999095584993
             1.8812885    0.31642397975315
             0.5442493    0.74430825237435
 p    1 1.00
             0.1687144                   1
 d    1 1.00
                   0.8                   1

8 0
 s    3 1.00
             18.731137    0.03349459952309
             2.8253937    0.23472694665786
             0.6401217    0.81375731841339
 s    1 1.00
             0.1612778                   1

9 0
 s    3 1.00
             18.731137    0.03349459952309
             2.8253937    0.23472694665786
             0.6401217    0.81375731841339
 s    1 1.00
             0.1612778                   1

10 0
 s    6 1.00
             3047.5249  0.0018347001629433
             457.36951    0.01403730124668
             103.94869   0.068842606114048
             29.210155    0.23218442062076
              9.286663    0.46794134155879
              3.163927    0.36231203217765
 s    3 1.00
             7.8682724   -0.11933240861517
             1.8812885   -0.16085421161283
             0.5442493     1.1434564825515
 s    1 1.00
             0.1687144                   1
 p    3 1.00
             7.8682724   0.068999095584993
             1.8812885    0.31642397975315
             0.5442493    0.74430825237435
 p    1 1.00
             0.1687144                   1
 d    1 1.00
                   0.8                   1

11 0
 s    3 1.00
             18.731137    0.03349459952309
             2.8253937    0.23472694665786
             0.6401217    0.81375731841339
 s    1 1.00
             0.1612778                   1

12 0
 s    6 1.00
             3047.5249  0.0018347001629433
             457.36951    0.01403730124668
             103.94869   0.068842606114048
             29.210155    0.23218442062076
              9.286663    0.46794134155879
              3.163927    0.36231203217765
 s    3 1.00
             7.8682724   -0.11933240861517
             1.8812885   -0.16085421161283
             0.5442493     1.1434564825515
 s    1 1.00
             0.1687144                   1
 p    3 1.00
             7.8682724   0.068999095584993
             1.8812885    0.31642397975315
             0.5442493    0.74430825237435
 p    1 1.00
             0.1687144                   1
 d    1 1.00
                   0.8                   1

13 0
 s    3 1.00
             18.731137    0.03349459952309
             2.8253937    0.23472694665786
             0.6401217    0.81375731841339
 s    1 1.00
             0.1612778                   1

14 0
 s    3 1.00
             18.731137    0.03349459952309
             2.8253937    0.23472694665786
             0.6401217    0.81375731841339
 s    1 1.00
             0.1612778                   1

15 0
 s    6 1.00
             3047.5249  0.0018347001629433
             457.36951    0.01403730124668
             103.94869   0.068842606114048
             29.210155    0.23218442062076
              9.286663    0.46794134155879
              3.163927    0.36231203217765
 s    3 1.00
             7.8682724   -0.11933240861517
             1.8812885   -0.16085421161283
             0.5442493     1.1434564825515
 s    1 1.00
             0.1687144                   1
 p    3 1.00
             7.8682724   0.068999095584993
             1.8812885    0.31642397975315
             0.5442493    0.74430825237435
 p    1 1.00
             0.1687144                   1
 d    1 1.00
                   0.8                   1

16 0
 s    6 1.00
             3047.5249  0.0018347001629433
             457.36951    0.01403730124668
             103.94869   0.068842606114048
             29.210155    0.23218442062076
              9.286663    0.46794134155879
              3.163927    0.36231203217765
 s    3 1.00
             7.8682724   -0.11933240861517
             1.8812885   -0.16085421161283
             0.5442493     1.1434564825515
 s    1 1.00
             0.1687144                   1
 p    3 1.00
             7.8682724   0.068999095584993
             1.8812885    0.31642397975315
             0.5442493    0.74430825237435
 p    1 1.00
             0.1687144                   1
 d    1 1.00
                   0.8                   1

17 0
 s    6 1.00
             3047.5249  0.0018347001629433
             457.36951    0.01403730124668
             103.94869   0.068842606114048
             29.210155    0.23218442062076
              9.286663    0.46794134155879
              3.163927    0.36231203217765
 s    3 1.00
             7.8682724   -0.11933240861517
             1.8812885   -0.16085421161283
             0.5442493     1.1434564825515
 s    1 1.00
             0.1687144                   1
 p    3 1.00
             7.8682724   0.068999095584993
             1.8812885    0.31642397975315
             0.5442493    0.74430825237435
 p    1 1.00
             0.1687144                   1
 d    1 1.00
                   0.8                   1

18 0
 s    6 1.00
             3047.5249  0.0018347001629433
             457.36951    0.01403730124668
             103.94869   0.068842606114048
             29.210155    0.23218442062076
              9.286663    0.46794134155879
              3.163927    0.36231203217765
 s    3 1.00
             7.8682724   -0.11933240861517
             1.8812885   -0.16085421161283
             0.5442493     1.1434564825515
 s    1 1.00
             0.1687144                   1
 p    3 1.00
             7.8682724   0.068999095584993
             1.8812885    0.31642397975315
             0.5442493    0.74430825237435
 p    1 1.00
             0.1687144                   1
 d    1 1.00
                   0.8                   1

19 0
 s    6 1.00
             3047.5249  0.0018347001629433
             457.36951    0.01403730124668
             103.94869   0.068842606114048
             29.210155    0.23218442062076
              9.286663    0.46794134155879
              3.163927    0.36231203217765
 s    3 1.00
             7.8682724   -0.11933240861517
             1.8812885   -0.16085421161283
             0.5442493     1.1434564825515
 s    1 1.00
             0.1687144                   1
 p    3 1.00
             7.8682724   0.068999095584993
             1.8812885    0.31642397975315
             0.5442493    0.74430825237435
 p    1 1.00
             0.1687144                   1
 d    1 1.00
                   0.8                   1

20 0
 s    6 1.00
             3047.5249  0.0018347001629433
             457.36951    0.01403730124668
             103.94869   0.068842606114048
             29.210155    0.23218442062076
              9.286663    0.46794134155879
              3.163927    0.36231203217765
 s    3 1.00
             7.8682724   -0.11933240861517
             1.8812885   -0.16085421161283
             0.5442493     1.1434564825515
 s    1 1.00
             0.1687144                   1
 p    3 1.00
             7.8682724   0.068999095584993
             1.8812885    0.31642397975315
             0.5442493    0.74430825237435
 p    1 1.00
             0.1687144                   1
 d    1 1.00
                   0.8                   1

21 0
 s    6 1.00
             3047.5249  0.0018347001629433
             457.36951    0.01403730124668
             103.94869   0.068842606114048
             29.210155    0.23218442062076
              9.286663    0.46794134155879
              3.163927    0.36231203217765
 s    3 1.00
             7.8682724   -0.11933240861517
             1.8812885   -0.16085421161283
             0.5442493     1.1434564825515
 s    1 1.00
             0.1687144                   1
 p    3 1.00
             7.8682724   0.068999095584993
             1.8812885    0.31642397975315
             0.5442493    0.74430825237435
 p    1 1.00
             0.1687144                   1
 d    1 1.00
                   0.8                   1

22 0
 s    3 1.00
             18.731137    0.03349459952309
             2.8253937    0.23472694665786
             0.6401217    0.81375731841339
 s    1 1.00
             0.1612778                   1

23 0
 s    3 1.00
             18.731137    0.03349459952309
             2.8253937    0.23472694665786
             0.6401217    0.81375731841339
 s    1 1.00
             0.1612778                   1

24 0
 s    3 1.00
             18.731137    0.03349459952309
             2.8253937    0.23472694665786
             0.6401217    0.81375731841339
 s    1 1.00
             0.1612778                   1

25 0
 s    3 1.00
             18.731137    0.03349459952309
             2.8253937    0.23472694665786
             0.6401217    0.81375731841339
 s    1 1.00
             0.1612778                   1

26 0
 s    3 1.00
             18.731137    0.03349459952309
             2.8253937    0.23472694665786
             0.6401217    0.81375731841339
 s    1 1.00
             0.1612778                   1

27 0
 s    3 1.00
             18.731137    0.03349459952309
             2.8253937    0.23472694665786
             0.6401217    0.81375731841339
 s    1 1.00
             0.1612778                   1

28 0
 s    3 1.00
             18.731137    0.03349459952309
             2.8253937    0.23472694665786
             0.6401217    0.81375731841339
 s    1 1.00
             0.1612778                   1

29 0
 s    3 1.00
             18.731137    0.03349459952309
             2.8253937    0.23472694665786
             0.6401217    0.81375731841339
 s    1 1.00
             0.1612778                   1

30 0
 s    3 1.00
             18.731137    0.03349459952309
             2.8253937    0.23472694665786
             0.6401217    0.81375731841339
 s    1 1.00
             0.1612778                   1

31 0
 s    3 1.00
             18.731137    0.03349459952309
             2.8253937    0.23472694665786
             0.6401217    0.81375731841339
 s    1 1.00
             0.1612778                   1

32 0
 s    3 1.00
             18.731137    0.03349459952309
             2.8253937    0.23472694665786
             0.6401217    0.81375731841339
 s    1 1.00
             0.1612778                   1

33 0
 s    6 1.00
             3047.5249  0.0018347001629433
             457.36951    0.01403730124668
             103.94869   0.068842606114048
             29.210155    0.23218442062076
              9.286663    0.46794134155879
              3.163927    0.36231203217765
 s    3 1.00
             7.8682724   -0.11933240861517
             1.8812885   -0.16085421161283
             0.5442493     1.1434564825515
 s    1 1.00
             0.1687144                   1
 p    3 1.00
             7.8682724   0.068999095584993
             1.8812885    0.31642397975315
             0.5442493    0.74430825237435
 p    1 1.00
             0.1687144                   1
 d    1 1.00
                   0.8                   1

34 0
 s    6 1.00
             3047.5249  0.0018347001629433
             457.36951    0.01403730124668
             103.94869   0.068842606114048
             29.210155    0.23218442062076
              9.286663    0.46794134155879
              3.163927    0.36231203217765
 s    3 1.00
             7.8682724   -0.11933240861517
             1.8812885   -0.16085421161283
             0.5442493     1.1434564825515
 s    1 1.00
             0.1687144                   1
 p    3 1.00
             7.8682724   0.068999095584993
             1.8812885    0.31642397975315
             0.5442493    0.74430825237435
 p    1 1.00
             0.1687144                   1
 d    1 1.00
                   0.8                   1

35 0
 s    3 1.00
             18.731137    0.03349459952309
             2.8253937    0.23472694665786
             0.6401217    0.81375731841339
 s    1 1.00
             0.1612778                   1

36 0
 s    6 1.00
             3047.5249  0.0018347001629433
             457.36951    0.01403730124668
             103.94869   0.068842606114048
             29.210155    0.23218442062076
              9.286663    0.46794134155879
              3.163927    0.36231203217765
 s    3 1.00
             7.8682724   -0.11933240861517
             1.8812885   -0.16085421161283
             0.5442493     1.1434564825515
 s    1 1.00
             0.1687144                   1
 p    3 1.00
             7.8682724   0.068999095584993
             1.8812885    0.31642397975315
             0.5442493    0.74430825237435
 p    1 1.00
             0.1687144                   1
 d    1 1.00
                   0.8                   1

37 0
 s    3 1.00
             18.731137    0.03349459952309
             2.8253937    0.23472694665786
             0.6401217    0.81375731841339
 s    1 1.00
             0.1612778                   1

38 0
 s    3 1.00
             18.731137    0.03349459952309
             2.8253937    0.23472694665786
             0.6401217    0.81375731841339
 s    1 1.00
             0.1612778                   1

39 0
 s    6 1.00
             3047.5249  0.0018347001629433
             457.36951    0.01403730124668
             103.94869   0.068842606114048
             29.210155    0.23218442062076
              9.286663    0.46794134155879
              3.163927    0.36231203217765
 s    3 1.00
             7.8682724   -0.11933240861517
             1.8812885   -0.16085421161283
             0.5442493     1.1434564825515
 s    1 1.00
             0.1687144                   1
 p    3 1.00
             7.8682724   0.068999095584993
             1.8812885    0.31642397975315
             0.5442493    0.74430825237435
 p    1 1.00
             0.1687144                   1
 d    1 1.00
                   0.8                   1

40 0
 s    6 1.00
             3047.5249  0.0018347001629433
             457.36951    0.01403730124668
             103.94869   0.068842606114048
             29.210155    0.23218442062076
              9.286663    0.46794134155879
              3.163927    0.36231203217765
 s    3 1.00
             7.8682724   -0.11933240861517
             1.8812885   -0.16085421161283
             0.5442493     1.1434564825515
 s    1 1.00
             0.1687144                   1
 p    3 1.00
             7.8682724   0.068999095584993
             1.8812885    0.31642397975315
             0.5442493    0.74430825237435
 p    1 1.00
             0.1687144                   1
 d    1 1.00
                   0.8                   1

41 0
 s    3 1.00
             18.731137    0.03349459952309
             2.8253937    0.23472694665786
             0.6401217    0.81375731841339
 s    1 1.00
             0.1612778                   1

42 0
 s    6 1.00
             5484.6717   0.001831099805527
             825.23495   0.013950098518422
             188.04696    0.06844509273075
               52.9645    0.23271427528445
              16.89757    0.47019295006289
             5.7996353    0.35852086192309
 s    3 1.00
             15.539616   -0.11077750382508
             3.5999336   -0.14802630511126
             1.0137618     1.1307670390447
 s    1 1.00
             0.2700058                   1
 p    3 1.00
             15.539616   0.070874299543311
             3.5999336    0.33975279781076
             1.0137618    0.72715859531445
 p    1 1.00
             0.2700058                   1
 d    1 1.00
                   0.8                   1

43 0
 s    3 1.00
             18.731137    0.03349459952309
             2.8253937    0.23472694665786
             0.6401217    0.81375731841339
 s    1 1.00
             0.1612778                   1

[5d]
[7f]
[9g]

[MO]
 Sym= A
 Ene=               0
 Spin= Alpha
 Occup=    1.00000
   1     0.012074691819007
   2    -0.00038451386056312
   3    0.0041177628624662
   4    0.00010081791502487
   5    -7.351098724601e-05
   6    0.00033482731445835
   7    0.00032613018107839
   8    0.0006671292004004
   9    -0.0028099138408859
  10    -0.00032031684506518
  11    -0.00032797153731206
  12    8.3676769517393e-05
  13    -0.00011769510999131
  14    -3.0020874246335e-06
  15    -0.00019207317176451
  16    -0.00044584486159868
  17      0.99611273753422
  18     0.025010338162558
  19    -0.015840186971245
  20    0.0003516595710572
  21    4.702024049499e-05
  22    -0.00012905250525894
  23    -0.0018210410048263
  24    -0.00055109054773962
  25    -0.00051386287361797
  26     0.000510940531842
  27    -0.0001353899216477
  28    -0.00026979293512725
  29    0.00036860071696612
  30    0.00019130541881077
  31    -0.0003025904952597
  32    0.0021576570694621
  33    0.0083767225989569
  34    0.0001026258193639
  35    0.00075449152236481
  36    0.00023357114598077
  37    4.2405416935487e-05
  38    -0.00025036263244508
  39    -0.0014865067783899
  40    0.0017850229717529
  41    0.0021480255551712
  42    -0.00011411260054238
  43    0.00037230853108349
  44     0.000122293583609
  45    -0.00014402379317006
  46    -5.0172791229402e-05
  47    -0.00025728559888131
  48    -0.00032036270712549
  49    0.00010386851201703
  50    -0.00025958301558641
  51    0.00015164114041568
  52    0.00014464491977187
  53    1.3846450500002e-05
  54    -0.00018390362264869
  55    -0.002766387374909
  56    0.00053822816599285
  57    0.0035292417652262
  58    -5.523422352295e-05
  59    -4.5768175054781e-05
  60    8.8266928608026e-05
  61    -7.1202709892071e-05
  62    -0.00012520560441186
  63    -0.00026009635479429
  64    0.00010231580191803
  65    -1.9173174315328e-06
  66    -2.4894218584666e-06
  67    5.9233922083189e-07
  68    -2.018014995793e-06
  69    6.1170815136763e-08
  70    9.7634850711074e-07
  71    -2.7838249498971e-06
  72    1.0562938030293e-06
  73    4.1828251400162e-06
  74    1.2342824933744e-05
  75    2.4480173908922e-06
  76    -2.7641988369306e-07
  77    -2.3443938245404e-07
  78    3.0285986119941e-07
  79    2.4909325388077e-07
  80    3.7773973137158e-08
  81    1.4586208243443e-06
  82    7.7801264476083e-06
  83    1.1186721777585e-06
  84    -1.364962003723e-06
  85    -3.4314347537457e-05
  86    5.9598114638404e-06
  87    1.4959694352361e-06
  88    9.1886527835933e-06
  89    1.2729025203303e-05
  90    -2.9675964639506e-05
  91    1.0607352644328e-05
  92    3.2086962817241e-07
  93    -7.4202820761669e-07
  94    2.1120476053291e-06
  95    -4.8555765514446e-08
  96    -1.7450622275345e-07
  97    7.0093772574208e-06
  98    1.2434107511034e-05
  99    -1.211879500326e-06
 100    -9.3349123202958e-06
 101    -2.2313962001454e-06
 102    -3.1052274992495e-06
 103    9.3542292418705e-05
 104    -1.1440440620228e-05
 105    -1.3635984443643e-05
 106    -2.3361423625269e-06
 107    -9.1604108239063e-05
 108    7.198074473889e-05
 109    6.3661465086391e-05
 110    -4.0296924301327e-06
 111    -2.0746380141656e-06
 112    8.815559385437e-07
 113    1.3999637933025e-06
 114    -2.7078806152707e-06
 115    -3.6288640626241e-06
 116    -1.1398948433846e-05
 117    0.00011484243133877
 118    -2.8501547546646e-06
 119    6.2113717040105e-06
 120    4.1024422419963e-06
 121    -2.5493140151352e-05
 122    1.0197925196999e-05
 123    1.8225197693829e-05
 124    3.6796873493139e-07
 125    -1.626430814111e-06
 126    -1.4459153838716e-06
 127    9.0278930325097e-07
 128    -6.5945247685027e-07
 129    8.3418688367079e-06
 130    -4.220468803336e-05
 131    3.4076878260246e-05
 132    1.1711733448346e-05
 133    -2.4973045365752e-06
 134    7.2699942810985e-05
 135    -0.00014999375871531
 136    6.4080613767539e-06
 137    -0.00014641055048479
 138    5.199336565423e-06
 139    1.2187236208414e-06
 140    1.6277091011597e-06
 141    1.1687545688649e-06
 142    2.2308278853032e-06
 143    -7.9471250277691e-06
 144    6.4524044754295e-07
 145    4.8412534341426e-05
 146    1.5708978351154e-05
 147    -8.8937339646326e-06
 148    -1.9156847048777e-05
 149    2.3373689045337e-05
 150    -1.0457824582337e-05
 151    -4.5294578094102e-05
 152    -4.8366122230566e-06
 153    -3.3012247897511e-06
 154    -1.2141366507236e-06
 155    2.3521615925094e-06
 156    -3.0303562457338e-06
 157    8.0770326185494e-08
 158    7.7901523049805e-06
 159    -1.4402056491364e-05
 160    3.478336135451e-06
 161    -2.2020740841324e-06
 162    1.3111102724567e-06
 163    -2.4617655814434e-05
 164    1.0854512809572e-05
 165    9.0305199691828e-06
 166    1.4958715729709e-06
 167    -9.4714263591141e-07
 168    2.4402633262433e-07
 169    2.8111541586852e-07
 170    2.8377973903856e-07
 171    -9.9996419774397e-07
 172    -5.5618816162621e-06
 173    1.2605935604213e-05
 174    -1.8257159928213e-06
 175    1.1891006279233e-06
 176    5.0637164942896e-06
 177    -4.047082846217e-06
 178    -1.0870447983224e-07
 179    -1.5204046707519e-05
 180    4.2798836357307e-07
 181    1.4426136026102e-06
 182    1.253837188296e-07
 183    5.1156078713575e-08
 184    7.8097548284213e-07
 185    1.0599914691604e-06
 186    -1.7160207960421e-05
 187    1.9952365259244e-05
 188    2.4178656387528e-06
 189    2.9503020569759e-06
 190    1.4915007425688e-05
 191    1.2503423781681e-06
 192    -1.6270185052533e-06
 193    -1.8201343800497e-05
 194    1.7798947912948e-06
 195    -2.6546320500271e-07
 196    1.6258597547784e-06
 197    -2.8761203073768e-07
 198    1.6434991865121e-07
 199    -3.0011495206187e-06
 200    5.5334882951104e-07
 201    3.578324385212e-06
 202    1.7551706337266e-05
 203    -7.4159956815411e-06
 204    -5.9542385050962e-06
 205    3.4680370192866e-06
 206    -7.9584430308172e-06
 207    3.950230896858e-06
 208    -2.9553325983825e-05
 209    2.9024360165965e-06
 210    -1.5329894296086e-05
 211    2.4285606388748e-06
 212    6.2654461864127e-06
 213    1.8047968282851e-06
 214    -7.1975063749089e-06
 215    -3.299263421607e-06
 216    -2.0818074329758e-05
 217    2.930452308105e-06
 218    9.4788545571817e-06
 219    -6.4985778798655e-07
 220    -8.0837671038397e-07
 221    -7.8605189724641e-05
 222    0.00010289333599439
 223    0.00057056764161217
 224    0.00010092319166758
 225    5.5712429712825e-05
 226    -0.00019461510973189
 227    0.00035790317053539
 228    0.00016954553014555
 229    -0.0005022118752427
 230    -5.5670471158534e-07
 231    -2.5884316984495e-05
 232    -1.0892357758766e-05
 233    1.4310101355263e-05
 234    1.318902436752e-05
 235    0.00014338801695904
 236    -0.00029634124956881
 237    -0.00031178388909317
 238    -0.00017588425368944
 239    -0.00015003632732806
 240    0.00051393154200196
 241    0.00010206899454273
 242    0.00012999714411503
 243    -0.00060804915965104
 244    -4.5971363532066e-06
 245    1.0753859458605e-06
 246    2.3862090986556e-06
 247    -4.6777197184421e-06
 248    -2.1889489931788e-06
 249    -4.9826572422228e-06
 250    0.0001373743167372
 251    -0.00031714637000919
 252    -0.00023213313014359
 253    0.00089033717696261
 254    -0.00050079681047982
 255    -8.1033680602023e-05
 256    -0.00030675917010892
 257    -0.00035476791588565
 258    9.535971207851e-05
 259    -0.00099124806075956
 260    -1.9945663646936e-05
 261    -2.6916206139488e-05
 262    -1.5961683816024e-05
 263    7.0520291066405e-05
 264    4.2902040499718e-05
 265    -0.0002127402064803
 266    3.6749983117281e-05
 267    0.00027230236767706
 268    -3.9747637231103e-05
 269    1.9379972323978e-05
 270    -0.00025720633246605
 271    0.0035421175460098
 272    3.2449434122148e-05
 273    -0.00018029470888469
 274    2.4001851737753e-05
 275    -0.00065470607496521
 276    -0.0015302908865755
 277    0.0014632455870598
 278    4.6662844225348e-05
 279    -9.1647684288452e-05
 280    -2.8321170252269e-05