[Molden Format]
made by pyscf v[2.0.1]
[Atoms] (AU)
C   1   6     0.69100024066471     0.64692934207205    -3.48223131169301
H   2   1     2.68052439830868     1.13355088658700    -3.25784032593313
C   3   6    -0.36286361513219     0.85440132524594    -5.97030179418974
H   4   1    -2.35448549047279     0.36322488579172    -6.17995817793143
C   5   6     0.93697958957450     1.61209284601821    -8.05828437677121
H   6   1    -0.06960811584452     2.58702669474359    -9.56733307637730
C   7   6     3.59571274713804     1.19684402678434    -8.39738626626495
H   8   1     4.57899779978681     0.21871567749258    -6.86894337963000
H   9   1     1.55630230933075    -1.92953025305990    12.99630010416247
C   10   6     0.75233899775814    -2.21270439606481    11.10705728102219
H   11   1    -0.43433408177274    -3.90944857546550    11.22216085340412
C   12   6     2.86362581178706    -2.63237380607947     9.17926416456045
H   13   1     4.39038949912609    -1.24955421540245     9.49899813497433
H   14   1     3.74629220191363    -4.48798724300892     9.47414880959024
C   15   6     2.02478325613682    -2.42177285709634     6.44560829588644
C   16   6     3.88048732735477    -3.58795445234514     4.61402886975252
C   17   6    -0.18412382258602    -1.30464291234259     5.76021113872346
C   18   6    -2.10044360464350    -0.26837831858460     7.71610340967100
C   19   6    -3.08956938670431     2.35282328359417     6.88693925039594
C   20   6    -4.37372924086464    -2.09766595989678     7.93610724222001
C   21   6    -0.83850430601230     0.06372213486173    10.33002307638377
H   22   1     0.38411922151109     1.74281358582432    10.27380136542181
H   23   1    -2.30980003007874     0.45460143924521    11.73986301809809
H   24   1     4.58527064644668    -5.38706904487420     5.36778158031719
H   25   1     5.54944938085014    -2.37631462192748     4.35398898413318
H   26   1     3.06633019150423    -3.94118377050688     2.75255466040884
H   27   1    -4.17727778763735     2.26573369139522     5.12914900961283
H   28   1    -1.52662344944051     3.68001877445626     6.59540397144508
H   29   1    -4.32916174397830     3.13643051467482     8.35225460090378
H   30   1    -5.32329548508442    -2.36691813602939     6.11583672749896
H   31   1    -5.77989366602257    -1.33896741843465     9.25748940450990
H   32   1    -3.79310905208926    -3.96389819310853     8.61386170102686
C   33   6    -1.01100794811226    -1.06331657314144     3.11929490449947
C   34   6     0.37686231036534    -0.33275864505552     1.09165013605873
H   35   1    -3.01671213906703    -1.40297922279997     2.77827895090944
C   36   6    -0.64382707979370    -0.11591880174385    -1.42063131251064
H   37   1     2.35569259782137     0.17174499283897     1.33641070251401
H   38   1    -2.63317482980319    -0.60229203511219    -1.66119700387645
C   39   6     4.96665860975130     1.91437223239220   -10.44247655051683
C   40   6     7.67160233174465     1.40206885234173   -10.60935163126053
H   41   1     4.10375913642339     2.89528826049847   -12.03023490303406
O   42   8     9.01623610133373     1.99111078946158   -12.38862500825095
H   43   1     8.47573431044455     0.39495244048141    -8.94223819440966
[GTO]
1 0
 s    6 1.00
             3047.5249  0.0018347001629433
             457.36951    0.01403730124668
             103.94869   0.068842606114048
             29.210155    0.23218442062076
              9.286663    0.46794134155879
              3.163927    0.36231203217765
 s    3 1.00
             7.8682724   -0.11933240861517
             1.8812885   -0.16085421161283
             0.5442493     1.1434564825515
 s    1 1.00
             0.1687144                   1
 p    3 1.00
             7.8682724   0.068999095584993
             1.8812885    0.31642397975315
             0.5442493    0.74430825237435
 p    1 1.00
             0.1687144                   1
 d    1 1.00
                   0.8                   1

2 0
 s    3 1.00
             18.731137    0.03349459952309
             2.8253937    0.23472694665786
             0.6401217    0.81375731841339
 s    1 1.00
             0.1612778                   1

3 0
 s    6 1.00
             3047.5249  0.0018347001629433
             457.36951    0.01403730124668
             103.94869   0.068842606114048
             29.210155    0.23218442062076
              9.286663    0.46794134155879
              3.163927    0.36231203217765
 s    3 1.00
             7.8682724   -0.11933240861517
             1.8812885   -0.16085421161283
             0.5442493     1.1434564825515
 s    1 1.00
             0.1687144                   1
 p    3 1.00
             7.8682724   0.068999095584993
             1.8812885    0.31642397975315
             0.5442493    0.74430825237435
 p    1 1.00
             0.1687144                   1
 d    1 1.00
                   0.8                   1

4 0
 s    3 1.00
             18.731137    0.03349459952309
             2.8253937    0.23472694665786
             0.6401217    0.81375731841339
 s    1 1.00
             0.1612778                   1

5 0
 s    6 1.00
             3047.5249  0.0018347001629433
             457.36951    0.01403730124668
             103.94869   0.068842606114048
             29.210155    0.23218442062076
              9.286663    0.46794134155879
              3.163927    0.36231203217765
 s    3 1.00
             7.8682724   -0.11933240861517
             1.8812885   -0.16085421161283
             0.5442493     1.1434564825515
 s    1 1.00
             0.1687144                   1
 p    3 1.00
             7.8682724   0.068999095584993
             1.8812885    0.31642397975315
             0.5442493    0.74430825237435
 p    1 1.00
             0.1687144                   1
 d    1 1.00
                   0.8                   1

6 0
 s    3 1.00
             18.731137    0.03349459952309
             2.8253937    0.23472694665786
             0.6401217    0.81375731841339
 s    1 1.00
             0.1612778                   1

7 0
 s    6 1.00
             3047.5249  0.0018347001629433
             457.36951    0.01403730124668
             103.94869   0.068842606114048
             29.210155    0.23218442062076
              9.286663    0.46794134155879
              3.163927    0.36231203217765
 s    3 1.00
             7.8682724   -0.11933240861517
             1.8812885   -0.16085421161283
             0.5442493     1.1434564825515
 s    1 1.00
             0.1687144                   1
 p    3 1.00
             7.8682724   0.068999095584993
             1.8812885    0.31642397975315
             0.5442493    0.74430825237435
 p    1 1.00
             0.1687144                   1
 d    1 1.00
                   0.8                   1

8 0
 s    3 1.00
             18.731137    0.03349459952309
             2.8253937    0.23472694665786
             0.6401217    0.81375731841339
 s    1 1.00
             0.1612778                   1

9 0
 s    3 1.00
             18.731137    0.03349459952309
             2.8253937    0.23472694665786
             0.6401217    0.81375731841339
 s    1 1.00
             0.1612778                   1

10 0
 s    6 1.00
             3047.5249  0.0018347001629433
             457.36951    0.01403730124668
             103.94869   0.068842606114048
             29.210155    0.23218442062076
              9.286663    0.46794134155879
              3.163927    0.36231203217765
 s    3 1.00
             7.8682724   -0.11933240861517
             1.8812885   -0.16085421161283
             0.5442493     1.1434564825515
 s    1 1.00
             0.1687144                   1
 p    3 1.00
             7.8682724   0.068999095584993
             1.8812885    0.31642397975315
             0.5442493    0.74430825237435
 p    1 1.00
             0.1687144                   1
 d    1 1.00
                   0.8                   1

11 0
 s    3 1.00
             18.731137    0.03349459952309
             2.8253937    0.23472694665786
             0.6401217    0.81375731841339
 s    1 1.00
             0.1612778                   1

12 0
 s    6 1.00
             3047.5249  0.0018347001629433
             457.36951    0.01403730124668
             103.94869   0.068842606114048
             29.210155    0.23218442062076
              9.286663    0.46794134155879
              3.163927    0.36231203217765
 s    3 1.00
             7.8682724   -0.11933240861517
             1.8812885   -0.16085421161283
             0.5442493     1.1434564825515
 s    1 1.00
             0.1687144                   1
 p    3 1.00
             7.8682724   0.068999095584993
             1.8812885    0.31642397975315
             0.5442493    0.74430825237435
 p    1 1.00
             0.1687144                   1
 d    1 1.00
                   0.8                   1

13 0
 s    3 1.00
             18.731137    0.03349459952309
             2.8253937    0.23472694665786
             0.6401217    0.81375731841339
 s    1 1.00
             0.1612778                   1

14 0
 s    3 1.00
             18.731137    0.03349459952309
             2.8253937    0.23472694665786
             0.6401217    0.81375731841339
 s    1 1.00
             0.1612778                   1

15 0
 s    6 1.00
             3047.5249  0.0018347001629433
             457.36951    0.01403730124668
             103.94869   0.068842606114048
             29.210155    0.23218442062076
              9.286663    0.46794134155879
              3.163927    0.36231203217765
 s    3 1.00
             7.8682724   -0.11933240861517
             1.8812885   -0.16085421161283
             0.5442493     1.1434564825515
 s    1 1.00
             0.1687144                   1
 p    3 1.00
             7.8682724   0.068999095584993
             1.8812885    0.31642397975315
             0.5442493    0.74430825237435
 p    1 1.00
             0.1687144                   1
 d    1 1.00
                   0.8                   1

16 0
 s    6 1.00
             3047.5249  0.0018347001629433
             457.36951    0.01403730124668
             103.94869   0.068842606114048
             29.210155    0.23218442062076
              9.286663    0.46794134155879
              3.163927    0.36231203217765
 s    3 1.00
             7.8682724   -0.11933240861517
             1.8812885   -0.16085421161283
             0.5442493     1.1434564825515
 s    1 1.00
             0.1687144                   1
 p    3 1.00
             7.8682724   0.068999095584993
             1.8812885    0.31642397975315
             0.5442493    0.74430825237435
 p    1 1.00
             0.1687144                   1
 d    1 1.00
                   0.8                   1

17 0
 s    6 1.00
             3047.5249  0.0018347001629433
             457.36951    0.01403730124668
             103.94869   0.068842606114048
             29.210155    0.23218442062076
              9.286663    0.46794134155879
              3.163927    0.36231203217765
 s    3 1.00
             7.8682724   -0.11933240861517
             1.8812885   -0.16085421161283
             0.5442493     1.1434564825515
 s    1 1.00
             0.1687144                   1
 p    3 1.00
             7.8682724   0.068999095584993
             1.8812885    0.31642397975315
             0.5442493    0.74430825237435
 p    1 1.00
             0.1687144                   1
 d    1 1.00
                   0.8                   1

18 0
 s    6 1.00
             3047.5249  0.0018347001629433
             457.36951    0.01403730124668
             103.94869   0.068842606114048
             29.210155    0.23218442062076
              9.286663    0.46794134155879
              3.163927    0.36231203217765
 s    3 1.00
             7.8682724   -0.11933240861517
             1.8812885   -0.16085421161283
             0.5442493     1.1434564825515
 s    1 1.00
             0.1687144                   1
 p    3 1.00
             7.8682724   0.068999095584993
             1.8812885    0.31642397975315
             0.5442493    0.74430825237435
 p    1 1.00
             0.1687144                   1
 d    1 1.00
                   0.8                   1

19 0
 s    6 1.00
             3047.5249  0.0018347001629433
             457.36951    0.01403730124668
             103.94869   0.068842606114048
             29.210155    0.23218442062076
              9.286663    0.46794134155879
              3.163927    0.36231203217765
 s    3 1.00
             7.8682724   -0.11933240861517
             1.8812885   -0.16085421161283
             0.5442493     1.1434564825515
 s    1 1.00
             0.1687144                   1
 p    3 1.00
             7.8682724   0.068999095584993
             1.8812885    0.31642397975315
             0.5442493    0.74430825237435
 p    1 1.00
             0.1687144                   1
 d    1 1.00
                   0.8                   1

20 0
 s    6 1.00
             3047.5249  0.0018347001629433
             457.36951    0.01403730124668
             103.94869   0.068842606114048
             29.210155    0.23218442062076
              9.286663    0.46794134155879
              3.163927    0.36231203217765
 s    3 1.00
             7.8682724   -0.11933240861517
             1.8812885   -0.16085421161283
             0.5442493     1.1434564825515
 s    1 1.00
             0.1687144                   1
 p    3 1.00
             7.8682724   0.068999095584993
             1.8812885    0.31642397975315
             0.5442493    0.74430825237435
 p    1 1.00
             0.1687144                   1
 d    1 1.00
                   0.8                   1

21 0
 s    6 1.00
             3047.5249  0.0018347001629433
             457.36951    0.01403730124668
             103.94869   0.068842606114048
             29.210155    0.23218442062076
              9.286663    0.46794134155879
              3.163927    0.36231203217765
 s    3 1.00
             7.8682724   -0.11933240861517
             1.8812885   -0.16085421161283
             0.5442493     1.1434564825515
 s    1 1.00
             0.1687144                   1
 p    3 1.00
             7.8682724   0.068999095584993
             1.8812885    0.31642397975315
             0.5442493    0.74430825237435
 p    1 1.00
             0.1687144                   1
 d    1 1.00
                   0.8                   1

22 0
 s    3 1.00
             18.731137    0.03349459952309
             2.8253937    0.23472694665786
             0.6401217    0.81375731841339
 s    1 1.00
             0.1612778                   1

23 0
 s    3 1.00
             18.731137    0.03349459952309
             2.8253937    0.23472694665786
             0.6401217    0.81375731841339
 s    1 1.00
             0.1612778                   1

24 0
 s    3 1.00
             18.731137    0.03349459952309
             2.8253937    0.23472694665786
             0.6401217    0.81375731841339
 s    1 1.00
             0.1612778                   1

25 0
 s    3 1.00
             18.731137    0.03349459952309
             2.8253937    0.23472694665786
             0.6401217    0.81375731841339
 s    1 1.00
             0.1612778                   1

26 0
 s    3 1.00
             18.731137    0.03349459952309
             2.8253937    0.23472694665786
             0.6401217    0.81375731841339
 s    1 1.00
             0.1612778                   1

27 0
 s    3 1.00
             18.731137    0.03349459952309
             2.8253937    0.23472694665786
             0.6401217    0.81375731841339
 s    1 1.00
             0.1612778                   1

28 0
 s    3 1.00
             18.731137    0.03349459952309
             2.8253937    0.23472694665786
             0.6401217    0.81375731841339
 s    1 1.00
             0.1612778                   1

29 0
 s    3 1.00
             18.731137    0.03349459952309
             2.8253937    0.23472694665786
             0.6401217    0.81375731841339
 s    1 1.00
             0.1612778                   1

30 0
 s    3 1.00
             18.731137    0.03349459952309
             2.8253937    0.23472694665786
             0.6401217    0.81375731841339
 s    1 1.00
             0.1612778                   1

31 0
 s    3 1.00
             18.731137    0.03349459952309
             2.8253937    0.23472694665786
             0.6401217    0.81375731841339
 s    1 1.00
             0.1612778                   1

32 0
 s    3 1.00
             18.731137    0.03349459952309
             2.8253937    0.23472694665786
             0.6401217    0.81375731841339
 s    1 1.00
             0.1612778                   1

33 0
 s    6 1.00
             3047.5249  0.0018347001629433
             457.36951    0.01403730124668
             103.94869   0.068842606114048
             29.210155    0.23218442062076
              9.286663    0.46794134155879
              3.163927    0.36231203217765
 s    3 1.00
             7.8682724   -0.11933240861517
             1.8812885   -0.16085421161283
             0.5442493     1.1434564825515
 s    1 1.00
             0.1687144                   1
 p    3 1.00
             7.8682724   0.068999095584993
             1.8812885    0.31642397975315
             0.5442493    0.74430825237435
 p    1 1.00
             0.1687144                   1
 d    1 1.00
                   0.8                   1

34 0
 s    6 1.00
             3047.5249  0.0018347001629433
             457.36951    0.01403730124668
             103.94869   0.068842606114048
             29.210155    0.23218442062076
              9.286663    0.46794134155879
              3.163927    0.36231203217765
 s    3 1.00
             7.8682724   -0.11933240861517
             1.8812885   -0.16085421161283
             0.5442493     1.1434564825515
 s    1 1.00
             0.1687144                   1
 p    3 1.00
             7.8682724   0.068999095584993
             1.8812885    0.31642397975315
             0.5442493    0.74430825237435
 p    1 1.00
             0.1687144                   1
 d    1 1.00
                   0.8                   1

35 0
 s    3 1.00
             18.731137    0.03349459952309
             2.8253937    0.23472694665786
             0.6401217    0.81375731841339
 s    1 1.00
             0.1612778                   1

36 0
 s    6 1.00
             3047.5249  0.0018347001629433
             457.36951    0.01403730124668
             103.94869   0.068842606114048
             29.210155    0.23218442062076
              9.286663    0.46794134155879
              3.163927    0.36231203217765
 s    3 1.00
             7.8682724   -0.11933240861517
             1.8812885   -0.16085421161283
             0.5442493     1.1434564825515
 s    1 1.00
             0.1687144                   1
 p    3 1.00
             7.8682724   0.068999095584993
             1.8812885    0.31642397975315
             0.5442493    0.74430825237435
 p    1 1.00
             0.1687144                   1
 d    1 1.00
                   0.8                   1

37 0
 s    3 1.00
             18.731137    0.03349459952309
             2.8253937    0.23472694665786
             0.6401217    0.81375731841339
 s    1 1.00
             0.1612778                   1

38 0
 s    3 1.00
             18.731137    0.03349459952309
             2.8253937    0.23472694665786
             0.6401217    0.81375731841339
 s    1 1.00
             0.1612778                   1

39 0
 s    6 1.00
             3047.5249  0.0018347001629433
             457.36951    0.01403730124668
             103.94869   0.068842606114048
             29.210155    0.23218442062076
              9.286663    0.46794134155879
              3.163927    0.36231203217765
 s    3 1.00
             7.8682724   -0.11933240861517
             1.8812885   -0.16085421161283
             0.5442493     1.1434564825515
 s    1 1.00
             0.1687144                   1
 p    3 1.00
             7.8682724   0.068999095584993
             1.8812885    0.31642397975315
             0.5442493    0.74430825237435
 p    1 1.00
             0.1687144                   1
 d    1 1.00
                   0.8                   1

40 0
 s    6 1.00
             3047.5249  0.0018347001629433
             457.36951    0.01403730124668
             103.94869   0.068842606114048
             29.210155    0.23218442062076
              9.286663    0.46794134155879
              3.163927    0.36231203217765
 s    3 1.00
             7.8682724   -0.11933240861517
             1.8812885   -0.16085421161283
             0.5442493     1.1434564825515
 s    1 1.00
             0.1687144                   1
 p    3 1.00
             7.8682724   0.068999095584993
             1.8812885    0.31642397975315
             0.5442493    0.74430825237435
 p    1 1.00
             0.1687144                   1
 d    1 1.00
                   0.8                   1

41 0
 s    3 1.00
             18.731137    0.03349459952309
             2.8253937    0.23472694665786
             0.6401217    0.81375731841339
 s    1 1.00
             0.1612778                   1

42 0
 s    6 1.00
             5484.6717   0.001831099805527
             825.23495   0.013950098518422
             188.04696    0.06844509273075
               52.9645    0.23271427528445
              16.89757    0.47019295006289
             5.7996353    0.35852086192309
 s    3 1.00
             15.539616   -0.11077750382508
             3.5999336   -0.14802630511126
             1.0137618     1.1307670390447
 s    1 1.00
             0.2700058                   1
 p    3 1.00
             15.539616   0.070874299543311
             3.5999336    0.33975279781076
             1.0137618    0.72715859531445
 p    1 1.00
             0.2700058                   1
 d    1 1.00
                   0.8                   1

43 0
 s    3 1.00
             18.731137    0.03349459952309
             2.8253937    0.23472694665786
             0.6401217    0.81375731841339
 s    1 1.00
             0.1612778                   1

[5d]
[7f]
[9g]

[MO]
 Sym= A
 Ene=               0
 Spin= Alpha
 Occup=    1.00000
   1    -0.0010384050066637
   2    -1.5272920566396e-05
   3    -0.00070624433844963
   4    -2.8383889075343e-05
   5    -3.1253381402587e-05
   6    7.6290275103577e-05
   7    0.00024944056771877
   8    0.00036545243983842
   9    -0.00093816116107477
  10    -2.2395475604613e-05
  11    5.6979420876583e-05
  12    1.4286079787773e-05
  13    9.0669663117172e-06
  14    -1.3892390777385e-05
  15    -6.0218133451433e-05
  16    1.2247839056127e-05
  17    0.0042488944493305
  18    -6.2261614377013e-05
  19    0.00017383104900612
  20    -5.6847903483339e-05
  21    -2.1805425645786e-07
  22    3.4191931774566e-05
  23    -0.00014875413712478
  24    1.9289358157255e-05
  25    -0.00043336975275781
  26    -4.7467508676046e-06
  27    -1.2374047470245e-05
  28    -4.1560541425273e-05
  29    4.3452298132861e-05
  30    -3.4712314068832e-05
  31    -9.9514070458344e-06
  32    -1.766726136895e-05
  33     0.021227537858683
  34    -9.236355554412e-05
  35    0.0037678410426759
  36    -0.00032828130976209
  37    4.772437638845e-05
  38    0.00012492170901793
  39    0.0020326115153005
  40    1.8764359739894e-05
  41    -0.00085689704169203
  42    0.00022947196581039
  43    5.3627505742382e-05
  44    2.4742410683701e-05
  45    -0.00042503437370152
  46    0.00017769832879503
  47    -0.00019377100584033
  48    -0.00014542993211062
  49      0.99604629910992
  50     0.024319082918089
  51    -0.015943758488287
  52    -0.0005061048209547
  53    -4.7884433053737e-05
  54    0.00025991232498842
  55    0.00085322288306979
  56    -0.00091791112877305
  57    0.0014009852076555
  58    0.0001560644640019
  59    -0.00040255145376013
  60    -0.00034486628616256
  61    0.00043135157225874
  62    -3.2991732368879e-05
  63    -0.0002330299777685
  64    0.0023416125715471
  65    -6.4919752735771e-07
  66    1.4745680729191e-07
  67    -1.9351106582267e-07
  68    -1.646792598841e-06
  69    4.7131256429724e-06
  70    1.0574178988082e-06
  71    -1.2690340606726e-06
  72    1.7504330163639e-07
  73    2.0212017527714e-06
  74    6.6487692862645e-07
  75    -1.8221052431996e-06
  76    -4.3889047635639e-08
  77    -2.9899402284232e-07
  78    2.9081894203481e-07
  79    1.704210114574e-07
  80    -1.6798836178794e-07
  81    2.7446855197966e-07
  82    -4.5775937659152e-07
  83    1.7319382911257e-07
  84    2.6369455009212e-07
  85    -3.2583709700626e-05
  86    1.4096762781892e-06
  87    -8.4908574757511e-07
  88    2.7080235034825e-06
  89    1.0547433205461e-05
  90    -1.0732988792784e-05
  91    6.7234319691598e-06
  92    2.7574710305731e-07
  93    -1.0816242383374e-06
  94    9.9847365083249e-07
  95    -1.5164119357624e-07
  96    -3.5891514324887e-07
  97    1.0544160066031e-06
  98    -5.9886675265805e-07
  99    7.9265136230417e-07
 100    -1.3287525760378e-06
 101    -2.5961363390147e-07
 102    -3.0504642251872e-06
 103    7.3761722918963e-05
 104    2.6005848116212e-06
 105    2.0518409615191e-06
 106    -3.6807087485513e-06
 107    -6.4854311415338e-05
 108    5.7190547812125e-05
 109    6.335327033491e-05
 110    -5.2312193254024e-07
 111    -2.2043385328673e-07
 112    8.9226115363344e-08
 113    -1.3339748291643e-08
 114    -2.2427759668079e-06
 115    -4.4033465241802e-07
 116    -3.9293617466614e-06
 117    5.7589228790989e-05
 118    -1.955829566264e-06
 119     1.79171718556e-06
 120    8.553685396333e-07
 121    -1.4924571086216e-05
 122    3.0336880237192e-06
 123    2.3788183126275e-05
 124    1.7980842802485e-07
 125    -9.5344470469311e-07
 126    2.0043021773174e-08
 127    2.601387266051e-07
 128    -9.2725134118801e-07
 129    -1.4437345282348e-06
 130    -1.1428520778741e-05
 131    0.00015397837491959
 132    4.8330614020196e-06
 133    4.2384096073855e-06
 134    2.5527145500246e-06
 135    -0.00011571390488209
 136    1.408401717239e-05
 137    -0.00020528602490473
 138    6.645652414458e-06
 139    2.9910013847366e-06
 140    1.7667881686416e-06
 141    2.2414567308306e-07
 142    7.4195808257866e-07
 143    -1.317994661896e-06
 144    -8.9252032622854e-06
 145    2.4763935887856e-05
 146    1.4728312868429e-07
 147    -1.0453274529466e-06
 148    1.9155288043788e-06
 149    2.3434958390016e-05
 150    4.6222673867387e-06
 151    -1.3175606944483e-05
 152    -2.7947172443317e-06
 153    -5.6018709525617e-07
 154    -1.253653483316e-06
 155    1.4961165490764e-06
 156    -2.1911582073742e-06
 157    2.358470396404e-07
 158    2.861188901279e-06
 159    -1.0957148232335e-05
 160    5.710496499925e-07
 161    5.0304376052403e-07
 162    -1.3056680709114e-06
 163    -1.5213660170227e-05
 164    4.1442357270596e-06
 165    8.7385648598264e-07
 166    1.3961719966002e-06
 167    -3.8417701549421e-07
 168    1.2882466814322e-07
 169    -2.1845641219002e-07
 170    1.0842451350395e-06
 171    -1.3500198533959e-08
 172    1.696488394992e-06
 173    -3.731841291453e-06
 174    -4.247585838595e-07
 175    -4.339164764449e-07
 176    1.3039169418169e-06
 177    3.5582308514341e-06
 178    7.6673777942444e-06
 179    3.5090907355716e-06
 180    -1.6365198924477e-07
 181    9.1434520066323e-07
 182    2.0016358346482e-07
 183    -4.89690677952e-07
 184    7.1249524409363e-07
 185    -7.7251084097013e-07
 186    -9.1769132271177e-06
 187    1.6271056350557e-05
 188    -7.9596998841136e-07
 189    5.3185975966641e-07
 190    3.4376560981978e-06
 191    6.3781562953472e-06
 192    -4.7503758112543e-06
 193    -1.5280530052313e-05
 194    8.0740136561055e-07
 195    1.6779324173931e-07
 196    1.1773186284916e-06
 197    -3.8907221391887e-08
 198    -1.7438287737355e-07
 199    -2.203721441936e-06
 200    -1.3863398213731e-06
 201    5.1352535390685e-07
 202    8.599178924349e-06
 203    -2.2241919151953e-06
 204    -4.0921364115069e-06
 205    1.9693939501903e-07
 206    -5.1755470308641e-06
 207     -8.3650072932e-07
 208    7.2506039944271e-06
 209    2.6017675587837e-06
 210    -5.6935332491085e-06
 211    1.8125946508166e-06
 212    5.0160052742747e-06
 213    -4.2401362048823e-07
 214    -4.2900429271227e-06
 215    -1.7930097280676e-06
 216    1.3199774173652e-05
 217    7.8601551179757e-07
 218    -7.5436628491478e-07
 219    1.4829905565191e-06
 220    2.1235971903064e-06
 221    -1.3369677230681e-06
 222    -2.0538127101444e-05
 223    -1.0246470792476e-05
 224    1.0751564481587e-05
 225    -7.0972774060961e-06
 226    9.4522052137347e-06
 227    -2.1929644334878e-05
 228    5.0338508121419e-05
 229    -0.00034317028242639
 230    3.6294708396917e-07
 231    -1.2046382231407e-05
 232    -4.8699062877863e-06
 233    4.4693082424579e-06
 234    3.6431799933775e-06
 235    8.7318348818114e-06
 236    2.3648143905533e-05
 237    -0.00041130752032079
 238    -7.6466902595755e-06
 239    -5.8505245485653e-06
 240    4.0128924620653e-06
 241    6.0235001086723e-05
 242    9.0106584325521e-06
 243    5.6650295160627e-05
 244    -1.2677590505092e-05
 245    1.0455591889292e-05
 246    4.0983908842435e-06
 247    2.787284892865e-06
 248    -2.3960423670587e-06
 249    -1.8688864292669e-05
 250    -1.5577303625796e-05
 251    1.7324316729038e-05
 252    -5.8452778705756e-05
 253    0.0012739537051805
 254    -3.6704315368182e-05
 255    1.1352963582325e-05
 256    -1.3663441828596e-05
 257    0.00055798297333091
 258    0.00019320494963592
 259    -0.00039034020183271
 260    2.7579788304106e-05
 261    -2.9321733685766e-05
 262    -1.8481964456594e-05
 263    1.9700244145925e-05
 264    1.3393533441924e-05
 265    -5.0419565695116e-06
 266    3.7388044794655e-05
 267    3.3630558520994e-05
 268    0.00014542935128158
 269    -0.00030133064068841
 270    0.0016121047564218
 271    0.0070009921176758
 272    0.00080974740025499
 273    0.0011153700598423
 274    -0.0026221205349118
 275    -0.0017704731922373
 276    0.00031651281603677
 277     0.000162304407441
 278    -0.00018881501518582
 279    0.00033054061299395
 280    0.00011896139372332