[Molden Format]
made by pyscf v[2.0.1]
[Atoms] (AU)
C   1   6     0.69100024066471     0.64692934207205    -3.48223131169301
H   2   1     2.68052439830868     1.13355088658700    -3.25784032593313
C   3   6    -0.36286361513219     0.85440132524594    -5.97030179418974
H   4   1    -2.35448549047279     0.36322488579172    -6.17995817793143
C   5   6     0.93697958957450     1.61209284601821    -8.05828437677121
H   6   1     0.96138501035509     3.61074187827952    -8.55401536893531
C   7   6     2.29833572157337    -0.09037665740906    -9.67215882917863
H   8   1     2.25763405404964    -2.08692321364337    -9.15074973557782
H   9   1     1.55630230933075    -1.92953025305990    12.99630010416247
C   10   6     0.75233899775814    -2.21270439606481    11.10705728102219
H   11   1    -0.43433408177274    -3.90944857546550    11.22216085340412
C   12   6     2.86362581178706    -2.63237380607947     9.17926416456045
H   13   1     4.39038949912609    -1.24955421540245     9.49899813497433
H   14   1     3.74629220191363    -4.48798724300892     9.47414880959024
C   15   6     2.02478325613682    -2.42177285709634     6.44560829588644
C   16   6     3.88048732735477    -3.58795445234514     4.61402886975252
C   17   6    -0.18412382258602    -1.30464291234259     5.76021113872346
C   18   6    -2.10044360464350    -0.26837831858460     7.71610340967100
C   19   6    -3.08956938670431     2.35282328359417     6.88693925039594
C   20   6    -4.37372924086464    -2.09766595989678     7.93610724222001
C   21   6    -0.83850430601230     0.06372213486173    10.33002307638377
H   22   1     0.38411922151109     1.74281358582432    10.27380136542181
H   23   1    -2.30980003007874     0.45460143924521    11.73986301809809
H   24   1     4.58527064644668    -5.38706904487420     5.36778158031719
H   25   1     5.54944938085014    -2.37631462192748     4.35398898413318
H   26   1     3.06633019150423    -3.94118377050688     2.75255466040884
H   27   1    -4.17727778763735     2.26573369139522     5.12914900961283
H   28   1    -1.52662344944051     3.68001877445626     6.59540397144508
H   29   1    -4.32916174397830     3.13643051467482     8.35225460090378
H   30   1    -5.32329548508442    -2.36691813602939     6.11583672749896
H   31   1    -5.77989366602257    -1.33896741843465     9.25748940450990
H   32   1    -3.79310905208926    -3.96389819310853     8.61386170102686
C   33   6    -1.01100794811226    -1.06331657314144     3.11929490449947
C   34   6     0.37686231036534    -0.33275864505552     1.09165013605873
H   35   1    -3.01671213906703    -1.40297922279997     2.77827895090944
C   36   6    -0.64382707979370    -0.11591880174385    -1.42063131251064
H   37   1     2.35569259782137     0.17174499283897     1.33641070251401
H   38   1    -2.63317482980319    -0.60229203511219    -1.66119700387645
C   39   6     3.61506927759443     0.57708357993929   -11.76916696671870
C   40   6     4.94068653136927    -1.30276865816170   -13.29098070185656
H   41   1     3.73162541044975     2.53269508104841   -12.39347992177894
O   42   8     6.15625203764207    -0.83635548426311   -15.19510343410387
H   43   1     4.77073908343657    -3.27989237609552   -12.58226454806003
[GTO]
1 0
 s    6 1.00
             3047.5249  0.0018347001629433
             457.36951    0.01403730124668
             103.94869   0.068842606114048
             29.210155    0.23218442062076
              9.286663    0.46794134155879
              3.163927    0.36231203217765
 s    3 1.00
             7.8682724   -0.11933240861517
             1.8812885   -0.16085421161283
             0.5442493     1.1434564825515
 s    1 1.00
             0.1687144                   1
 p    3 1.00
             7.8682724   0.068999095584993
             1.8812885    0.31642397975315
             0.5442493    0.74430825237435
 p    1 1.00
             0.1687144                   1
 d    1 1.00
                   0.8                   1

2 0
 s    3 1.00
             18.731137    0.03349459952309
             2.8253937    0.23472694665786
             0.6401217    0.81375731841339
 s    1 1.00
             0.1612778                   1

3 0
 s    6 1.00
             3047.5249  0.0018347001629433
             457.36951    0.01403730124668
             103.94869   0.068842606114048
             29.210155    0.23218442062076
              9.286663    0.46794134155879
              3.163927    0.36231203217765
 s    3 1.00
             7.8682724   -0.11933240861517
             1.8812885   -0.16085421161283
             0.5442493     1.1434564825515
 s    1 1.00
             0.1687144                   1
 p    3 1.00
             7.8682724   0.068999095584993
             1.8812885    0.31642397975315
             0.5442493    0.74430825237435
 p    1 1.00
             0.1687144                   1
 d    1 1.00
                   0.8                   1

4 0
 s    3 1.00
             18.731137    0.03349459952309
             2.8253937    0.23472694665786
             0.6401217    0.81375731841339
 s    1 1.00
             0.1612778                   1

5 0
 s    6 1.00
             3047.5249  0.0018347001629433
             457.36951    0.01403730124668
             103.94869   0.068842606114048
             29.210155    0.23218442062076
              9.286663    0.46794134155879
              3.163927    0.36231203217765
 s    3 1.00
             7.8682724   -0.11933240861517
             1.8812885   -0.16085421161283
             0.5442493     1.1434564825515
 s    1 1.00
             0.1687144                   1
 p    3 1.00
             7.8682724   0.068999095584993
             1.8812885    0.31642397975315
             0.5442493    0.74430825237435
 p    1 1.00
             0.1687144                   1
 d    1 1.00
                   0.8                   1

6 0
 s    3 1.00
             18.731137    0.03349459952309
             2.8253937    0.23472694665786
             0.6401217    0.81375731841339
 s    1 1.00
             0.1612778                   1

7 0
 s    6 1.00
             3047.5249  0.0018347001629433
             457.36951    0.01403730124668
             103.94869   0.068842606114048
             29.210155    0.23218442062076
              9.286663    0.46794134155879
              3.163927    0.36231203217765
 s    3 1.00
             7.8682724   -0.11933240861517
             1.8812885   -0.16085421161283
             0.5442493     1.1434564825515
 s    1 1.00
             0.1687144                   1
 p    3 1.00
             7.8682724   0.068999095584993
             1.8812885    0.31642397975315
             0.5442493    0.74430825237435
 p    1 1.00
             0.1687144                   1
 d    1 1.00
                   0.8                   1

8 0
 s    3 1.00
             18.731137    0.03349459952309
             2.8253937    0.23472694665786
             0.6401217    0.81375731841339
 s    1 1.00
             0.1612778                   1

9 0
 s    3 1.00
             18.731137    0.03349459952309
             2.8253937    0.23472694665786
             0.6401217    0.81375731841339
 s    1 1.00
             0.1612778                   1

10 0
 s    6 1.00
             3047.5249  0.0018347001629433
             457.36951    0.01403730124668
             103.94869   0.068842606114048
             29.210155    0.23218442062076
              9.286663    0.46794134155879
              3.163927    0.36231203217765
 s    3 1.00
             7.8682724   -0.11933240861517
             1.8812885   -0.16085421161283
             0.5442493     1.1434564825515
 s    1 1.00
             0.1687144                   1
 p    3 1.00
             7.8682724   0.068999095584993
             1.8812885    0.31642397975315
             0.5442493    0.74430825237435
 p    1 1.00
             0.1687144                   1
 d    1 1.00
                   0.8                   1

11 0
 s    3 1.00
             18.731137    0.03349459952309
             2.8253937    0.23472694665786
             0.6401217    0.81375731841339
 s    1 1.00
             0.1612778                   1

12 0
 s    6 1.00
             3047.5249  0.0018347001629433
             457.36951    0.01403730124668
             103.94869   0.068842606114048
             29.210155    0.23218442062076
              9.286663    0.46794134155879
              3.163927    0.36231203217765
 s    3 1.00
             7.8682724   -0.11933240861517
             1.8812885   -0.16085421161283
             0.5442493     1.1434564825515
 s    1 1.00
             0.1687144                   1
 p    3 1.00
             7.8682724   0.068999095584993
             1.8812885    0.31642397975315
             0.5442493    0.74430825237435
 p    1 1.00
             0.1687144                   1
 d    1 1.00
                   0.8                   1

13 0
 s    3 1.00
             18.731137    0.03349459952309
             2.8253937    0.23472694665786
             0.6401217    0.81375731841339
 s    1 1.00
             0.1612778                   1

14 0
 s    3 1.00
             18.731137    0.03349459952309
             2.8253937    0.23472694665786
             0.6401217    0.81375731841339
 s    1 1.00
             0.1612778                   1

15 0
 s    6 1.00
             3047.5249  0.0018347001629433
             457.36951    0.01403730124668
             103.94869   0.068842606114048
             29.210155    0.23218442062076
              9.286663    0.46794134155879
              3.163927    0.36231203217765
 s    3 1.00
             7.8682724   -0.11933240861517
             1.8812885   -0.16085421161283
             0.5442493     1.1434564825515
 s    1 1.00
             0.1687144                   1
 p    3 1.00
             7.8682724   0.068999095584993
             1.8812885    0.31642397975315
             0.5442493    0.74430825237435
 p    1 1.00
             0.1687144                   1
 d    1 1.00
                   0.8                   1

16 0
 s    6 1.00
             3047.5249  0.0018347001629433
             457.36951    0.01403730124668
             103.94869   0.068842606114048
             29.210155    0.23218442062076
              9.286663    0.46794134155879
              3.163927    0.36231203217765
 s    3 1.00
             7.8682724   -0.11933240861517
             1.8812885   -0.16085421161283
             0.5442493     1.1434564825515
 s    1 1.00
             0.1687144                   1
 p    3 1.00
             7.8682724   0.068999095584993
             1.8812885    0.31642397975315
             0.5442493    0.74430825237435
 p    1 1.00
             0.1687144                   1
 d    1 1.00
                   0.8                   1

17 0
 s    6 1.00
             3047.5249  0.0018347001629433
             457.36951    0.01403730124668
             103.94869   0.068842606114048
             29.210155    0.23218442062076
              9.286663    0.46794134155879
              3.163927    0.36231203217765
 s    3 1.00
             7.8682724   -0.11933240861517
             1.8812885   -0.16085421161283
             0.5442493     1.1434564825515
 s    1 1.00
             0.1687144                   1
 p    3 1.00
             7.8682724   0.068999095584993
             1.8812885    0.31642397975315
             0.5442493    0.74430825237435
 p    1 1.00
             0.1687144                   1
 d    1 1.00
                   0.8                   1

18 0
 s    6 1.00
             3047.5249  0.0018347001629433
             457.36951    0.01403730124668
             103.94869   0.068842606114048
             29.210155    0.23218442062076
              9.286663    0.46794134155879
              3.163927    0.36231203217765
 s    3 1.00
             7.8682724   -0.11933240861517
             1.8812885   -0.16085421161283
             0.5442493     1.1434564825515
 s    1 1.00
             0.1687144                   1
 p    3 1.00
             7.8682724   0.068999095584993
             1.8812885    0.31642397975315
             0.5442493    0.74430825237435
 p    1 1.00
             0.1687144                   1
 d    1 1.00
                   0.8                   1

19 0
 s    6 1.00
             3047.5249  0.0018347001629433
             457.36951    0.01403730124668
             103.94869   0.068842606114048
             29.210155    0.23218442062076
              9.286663    0.46794134155879
              3.163927    0.36231203217765
 s    3 1.00
             7.8682724   -0.11933240861517
             1.8812885   -0.16085421161283
             0.5442493     1.1434564825515
 s    1 1.00
             0.1687144                   1
 p    3 1.00
             7.8682724   0.068999095584993
             1.8812885    0.31642397975315
             0.5442493    0.74430825237435
 p    1 1.00
             0.1687144                   1
 d    1 1.00
                   0.8                   1

20 0
 s    6 1.00
             3047.5249  0.0018347001629433
             457.36951    0.01403730124668
             103.94869   0.068842606114048
             29.210155    0.23218442062076
              9.286663    0.46794134155879
              3.163927    0.36231203217765
 s    3 1.00
             7.8682724   -0.11933240861517
             1.8812885   -0.16085421161283
             0.5442493     1.1434564825515
 s    1 1.00
             0.1687144                   1
 p    3 1.00
             7.8682724   0.068999095584993
             1.8812885    0.31642397975315
             0.5442493    0.74430825237435
 p    1 1.00
             0.1687144                   1
 d    1 1.00
                   0.8                   1

21 0
 s    6 1.00
             3047.5249  0.0018347001629433
             457.36951    0.01403730124668
             103.94869   0.068842606114048
             29.210155    0.23218442062076
              9.286663    0.46794134155879
              3.163927    0.36231203217765
 s    3 1.00
             7.8682724   -0.11933240861517
             1.8812885   -0.16085421161283
             0.5442493     1.1434564825515
 s    1 1.00
             0.1687144                   1
 p    3 1.00
             7.8682724   0.068999095584993
             1.8812885    0.31642397975315
             0.5442493    0.74430825237435
 p    1 1.00
             0.1687144                   1
 d    1 1.00
                   0.8                   1

22 0
 s    3 1.00
             18.731137    0.03349459952309
             2.8253937    0.23472694665786
             0.6401217    0.81375731841339
 s    1 1.00
             0.1612778                   1

23 0
 s    3 1.00
             18.731137    0.03349459952309
             2.8253937    0.23472694665786
             0.6401217    0.81375731841339
 s    1 1.00
             0.1612778                   1

24 0
 s    3 1.00
             18.731137    0.03349459952309
             2.8253937    0.23472694665786
             0.6401217    0.81375731841339
 s    1 1.00
             0.1612778                   1

25 0
 s    3 1.00
             18.731137    0.03349459952309
             2.8253937    0.23472694665786
             0.6401217    0.81375731841339
 s    1 1.00
             0.1612778                   1

26 0
 s    3 1.00
             18.731137    0.03349459952309
             2.8253937    0.23472694665786
             0.6401217    0.81375731841339
 s    1 1.00
             0.1612778                   1

27 0
 s    3 1.00
             18.731137    0.03349459952309
             2.8253937    0.23472694665786
             0.6401217    0.81375731841339
 s    1 1.00
             0.1612778                   1

28 0
 s    3 1.00
             18.731137    0.03349459952309
             2.8253937    0.23472694665786
             0.6401217    0.81375731841339
 s    1 1.00
             0.1612778                   1

29 0
 s    3 1.00
             18.731137    0.03349459952309
             2.8253937    0.23472694665786
             0.6401217    0.81375731841339
 s    1 1.00
             0.1612778                   1

30 0
 s    3 1.00
             18.731137    0.03349459952309
             2.8253937    0.23472694665786
             0.6401217    0.81375731841339
 s    1 1.00
             0.1612778                   1

31 0
 s    3 1.00
             18.731137    0.03349459952309
             2.8253937    0.23472694665786
             0.6401217    0.81375731841339
 s    1 1.00
             0.1612778                   1

32 0
 s    3 1.00
             18.731137    0.03349459952309
             2.8253937    0.23472694665786
             0.6401217    0.81375731841339
 s    1 1.00
             0.1612778                   1

33 0
 s    6 1.00
             3047.5249  0.0018347001629433
             457.36951    0.01403730124668
             103.94869   0.068842606114048
             29.210155    0.23218442062076
              9.286663    0.46794134155879
              3.163927    0.36231203217765
 s    3 1.00
             7.8682724   -0.11933240861517
             1.8812885   -0.16085421161283
             0.5442493     1.1434564825515
 s    1 1.00
             0.1687144                   1
 p    3 1.00
             7.8682724   0.068999095584993
             1.8812885    0.31642397975315
             0.5442493    0.74430825237435
 p    1 1.00
             0.1687144                   1
 d    1 1.00
                   0.8                   1

34 0
 s    6 1.00
             3047.5249  0.0018347001629433
             457.36951    0.01403730124668
             103.94869   0.068842606114048
             29.210155    0.23218442062076
              9.286663    0.46794134155879
              3.163927    0.36231203217765
 s    3 1.00
             7.8682724   -0.11933240861517
             1.8812885   -0.16085421161283
             0.5442493     1.1434564825515
 s    1 1.00
             0.1687144                   1
 p    3 1.00
             7.8682724   0.068999095584993
             1.8812885    0.31642397975315
             0.5442493    0.74430825237435
 p    1 1.00
             0.1687144                   1
 d    1 1.00
                   0.8                   1

35 0
 s    3 1.00
             18.731137    0.03349459952309
             2.8253937    0.23472694665786
             0.6401217    0.81375731841339
 s    1 1.00
             0.1612778                   1

36 0
 s    6 1.00
             3047.5249  0.0018347001629433
             457.36951    0.01403730124668
             103.94869   0.068842606114048
             29.210155    0.23218442062076
              9.286663    0.46794134155879
              3.163927    0.36231203217765
 s    3 1.00
             7.8682724   -0.11933240861517
             1.8812885   -0.16085421161283
             0.5442493     1.1434564825515
 s    1 1.00
             0.1687144                   1
 p    3 1.00
             7.8682724   0.068999095584993
             1.8812885    0.31642397975315
             0.5442493    0.74430825237435
 p    1 1.00
             0.1687144                   1
 d    1 1.00
                   0.8                   1

37 0
 s    3 1.00
             18.731137    0.03349459952309
             2.8253937    0.23472694665786
             0.6401217    0.81375731841339
 s    1 1.00
             0.1612778                   1

38 0
 s    3 1.00
             18.731137    0.03349459952309
             2.8253937    0.23472694665786
             0.6401217    0.81375731841339
 s    1 1.00
             0.1612778                   1

39 0
 s    6 1.00
             3047.5249  0.0018347001629433
             457.36951    0.01403730124668
             103.94869   0.068842606114048
             29.210155    0.23218442062076
              9.286663    0.46794134155879
              3.163927    0.36231203217765
 s    3 1.00
             7.8682724   -0.11933240861517
             1.8812885   -0.16085421161283
             0.5442493     1.1434564825515
 s    1 1.00
             0.1687144                   1
 p    3 1.00
             7.8682724   0.068999095584993
             1.8812885    0.31642397975315
             0.5442493    0.74430825237435
 p    1 1.00
             0.1687144                   1
 d    1 1.00
                   0.8                   1

40 0
 s    6 1.00
             3047.5249  0.0018347001629433
             457.36951    0.01403730124668
             103.94869   0.068842606114048
             29.210155    0.23218442062076
              9.286663    0.46794134155879
              3.163927    0.36231203217765
 s    3 1.00
             7.8682724   -0.11933240861517
             1.8812885   -0.16085421161283
             0.5442493     1.1434564825515
 s    1 1.00
             0.1687144                   1
 p    3 1.00
             7.8682724   0.068999095584993
             1.8812885    0.31642397975315
             0.5442493    0.74430825237435
 p    1 1.00
             0.1687144                   1
 d    1 1.00
                   0.8                   1

41 0
 s    3 1.00
             18.731137    0.03349459952309
             2.8253937    0.23472694665786
             0.6401217    0.81375731841339
 s    1 1.00
             0.1612778                   1

42 0
 s    6 1.00
             5484.6717   0.001831099805527
             825.23495   0.013950098518422
             188.04696    0.06844509273075
               52.9645    0.23271427528445
              16.89757    0.47019295006289
             5.7996353    0.35852086192309
 s    3 1.00
             15.539616   -0.11077750382508
             3.5999336   -0.14802630511126
             1.0137618     1.1307670390447
 s    1 1.00
             0.2700058                   1
 p    3 1.00
             15.539616   0.070874299543311
             3.5999336    0.33975279781076
             1.0137618    0.72715859531445
 p    1 1.00
             0.2700058                   1
 d    1 1.00
                   0.8                   1

43 0
 s    3 1.00
             18.731137    0.03349459952309
             2.8253937    0.23472694665786
             0.6401217    0.81375731841339
 s    1 1.00
             0.1612778                   1

[5d]
[7f]
[9g]

[MO]
 Sym= A
 Ene=               0
 Spin= Alpha
 Occup=    1.00000
   1    3.7169560855036e-07
   2    1.1706131923773e-05
   3    7.6206196534236e-06
   4    -2.7410349467652e-06
   5    1.739282782588e-05
   6    -8.7225231214972e-06
   7    -2.7250616734067e-05
   8    -5.1947810470837e-05
   9    0.00022190822879262
  10    -1.4674304341197e-07
  11    -6.1875973926538e-06
  12    2.2277308907644e-07
  13    -7.3727040318902e-06
  14    4.0498405886609e-06
  15    8.8705520198537e-06
  16    -5.6614052866996e-06
  17    -2.4795281484695e-06
  18    -0.00010183749790091
  19    -0.00025215520893678
  20    -3.4614413739967e-05
  21    -1.5366728215702e-05
  22    4.7554579110392e-05
  23    -0.00010376729439312
  24    5.245049787638e-05
  25    0.00034791493978057
  26    -1.0400504113138e-05
  27    1.1690630241364e-05
  28    -5.0298074212609e-06
  29    -2.2747166382764e-05
  30    -1.0109597879244e-06
  31    7.9801684091026e-06
  32    -1.6372549401775e-05
  33    -5.5682245992789e-05
  34    -0.00015174054503449
  35    0.0025962142480868
  36    8.9632011512604e-05
  37    -6.3839505539459e-05
  38    -0.00013181754517168
  39    0.00035710619531991
  40    -0.0011503761146626
  41    -0.00028791396937593
  42    8.6437489367543e-06
  43    -6.2623121845279e-05
  44    3.6369370134883e-05
  45    -1.5728014660003e-05
  46    -3.6474865077932e-05
  47    7.7052156958987e-06
  48    0.00015784524766143
  49    5.2624868580248e-05
  50    -0.00026335912543663
  51    -0.0021372518764113
  52    -0.00024202639123622
  53    0.0002384143432423
  54    0.00030643024547504
  55     0.001051634497348
  56    -0.0013946535783746
  57      -0.0012253263641
  58    1.744494615353e-05
  59    -1.4170926999056e-05
  60    -9.9880767595375e-05
  61    -1.1675645691731e-05
  62    6.4300661804497e-05
  63    -0.00027926947175024
  64    -9.1460153243487e-05
  65    7.2183749521229e-08
  66    -8.7125947880269e-08
  67    -4.5401303437145e-09
  68    4.5197059593886e-07
  69    -1.6504122365386e-06
  70    -2.4849846675106e-09
  71    1.0484740154669e-07
  72    -2.072009144743e-07
  73    9.5559434714756e-08
  74    -1.1998919483072e-06
  75    2.3891322975987e-07
  76    2.7796331341724e-08
  77    5.1038128155955e-08
  78    -2.1122735238369e-08
  79    -4.2988661618111e-08
  80    5.2738997022748e-08
  81    -4.7118967573024e-08
  82    -2.4482599183286e-07
  83    -5.8183732795625e-08
  84    1.4279751296021e-07
  85    8.6882065435218e-06
  86    -6.4855133111779e-07
  87    -1.7907797183697e-07
  88    -6.6749032989826e-07
  89    -2.215445596032e-06
  90    2.7931517874786e-06
  91    -2.4386428896262e-06
  92    -6.0323441785687e-08
  93    1.0399764476801e-07
  94    -2.7847445708655e-07
  95    -5.4347629578181e-08
  96    3.2385002537673e-08
  97    -8.1402473003009e-07
  98    -1.2668056652156e-06
  99    1.7283224892815e-07
 100    1.0094636844226e-06
 101    1.9344896335368e-07
 102    1.7842095884921e-07
 103    -8.8072891189933e-06
 104    1.2207132538355e-06
 105    2.1124439924216e-06
 106    5.296239370931e-07
 107    1.1962324028981e-05
 108    -8.6332616723827e-06
 109    -1.8469138625801e-05
 110    3.4647621030591e-07
 111    3.4032630610763e-07
 112    -1.5149819446805e-07
 113    -2.3767998435454e-07
 114    2.5470378566263e-07
 115    3.6322245844659e-07
 116    2.2646721759754e-06
 117    -2.1223056556689e-05
 118    5.4021019539361e-07
 119    -7.4355467716278e-07
 120    -7.5035967007665e-08
 121    4.8063626262753e-06
 122    -4.780568181858e-07
 123    -1.228107529894e-06
 124    4.8025908697308e-08
 125    1.9656655760454e-07
 126    8.1792949425409e-08
 127    -1.3402642826983e-07
 128    1.4400553200724e-07
 129    5.2767566040588e-07
 130    5.1648544686207e-06
 131    -3.0968223011155e-05
 132    -1.7749499023958e-07
 133    7.7008699872752e-07
 134    -1.9629594081422e-06
 135    1.4456978776861e-05
 136    1.0433037526631e-06
 137    4.7846433990578e-05
 138    -1.3793718352635e-06
 139    -9.948830958353e-07
 140    1.0489988339176e-07
 141    -1.4036762411554e-07
 142    8.8431878447612e-08
 143    1.1266624398606e-07
 144    2.6195906865938e-06
 145    -1.1265682677945e-05
 146    2.5367466022986e-07
 147    -3.7948840388796e-07
 148    -8.5929274318567e-07
 149    -6.7230629387171e-06
 150    3.5448371844253e-06
 151    1.3406935189848e-06
 152    5.5271773937474e-07
 153    1.8614662361269e-07
 154    7.7407553476691e-08
 155    -3.9070683002893e-07
 156    4.490138924595e-07
 157    -1.4201783546816e-07
 158    -3.6506516928355e-07
 159    2.3893920935112e-07
 160    -4.6644299230158e-07
 161    5.5038221115435e-08
 162    -3.2480112093198e-07
 163    3.3923291592931e-06
 164    3.4234384570204e-08
 165    -6.36219414235e-07
 166    -2.987976796447e-07
 167    1.5267544504311e-07
 168    -2.5549214016206e-08
 169     7.03608642832e-08
 170    -1.7863720250275e-07
 171    -2.7569326405339e-08
 172    2.4810763724256e-07
 173    1.0874970902964e-06
 174    3.7975944734463e-07
 175    8.1863580396763e-08
 176    -3.6692122056295e-07
 177    2.1250158786043e-07
 178    -1.0557814145522e-06
 179    1.0964743918937e-06
 180    -8.2056973067172e-08
 181    -1.5108188768843e-07
 182    -2.7873766960841e-08
 183    2.1811662142871e-07
 184    -1.1179514064667e-07
 185     2.11983684042e-07
 186    1.6283300540556e-06
 187    -1.1280758926661e-06
 188    1.3796918697405e-07
 189    -6.6524308922125e-08
 190    -3.8576151797397e-07
 191    -1.1587132109414e-06
 192    -6.2361171862597e-07
 193    3.2716741779438e-06
 194    -1.6286407821157e-07
 195    -1.6397212855471e-08
 196    -1.0966353380982e-07
 197    -4.4229276379321e-08
 198    3.8495349239444e-08
 199    3.5001446489403e-07
 200    6.9095851792318e-07
 201    1.4989982397633e-07
 202    -1.4972864589295e-06
 203    1.2936131845191e-06
 204    1.8109162098008e-06
 205    -1.7424778015765e-07
 206    8.0008827259516e-07
 207    -6.5068356667445e-07
 208    6.7982820092651e-06
 209    -4.5524536858936e-07
 210    2.477210730689e-06
 211    -2.2286710585622e-07
 212    -1.796312887571e-06
 213    -1.5473753915237e-08
 214    9.0651288871012e-07
 215    2.2841279160615e-07
 216    -5.6613053003686e-07
 217    -1.0736364888552e-07
 218    -3.8992685405215e-07
 219    -1.4949860292788e-07
 220    -7.6657515211229e-07
 221    5.207913021903e-07
 222    4.6762893951616e-06
 223    2.0895301459992e-06
 224    7.0238983796677e-07
 225    -4.6980432670414e-06
 226    -2.8793699089129e-06
 227    -5.6623437256071e-06
 228    -2.1538641309252e-05
 229    5.6720758003312e-05
 230    6.7821942362705e-07
 231    2.4136064972172e-06
 232    1.284908919839e-06
 233    -1.0039447169669e-06
 234    -1.7448932610548e-06
 235    3.8481504024921e-07
 236    6.3985887327774e-06
 237    -5.9778241861195e-06
 238    7.6112579316235e-07
 239    -3.0703809918956e-06
 240    -3.5753219262844e-06
 241    1.1192841535244e-05
 242    8.821671466503e-07
 243    4.8971131402609e-05
 244    -1.0223189825866e-06
 245    -3.6888850519295e-06
 246    -1.7852350816693e-06
 247    -1.6359573232226e-06
 248    -7.3790043251534e-07
 249    2.4476505271405e-06
 250    -5.913390505123e-06
 251    2.7394059281057e-06
 252    1.7427306424302e-05
 253    -0.00016122992753159
 254    -6.301558628276e-06
 255    1.8576876302888e-05
 256    2.9638809966593e-07
 257    -7.1686669202552e-05
 258    -4.5564333281648e-05
 259    0.00014357550619179
 260    -1.5925204937288e-06
 261    7.5499611854841e-06
 262    2.2652655414259e-06
 263    -5.1036665564586e-06
 264    -2.710996518919e-06
 265    2.7738472647148e-06
 266    -1.593850710843e-05
 267    4.5337407392846e-06
 268    -2.2491612031458e-05
 269    4.5962984792118e-05
 270    -7.3408442074307e-05
 271    -0.0019164486626727
 272    7.9015452471906e-05
 273    0.00015911152718057
 274    -0.00013807651774558
 275    -0.0011639098770798
 276    -0.00033444955478835
 277    0.0018131327976935
 278    -0.00012768677198139
 279    0.00013374721784701