[Molden Format]
made by pyscf v[2.0.1]
[Atoms] (AU)
C   1   6     0.69100024066471     0.64692934207205    -3.48223131169301
H   2   1     2.68052439830868     1.13355088658700    -3.25784032593313
C   3   6    -0.36286361513219     0.85440132524594    -5.97030179418974
H   4   1    -2.35448549047279     0.36322488579172    -6.17995817793143
C   5   6     0.93697958957450     1.61209284601821    -8.05828437677121
H   6   1    -0.06960811584452     2.58702669474359    -9.56733307637730
C   7   6     3.59571274713804     1.19684402678434    -8.39738626626495
H   8   1     4.57899779978681     0.21871567749258    -6.86894337963000
H   9   1     1.55630230933075    -1.92953025305990    12.99630010416247
C   10   6     0.75233899775814    -2.21270439606481    11.10705728102219
H   11   1    -0.43433408177274    -3.90944857546550    11.22216085340412
C   12   6     2.86362581178706    -2.63237380607947     9.17926416456045
H   13   1     4.39038949912609    -1.24955421540245     9.49899813497433
H   14   1     3.74629220191363    -4.48798724300892     9.47414880959024
C   15   6     2.02478325613682    -2.42177285709634     6.44560829588644
C   16   6     3.88048732735477    -3.58795445234514     4.61402886975252
C   17   6    -0.18412382258602    -1.30464291234259     5.76021113872346
C   18   6    -2.10044360464350    -0.26837831858460     7.71610340967100
C   19   6    -3.08956938670431     2.35282328359417     6.88693925039594
C   20   6    -4.37372924086464    -2.09766595989678     7.93610724222001
C   21   6    -0.83850430601230     0.06372213486173    10.33002307638377
H   22   1     0.38411922151109     1.74281358582432    10.27380136542181
H   23   1    -2.30980003007874     0.45460143924521    11.73986301809809
H   24   1     4.58527064644668    -5.38706904487420     5.36778158031719
H   25   1     5.54944938085014    -2.37631462192748     4.35398898413318
H   26   1     3.06633019150423    -3.94118377050688     2.75255466040884
H   27   1    -4.17727778763735     2.26573369139522     5.12914900961283
H   28   1    -1.52662344944051     3.68001877445626     6.59540397144508
H   29   1    -4.32916174397830     3.13643051467482     8.35225460090378
H   30   1    -5.32329548508442    -2.36691813602939     6.11583672749896
H   31   1    -5.77989366602257    -1.33896741843465     9.25748940450990
H   32   1    -3.79310905208926    -3.96389819310853     8.61386170102686
C   33   6    -1.01100794811226    -1.06331657314144     3.11929490449947
C   34   6     0.37686231036534    -0.33275864505552     1.09165013605873
H   35   1    -3.01671213906703    -1.40297922279997     2.77827895090944
C   36   6    -0.64382707979370    -0.11591880174385    -1.42063131251064
H   37   1     2.35569259782137     0.17174499283897     1.33641070251401
H   38   1    -2.63317482980319    -0.60229203511219    -1.66119700387645
C   39   6     4.96665860975130     1.91437223239220   -10.44247655051683
C   40   6     7.67160233174465     1.40206885234173   -10.60935163126053
H   41   1     4.10375913642339     2.89528826049847   -12.03023490303406
O   42   8     9.01623610133373     1.99111078946158   -12.38862500825095
H   43   1     8.47573431044455     0.39495244048141    -8.94223819440966
[GTO]
1 0
 s    6 1.00
             3047.5249  0.0018347001629433
             457.36951    0.01403730124668
             103.94869   0.068842606114048
             29.210155    0.23218442062076
              9.286663    0.46794134155879
              3.163927    0.36231203217765
 s    3 1.00
             7.8682724   -0.11933240861517
             1.8812885   -0.16085421161283
             0.5442493     1.1434564825515
 s    1 1.00
             0.1687144                   1
 p    3 1.00
             7.8682724   0.068999095584993
             1.8812885    0.31642397975315
             0.5442493    0.74430825237435
 p    1 1.00
             0.1687144                   1
 d    1 1.00
                   0.8                   1

2 0
 s    3 1.00
             18.731137    0.03349459952309
             2.8253937    0.23472694665786
             0.6401217    0.81375731841339
 s    1 1.00
             0.1612778                   1

3 0
 s    6 1.00
             3047.5249  0.0018347001629433
             457.36951    0.01403730124668
             103.94869   0.068842606114048
             29.210155    0.23218442062076
              9.286663    0.46794134155879
              3.163927    0.36231203217765
 s    3 1.00
             7.8682724   -0.11933240861517
             1.8812885   -0.16085421161283
             0.5442493     1.1434564825515
 s    1 1.00
             0.1687144                   1
 p    3 1.00
             7.8682724   0.068999095584993
             1.8812885    0.31642397975315
             0.5442493    0.74430825237435
 p    1 1.00
             0.1687144                   1
 d    1 1.00
                   0.8                   1

4 0
 s    3 1.00
             18.731137    0.03349459952309
             2.8253937    0.23472694665786
             0.6401217    0.81375731841339
 s    1 1.00
             0.1612778                   1

5 0
 s    6 1.00
             3047.5249  0.0018347001629433
             457.36951    0.01403730124668
             103.94869   0.068842606114048
             29.210155    0.23218442062076
              9.286663    0.46794134155879
              3.163927    0.36231203217765
 s    3 1.00
             7.8682724   -0.11933240861517
             1.8812885   -0.16085421161283
             0.5442493     1.1434564825515
 s    1 1.00
             0.1687144                   1
 p    3 1.00
             7.8682724   0.068999095584993
             1.8812885    0.31642397975315
             0.5442493    0.74430825237435
 p    1 1.00
             0.1687144                   1
 d    1 1.00
                   0.8                   1

6 0
 s    3 1.00
             18.731137    0.03349459952309
             2.8253937    0.23472694665786
             0.6401217    0.81375731841339
 s    1 1.00
             0.1612778                   1

7 0
 s    6 1.00
             3047.5249  0.0018347001629433
             457.36951    0.01403730124668
             103.94869   0.068842606114048
             29.210155    0.23218442062076
              9.286663    0.46794134155879
              3.163927    0.36231203217765
 s    3 1.00
             7.8682724   -0.11933240861517
             1.8812885   -0.16085421161283
             0.5442493     1.1434564825515
 s    1 1.00
             0.1687144                   1
 p    3 1.00
             7.8682724   0.068999095584993
             1.8812885    0.31642397975315
             0.5442493    0.74430825237435
 p    1 1.00
             0.1687144                   1
 d    1 1.00
                   0.8                   1

8 0
 s    3 1.00
             18.731137    0.03349459952309
             2.8253937    0.23472694665786
             0.6401217    0.81375731841339
 s    1 1.00
             0.1612778                   1

9 0
 s    3 1.00
             18.731137    0.03349459952309
             2.8253937    0.23472694665786
             0.6401217    0.81375731841339
 s    1 1.00
             0.1612778                   1

10 0
 s    6 1.00
             3047.5249  0.0018347001629433
             457.36951    0.01403730124668
             103.94869   0.068842606114048
             29.210155    0.23218442062076
              9.286663    0.46794134155879
              3.163927    0.36231203217765
 s    3 1.00
             7.8682724   -0.11933240861517
             1.8812885   -0.16085421161283
             0.5442493     1.1434564825515
 s    1 1.00
             0.1687144                   1
 p    3 1.00
             7.8682724   0.068999095584993
             1.8812885    0.31642397975315
             0.5442493    0.74430825237435
 p    1 1.00
             0.1687144                   1
 d    1 1.00
                   0.8                   1

11 0
 s    3 1.00
             18.731137    0.03349459952309
             2.8253937    0.23472694665786
             0.6401217    0.81375731841339
 s    1 1.00
             0.1612778                   1

12 0
 s    6 1.00
             3047.5249  0.0018347001629433
             457.36951    0.01403730124668
             103.94869   0.068842606114048
             29.210155    0.23218442062076
              9.286663    0.46794134155879
              3.163927    0.36231203217765
 s    3 1.00
             7.8682724   -0.11933240861517
             1.8812885   -0.16085421161283
             0.5442493     1.1434564825515
 s    1 1.00
             0.1687144                   1
 p    3 1.00
             7.8682724   0.068999095584993
             1.8812885    0.31642397975315
             0.5442493    0.74430825237435
 p    1 1.00
             0.1687144                   1
 d    1 1.00
                   0.8                   1

13 0
 s    3 1.00
             18.731137    0.03349459952309
             2.8253937    0.23472694665786
             0.6401217    0.81375731841339
 s    1 1.00
             0.1612778                   1

14 0
 s    3 1.00
             18.731137    0.03349459952309
             2.8253937    0.23472694665786
             0.6401217    0.81375731841339
 s    1 1.00
             0.1612778                   1

15 0
 s    6 1.00
             3047.5249  0.0018347001629433
             457.36951    0.01403730124668
             103.94869   0.068842606114048
             29.210155    0.23218442062076
              9.286663    0.46794134155879
              3.163927    0.36231203217765
 s    3 1.00
             7.8682724   -0.11933240861517
             1.8812885   -0.16085421161283
             0.5442493     1.1434564825515
 s    1 1.00
             0.1687144                   1
 p    3 1.00
             7.8682724   0.068999095584993
             1.8812885    0.31642397975315
             0.5442493    0.74430825237435
 p    1 1.00
             0.1687144                   1
 d    1 1.00
                   0.8                   1

16 0
 s    6 1.00
             3047.5249  0.0018347001629433
             457.36951    0.01403730124668
             103.94869   0.068842606114048
             29.210155    0.23218442062076
              9.286663    0.46794134155879
              3.163927    0.36231203217765
 s    3 1.00
             7.8682724   -0.11933240861517
             1.8812885   -0.16085421161283
             0.5442493     1.1434564825515
 s    1 1.00
             0.1687144                   1
 p    3 1.00
             7.8682724   0.068999095584993
             1.8812885    0.31642397975315
             0.5442493    0.74430825237435
 p    1 1.00
             0.1687144                   1
 d    1 1.00
                   0.8                   1

17 0
 s    6 1.00
             3047.5249  0.0018347001629433
             457.36951    0.01403730124668
             103.94869   0.068842606114048
             29.210155    0.23218442062076
              9.286663    0.46794134155879
              3.163927    0.36231203217765
 s    3 1.00
             7.8682724   -0.11933240861517
             1.8812885   -0.16085421161283
             0.5442493     1.1434564825515
 s    1 1.00
             0.1687144                   1
 p    3 1.00
             7.8682724   0.068999095584993
             1.8812885    0.31642397975315
             0.5442493    0.74430825237435
 p    1 1.00
             0.1687144                   1
 d    1 1.00
                   0.8                   1

18 0
 s    6 1.00
             3047.5249  0.0018347001629433
             457.36951    0.01403730124668
             103.94869   0.068842606114048
             29.210155    0.23218442062076
              9.286663    0.46794134155879
              3.163927    0.36231203217765
 s    3 1.00
             7.8682724   -0.11933240861517
             1.8812885   -0.16085421161283
             0.5442493     1.1434564825515
 s    1 1.00
             0.1687144                   1
 p    3 1.00
             7.8682724   0.068999095584993
             1.8812885    0.31642397975315
             0.5442493    0.74430825237435
 p    1 1.00
             0.1687144                   1
 d    1 1.00
                   0.8                   1

19 0
 s    6 1.00
             3047.5249  0.0018347001629433
             457.36951    0.01403730124668
             103.94869   0.068842606114048
             29.210155    0.23218442062076
              9.286663    0.46794134155879
              3.163927    0.36231203217765
 s    3 1.00
             7.8682724   -0.11933240861517
             1.8812885   -0.16085421161283
             0.5442493     1.1434564825515
 s    1 1.00
             0.1687144                   1
 p    3 1.00
             7.8682724   0.068999095584993
             1.8812885    0.31642397975315
             0.5442493    0.74430825237435
 p    1 1.00
             0.1687144                   1
 d    1 1.00
                   0.8                   1

20 0
 s    6 1.00
             3047.5249  0.0018347001629433
             457.36951    0.01403730124668
             103.94869   0.068842606114048
             29.210155    0.23218442062076
              9.286663    0.46794134155879
              3.163927    0.36231203217765
 s    3 1.00
             7.8682724   -0.11933240861517
             1.8812885   -0.16085421161283
             0.5442493     1.1434564825515
 s    1 1.00
             0.1687144                   1
 p    3 1.00
             7.8682724   0.068999095584993
             1.8812885    0.31642397975315
             0.5442493    0.74430825237435
 p    1 1.00
             0.1687144                   1
 d    1 1.00
                   0.8                   1

21 0
 s    6 1.00
             3047.5249  0.0018347001629433
             457.36951    0.01403730124668
             103.94869   0.068842606114048
             29.210155    0.23218442062076
              9.286663    0.46794134155879
              3.163927    0.36231203217765
 s    3 1.00
             7.8682724   -0.11933240861517
             1.8812885   -0.16085421161283
             0.5442493     1.1434564825515
 s    1 1.00
             0.1687144                   1
 p    3 1.00
             7.8682724   0.068999095584993
             1.8812885    0.31642397975315
             0.5442493    0.74430825237435
 p    1 1.00
             0.1687144                   1
 d    1 1.00
                   0.8                   1

22 0
 s    3 1.00
             18.731137    0.03349459952309
             2.8253937    0.23472694665786
             0.6401217    0.81375731841339
 s    1 1.00
             0.1612778                   1

23 0
 s    3 1.00
             18.731137    0.03349459952309
             2.8253937    0.23472694665786
             0.6401217    0.81375731841339
 s    1 1.00
             0.1612778                   1

24 0
 s    3 1.00
             18.731137    0.03349459952309
             2.8253937    0.23472694665786
             0.6401217    0.81375731841339
 s    1 1.00
             0.1612778                   1

25 0
 s    3 1.00
             18.731137    0.03349459952309
             2.8253937    0.23472694665786
             0.6401217    0.81375731841339
 s    1 1.00
             0.1612778                   1

26 0
 s    3 1.00
             18.731137    0.03349459952309
             2.8253937    0.23472694665786
             0.6401217    0.81375731841339
 s    1 1.00
             0.1612778                   1

27 0
 s    3 1.00
             18.731137    0.03349459952309
             2.8253937    0.23472694665786
             0.6401217    0.81375731841339
 s    1 1.00
             0.1612778                   1

28 0
 s    3 1.00
             18.731137    0.03349459952309
             2.8253937    0.23472694665786
             0.6401217    0.81375731841339
 s    1 1.00
             0.1612778                   1

29 0
 s    3 1.00
             18.731137    0.03349459952309
             2.8253937    0.23472694665786
             0.6401217    0.81375731841339
 s    1 1.00
             0.1612778                   1

30 0
 s    3 1.00
             18.731137    0.03349459952309
             2.8253937    0.23472694665786
             0.6401217    0.81375731841339
 s    1 1.00
             0.1612778                   1

31 0
 s    3 1.00
             18.731137    0.03349459952309
             2.8253937    0.23472694665786
             0.6401217    0.81375731841339
 s    1 1.00
             0.1612778                   1

32 0
 s    3 1.00
             18.731137    0.03349459952309
             2.8253937    0.23472694665786
             0.6401217    0.81375731841339
 s    1 1.00
             0.1612778                   1

33 0
 s    6 1.00
             3047.5249  0.0018347001629433
             457.36951    0.01403730124668
             103.94869   0.068842606114048
             29.210155    0.23218442062076
              9.286663    0.46794134155879
              3.163927    0.36231203217765
 s    3 1.00
             7.8682724   -0.11933240861517
             1.8812885   -0.16085421161283
             0.5442493     1.1434564825515
 s    1 1.00
             0.1687144                   1
 p    3 1.00
             7.8682724   0.068999095584993
             1.8812885    0.31642397975315
             0.5442493    0.74430825237435
 p    1 1.00
             0.1687144                   1
 d    1 1.00
                   0.8                   1

34 0
 s    6 1.00
             3047.5249  0.0018347001629433
             457.36951    0.01403730124668
             103.94869   0.068842606114048
             29.210155    0.23218442062076
              9.286663    0.46794134155879
              3.163927    0.36231203217765
 s    3 1.00
             7.8682724   -0.11933240861517
             1.8812885   -0.16085421161283
             0.5442493     1.1434564825515
 s    1 1.00
             0.1687144                   1
 p    3 1.00
             7.8682724   0.068999095584993
             1.8812885    0.31642397975315
             0.5442493    0.74430825237435
 p    1 1.00
             0.1687144                   1
 d    1 1.00
                   0.8                   1

35 0
 s    3 1.00
             18.731137    0.03349459952309
             2.8253937    0.23472694665786
             0.6401217    0.81375731841339
 s    1 1.00
             0.1612778                   1

36 0
 s    6 1.00
             3047.5249  0.0018347001629433
             457.36951    0.01403730124668
             103.94869   0.068842606114048
             29.210155    0.23218442062076
              9.286663    0.46794134155879
              3.163927    0.36231203217765
 s    3 1.00
             7.8682724   -0.11933240861517
             1.8812885   -0.16085421161283
             0.5442493     1.1434564825515
 s    1 1.00
             0.1687144                   1
 p    3 1.00
             7.8682724   0.068999095584993
             1.8812885    0.31642397975315
             0.5442493    0.74430825237435
 p    1 1.00
             0.1687144                   1
 d    1 1.00
                   0.8                   1

37 0
 s    3 1.00
             18.731137    0.03349459952309
             2.8253937    0.23472694665786
             0.6401217    0.81375731841339
 s    1 1.00
             0.1612778                   1

38 0
 s    3 1.00
             18.731137    0.03349459952309
             2.8253937    0.23472694665786
             0.6401217    0.81375731841339
 s    1 1.00
             0.1612778                   1

39 0
 s    6 1.00
             3047.5249  0.0018347001629433
             457.36951    0.01403730124668
             103.94869   0.068842606114048
             29.210155    0.23218442062076
              9.286663    0.46794134155879
              3.163927    0.36231203217765
 s    3 1.00
             7.8682724   -0.11933240861517
             1.8812885   -0.16085421161283
             0.5442493     1.1434564825515
 s    1 1.00
             0.1687144                   1
 p    3 1.00
             7.8682724   0.068999095584993
             1.8812885    0.31642397975315
             0.5442493    0.74430825237435
 p    1 1.00
             0.1687144                   1
 d    1 1.00
                   0.8                   1

40 0
 s    6 1.00
             3047.5249  0.0018347001629433
             457.36951    0.01403730124668
             103.94869   0.068842606114048
             29.210155    0.23218442062076
              9.286663    0.46794134155879
              3.163927    0.36231203217765
 s    3 1.00
             7.8682724   -0.11933240861517
             1.8812885   -0.16085421161283
             0.5442493     1.1434564825515
 s    1 1.00
             0.1687144                   1
 p    3 1.00
             7.8682724   0.068999095584993
             1.8812885    0.31642397975315
             0.5442493    0.74430825237435
 p    1 1.00
             0.1687144                   1
 d    1 1.00
                   0.8                   1

41 0
 s    3 1.00
             18.731137    0.03349459952309
             2.8253937    0.23472694665786
             0.6401217    0.81375731841339
 s    1 1.00
             0.1612778                   1

42 0
 s    6 1.00
             5484.6717   0.001831099805527
             825.23495   0.013950098518422
             188.04696    0.06844509273075
               52.9645    0.23271427528445
              16.89757    0.47019295006289
             5.7996353    0.35852086192309
 s    3 1.00
             15.539616   -0.11077750382508
             3.5999336   -0.14802630511126
             1.0137618     1.1307670390447
 s    1 1.00
             0.2700058                   1
 p    3 1.00
             15.539616   0.070874299543311
             3.5999336    0.33975279781076
             1.0137618    0.72715859531445
 p    1 1.00
             0.2700058                   1
 d    1 1.00
                   0.8                   1

43 0
 s    3 1.00
             18.731137    0.03349459952309
             2.8253937    0.23472694665786
             0.6401217    0.81375731841339
 s    1 1.00
             0.1612778                   1

[5d]
[7f]
[9g]

[MO]
 Sym= A
 Ene=               0
 Spin= Alpha
 Occup=    1.00000
   1    -5.9893766969561e-06
   2    -4.5522733376432e-05
   3    0.00060505751895125
   4    -1.6183308513812e-05
   5    1.3038861847318e-05
   6    8.960815158135e-06
   7    -1.7367546767493e-05
   8    2.2357591766204e-06
   9    -0.00049856937930939
  10    1.7247742289991e-05
  11    1.583992148645e-05
  12    3.6835044857106e-06
  13    1.0256945239102e-06
  14    8.6448568364968e-07
  15    -1.2870318785901e-05
  16    -1.5413919398621e-05
  17    1.2655110827522e-05
  18    4.3637099811924e-05
  19    -0.0012211962066095
  20    -2.3290248874006e-05
  21    -1.222023551184e-05
  22    4.6796901806441e-05
  23    -0.00078391302477646
  24    -3.1657062801807e-05
  25    -0.00013426695816628
  26    -2.44040067508e-05
  27    1.3828172564773e-05
  28    -3.8147434957121e-06
  29    -1.3784006952876e-05
  30    -1.498648866485e-05
  31    -1.9178962484591e-05
  32    -0.00015095268547869
  33    -5.8953018772969e-05
  34    -0.00016153811014932
  35    0.0030380421700817
  36    0.00014895311163737
  37    2.5962051078325e-06
  38    -5.3933079554401e-05
  39    0.0013758159034419
  40    -0.00054134885617885
  41    0.00062389447785325
  42    -1.5475562498837e-05
  43    -3.4601616947596e-05
  44    -2.0776521346177e-05
  45    7.9914242142307e-05
  46    -2.6521484764527e-05
  47    1.9804397647255e-05
  48    0.00025054563993158
  49    5.4556932347177e-05
  50    -0.00024694573342285
  51    -0.0024026514355175
  52    -0.00044342563626557
  53    4.8322410301005e-05
  54    0.00010852263843493
  55    0.0023292547494718
  56    -0.00043094485685582
  57    -0.00024589373798208
  58    9.4695293378734e-05
  59    -9.5185140006985e-06
  60    -6.078615199826e-05
  61    -5.9300351525476e-05
  62    2.7589216618502e-05
  63    -0.00026808370102375
  64    -0.00015312708098832
  65    -1.4193422436966e-07
  66    6.5320926067189e-07
  67    -3.1478919746793e-08
  68    -3.1714710598233e-07
  69    -6.8554906921313e-07
  70    2.6551764557028e-07
  71    -3.7509460296568e-07
  72    -1.7568857688899e-08
  73    1.0856301734763e-06
  74    8.8589116444252e-07
  75    -3.1533919957059e-07
  76    1.5051015224491e-07
  77    1.0440043519592e-07
  78    3.7602294656064e-08
  79    6.9296824096659e-08
  80    1.0742399241262e-07
  81    1.0710854960426e-07
  82    7.8905890074743e-07
  83    1.3179426461682e-07
  84    1.2160195631513e-06
  85    4.116657790901e-06
  86    -2.2328027565206e-07
  87    4.3275745538229e-07
  88    -1.2816394166753e-07
  89    8.0530354489653e-07
  90    -4.2674687103905e-06
  91    -2.8490083975451e-06
  92    -8.8510490589071e-08
  93    -6.9543252776728e-08
  94    2.8254476036558e-07
  95    -2.2264634412562e-07
  96    8.3766304425499e-08
  97    5.241576298434e-07
  98    1.0383836504803e-06
  99    -5.3705103008995e-07
 100    -1.2383163365184e-06
 101    -3.6132405453711e-07
 102    -1.6666526537536e-06
 103    3.8728731207434e-05
 104    -1.2600662780444e-06
 105    -1.3562539834211e-07
 106    -2.7410303683026e-07
 107    -7.3896190074876e-06
 108    8.0294061535567e-06
 109    -2.4066531613119e-05
 110    3.4541711055028e-07
 111    8.1292778775653e-07
 112    -3.4242526208152e-07
 113    5.0475360923872e-08
 114    -4.3133421575819e-07
 115    1.9383483866786e-07
 116    1.7927218619523e-06
 117    -1.2696074807172e-05
 118    1.3734232166771e-07
 119    5.8993698076411e-07
 120    -8.6265017344219e-07
 121    6.6403793041491e-06
 122    -8.4470330686016e-06
 123    1.0246291684919e-06
 124    3.6863420393954e-07
 125    1.8615459054314e-08
 126    -5.3856449819943e-07
 127    -3.1366450126606e-07
 128    1.7139127502178e-07
 129    5.9198406094636e-07
 130    3.4759213986332e-06
 131    -2.6512611983556e-05
 132    2.0292090859159e-06
 133    -7.9187238552541e-07
 134    -1.4098349416908e-06
 135    -4.2698551741502e-05
 136    1.0692253977077e-05
 137    4.114203568456e-05
 138    -1.3143002167283e-06
 139    -4.2864501682354e-07
 140    1.1172747596741e-06
 141    -1.8214360478113e-07
 142    1.1843611116349e-06
 143    4.0638506388097e-07
 144    2.5214751222369e-06
 145    -3.6864434114564e-05
 146    2.5845238172435e-07
 147    1.0722014077165e-07
 148    2.1783525589749e-06
 149    -1.823085606174e-05
 150    1.5250526134304e-05
 151    -6.1394990612554e-06
 152    -7.4585002905255e-08
 153    1.529805940893e-07
 154    -7.7862039163467e-07
 155    -3.9173562232891e-07
 156    1.8214283237542e-07
 157    2.7323536882596e-07
 158     2.31591875745e-06
 159    -1.2419382584692e-05
 160    2.9639394845673e-07
 161    1.1752423759642e-07
 162    -2.2041260205253e-07
 163    -1.2563949191534e-06
 164    4.8593334158513e-06
 165    1.5908616502746e-06
 166    1.5680911398022e-07
 167    1.2015936160297e-07
 168    -2.6114485108027e-08
 169    3.5498901043584e-07
 170    6.526869038092e-09
 171    -9.5983509004728e-09
 172    -2.4305140887646e-07
 173    -5.4865681796427e-08
 174    -3.8230501075873e-07
 175    2.2528322141395e-08
 176    7.8640474600731e-07
 177    6.5732792062478e-06
 178    -8.0963544388767e-07
 179    1.2034035385397e-06
 180    -7.7025044041137e-08
 181    6.4257534946772e-07
 182    -1.2202091738971e-07
 183    5.1140220463696e-07
 184    4.3764404715478e-07
 185    -2.4416880730861e-07
 186    -1.6009159436021e-06
 187    1.6004268288064e-05
 188    -5.1352016358183e-07
 189    -1.6621767769518e-07
 190    -8.5359920804389e-07
 191    -1.826840864152e-06
 192    -3.4313728845479e-06
 193    -6.5108899731051e-06
 194    3.577471815302e-07
 195    4.4497201986396e-07
 196    4.1600576308179e-07
 197    -3.1319636149647e-07
 198    2.6682398117658e-07
 199    -6.8087034874121e-07
 200    5.5011347447442e-07
 201    -2.7895829207117e-07
 202    -8.9633664307891e-07
 203    -4.0099684068062e-07
 204    -3.2887027087286e-06
 205    1.3962124472664e-06
 206    2.3647631756881e-08
 207    1.5062276433202e-06
 208    -5.1925404202278e-08
 209    7.0150395158197e-07
 210    2.309707962393e-06
 211    4.8940173224268e-07
 212    6.8700570204726e-07
 213    4.0408164500558e-07
 214    -1.3264909612042e-06
 215    -1.443755188886e-06
 216    7.3465689889808e-06
 217    5.1357378215951e-07
 218    1.354894504728e-06
 219    -3.588895290765e-08
 220    -1.9060675959633e-06
 221    -2.0186835049194e-06
 222    -1.2354061817294e-05
 223    0.00018672203158015
 224    8.3357487883056e-07
 225    3.3097887012407e-06
 226    -3.2179493339655e-06
 227    5.7567108756727e-05
 228    1.8277414606149e-05
 229    -6.70223433555e-05
 230    3.6131051075591e-06
 231    -2.3604430135176e-06
 232    -3.0066899223823e-06
 233    1.2415825815938e-06
 234    1.0961764916398e-06
 235    2.0787045632536e-06
 236    1.0790289545108e-05
 237    -0.00027355889202896
 238    -3.2725276480344e-06
 239    -4.3904286286497e-06
 240    8.9082937041314e-06
 241    0.00010951110455511
 242    3.2417282520219e-05
 243    -2.8969577345773e-05
 244    -4.6248000243364e-06
 245    2.3249264410548e-06
 246    3.7856617590787e-06
 247    -6.127658342986e-07
 248    2.4909458141862e-07
 249    -8.1825361266924e-08
 250    -4.1587088745317e-06
 251    -2.8170793998482e-07
 252    -3.0189488644862e-08
 253    0.00017693328620738
 254    -2.6823685460823e-06
 255    -2.5803322976062e-06
 256    -1.2811784089061e-05
 257    0.00011510385954494
 258    3.3748871283753e-05
 259    0.00014027782535225
 260    8.2083731173731e-07
 261    2.7968111076318e-06
 262    -2.6970039174679e-06
 263    -1.7795358828637e-06
 264    4.1833392619007e-06
 265    -8.5580454151908e-06
 266    -3.0022698432643e-06
 267    1.1389368020104e-05
 268    3.9426618461101e-05
 269    4.6337475257365e-05
 270    -8.0353674183931e-05
 271    -0.0019817503175313
 272    1.8632636592434e-05
 273    8.9303315482174e-05
 274    -0.00021255125693374
 275    -0.0014522164781928
 276    -0.00047117295727297
 277    0.0015934127710769
 278    4.2300398667228e-05
 279    0.00020516743879078
 280    -5.1659144906437e-05