[Molden Format]
made by pyscf v[2.0.1]
[Atoms] (AU)
C   1   6     0.69100024066471     0.64692934207205    -3.48223131169301
H   2   1     2.68052439830868     1.13355088658700    -3.25784032593313
C   3   6    -0.36286361513219     0.85440132524594    -5.97030179418974
H   4   1    -2.35448549047279     0.36322488579172    -6.17995817793143
C   5   6     0.93697958957450     1.61209284601821    -8.05828437677121
H   6   1     2.68174994182533     2.67994959464420    -7.82079505522331
C   7   6     0.13444904340515     1.08121190669811   -10.59410649762000
H   8   1    -1.61655526267424     0.00863003830430   -10.80213119601662
H   9   1     1.55630230933075    -1.92953025305990    12.99630010416247
C   10   6     0.75233899775814    -2.21270439606481    11.10705728102219
H   11   1    -0.43433408177274    -3.90944857546550    11.22216085340412
C   12   6     2.86362581178706    -2.63237380607947     9.17926416456045
H   13   1     4.39038949912609    -1.24955421540245     9.49899813497433
H   14   1     3.74629220191363    -4.48798724300892     9.47414880959024
C   15   6     2.02478325613682    -2.42177285709634     6.44560829588644
C   16   6     3.88048732735477    -3.58795445234514     4.61402886975252
C   17   6    -0.18412382258602    -1.30464291234259     5.76021113872346
C   18   6    -2.10044360464350    -0.26837831858460     7.71610340967100
C   19   6    -3.08956938670431     2.35282328359417     6.88693925039594
C   20   6    -4.37372924086464    -2.09766595989678     7.93610724222001
C   21   6    -0.83850430601230     0.06372213486173    10.33002307638377
H   22   1     0.38411922151109     1.74281358582432    10.27380136542181
H   23   1    -2.30980003007874     0.45460143924521    11.73986301809809
H   24   1     4.58527064644668    -5.38706904487420     5.36778158031719
H   25   1     5.54944938085014    -2.37631462192748     4.35398898413318
H   26   1     3.06633019150423    -3.94118377050688     2.75255466040884
H   27   1    -4.17727778763735     2.26573369139522     5.12914900961283
H   28   1    -1.52662344944051     3.68001877445626     6.59540397144508
H   29   1    -4.32916174397830     3.13643051467482     8.35225460090378
H   30   1    -5.32329548508442    -2.36691813602939     6.11583672749896
H   31   1    -5.77989366602257    -1.33896741843465     9.25748940450990
H   32   1    -3.79310905208926    -3.96389819310853     8.61386170102686
C   33   6    -1.01100794811226    -1.06331657314144     3.11929490449947
C   34   6     0.37686231036534    -0.33275864505552     1.09165013605873
H   35   1    -3.01671213906703    -1.40297922279997     2.77827895090944
C   36   6    -0.64382707979370    -0.11591880174385    -1.42063131251064
H   37   1     2.35569259782137     0.17174499283897     1.33641070251401
H   38   1    -2.63317482980319    -0.60229203511219    -1.66119700387645
C   39   6     1.36441264344082     1.79875350819652   -12.72695837882209
C   40   6     0.39042169983249     1.16479015456541   -15.22824898409742
H   41   1     3.11744943935123     2.87075295695162   -12.65315109008398
O   42   8     1.39604269582139     1.74939992973347   -17.22017818748739
H   43   1    -1.40767336523230     0.06622817248511   -15.21429812709214
[GTO]
1 0
 s    6 1.00
             3047.5249  0.0018347001629433
             457.36951    0.01403730124668
             103.94869   0.068842606114048
             29.210155    0.23218442062076
              9.286663    0.46794134155879
              3.163927    0.36231203217765
 s    3 1.00
             7.8682724   -0.11933240861517
             1.8812885   -0.16085421161283
             0.5442493     1.1434564825515
 s    1 1.00
             0.1687144                   1
 p    3 1.00
             7.8682724   0.068999095584993
             1.8812885    0.31642397975315
             0.5442493    0.74430825237435
 p    1 1.00
             0.1687144                   1
 d    1 1.00
                   0.8                   1

2 0
 s    3 1.00
             18.731137    0.03349459952309
             2.8253937    0.23472694665786
             0.6401217    0.81375731841339
 s    1 1.00
             0.1612778                   1

3 0
 s    6 1.00
             3047.5249  0.0018347001629433
             457.36951    0.01403730124668
             103.94869   0.068842606114048
             29.210155    0.23218442062076
              9.286663    0.46794134155879
              3.163927    0.36231203217765
 s    3 1.00
             7.8682724   -0.11933240861517
             1.8812885   -0.16085421161283
             0.5442493     1.1434564825515
 s    1 1.00
             0.1687144                   1
 p    3 1.00
             7.8682724   0.068999095584993
             1.8812885    0.31642397975315
             0.5442493    0.74430825237435
 p    1 1.00
             0.1687144                   1
 d    1 1.00
                   0.8                   1

4 0
 s    3 1.00
             18.731137    0.03349459952309
             2.8253937    0.23472694665786
             0.6401217    0.81375731841339
 s    1 1.00
             0.1612778                   1

5 0
 s    6 1.00
             3047.5249  0.0018347001629433
             457.36951    0.01403730124668
             103.94869   0.068842606114048
             29.210155    0.23218442062076
              9.286663    0.46794134155879
              3.163927    0.36231203217765
 s    3 1.00
             7.8682724   -0.11933240861517
             1.8812885   -0.16085421161283
             0.5442493     1.1434564825515
 s    1 1.00
             0.1687144                   1
 p    3 1.00
             7.8682724   0.068999095584993
             1.8812885    0.31642397975315
             0.5442493    0.74430825237435
 p    1 1.00
             0.1687144                   1
 d    1 1.00
                   0.8                   1

6 0
 s    3 1.00
             18.731137    0.03349459952309
             2.8253937    0.23472694665786
             0.6401217    0.81375731841339
 s    1 1.00
             0.1612778                   1

7 0
 s    6 1.00
             3047.5249  0.0018347001629433
             457.36951    0.01403730124668
             103.94869   0.068842606114048
             29.210155    0.23218442062076
              9.286663    0.46794134155879
              3.163927    0.36231203217765
 s    3 1.00
             7.8682724   -0.11933240861517
             1.8812885   -0.16085421161283
             0.5442493     1.1434564825515
 s    1 1.00
             0.1687144                   1
 p    3 1.00
             7.8682724   0.068999095584993
             1.8812885    0.31642397975315
             0.5442493    0.74430825237435
 p    1 1.00
             0.1687144                   1
 d    1 1.00
                   0.8                   1

8 0
 s    3 1.00
             18.731137    0.03349459952309
             2.8253937    0.23472694665786
             0.6401217    0.81375731841339
 s    1 1.00
             0.1612778                   1

9 0
 s    3 1.00
             18.731137    0.03349459952309
             2.8253937    0.23472694665786
             0.6401217    0.81375731841339
 s    1 1.00
             0.1612778                   1

10 0
 s    6 1.00
             3047.5249  0.0018347001629433
             457.36951    0.01403730124668
             103.94869   0.068842606114048
             29.210155    0.23218442062076
              9.286663    0.46794134155879
              3.163927    0.36231203217765
 s    3 1.00
             7.8682724   -0.11933240861517
             1.8812885   -0.16085421161283
             0.5442493     1.1434564825515
 s    1 1.00
             0.1687144                   1
 p    3 1.00
             7.8682724   0.068999095584993
             1.8812885    0.31642397975315
             0.5442493    0.74430825237435
 p    1 1.00
             0.1687144                   1
 d    1 1.00
                   0.8                   1

11 0
 s    3 1.00
             18.731137    0.03349459952309
             2.8253937    0.23472694665786
             0.6401217    0.81375731841339
 s    1 1.00
             0.1612778                   1

12 0
 s    6 1.00
             3047.5249  0.0018347001629433
             457.36951    0.01403730124668
             103.94869   0.068842606114048
             29.210155    0.23218442062076
              9.286663    0.46794134155879
              3.163927    0.36231203217765
 s    3 1.00
             7.8682724   -0.11933240861517
             1.8812885   -0.16085421161283
             0.5442493     1.1434564825515
 s    1 1.00
             0.1687144                   1
 p    3 1.00
             7.8682724   0.068999095584993
             1.8812885    0.31642397975315
             0.5442493    0.74430825237435
 p    1 1.00
             0.1687144                   1
 d    1 1.00
                   0.8                   1

13 0
 s    3 1.00
             18.731137    0.03349459952309
             2.8253937    0.23472694665786
             0.6401217    0.81375731841339
 s    1 1.00
             0.1612778                   1

14 0
 s    3 1.00
             18.731137    0.03349459952309
             2.8253937    0.23472694665786
             0.6401217    0.81375731841339
 s    1 1.00
             0.1612778                   1

15 0
 s    6 1.00
             3047.5249  0.0018347001629433
             457.36951    0.01403730124668
             103.94869   0.068842606114048
             29.210155    0.23218442062076
              9.286663    0.46794134155879
              3.163927    0.36231203217765
 s    3 1.00
             7.8682724   -0.11933240861517
             1.8812885   -0.16085421161283
             0.5442493     1.1434564825515
 s    1 1.00
             0.1687144                   1
 p    3 1.00
             7.8682724   0.068999095584993
             1.8812885    0.31642397975315
             0.5442493    0.74430825237435
 p    1 1.00
             0.1687144                   1
 d    1 1.00
                   0.8                   1

16 0
 s    6 1.00
             3047.5249  0.0018347001629433
             457.36951    0.01403730124668
             103.94869   0.068842606114048
             29.210155    0.23218442062076
              9.286663    0.46794134155879
              3.163927    0.36231203217765
 s    3 1.00
             7.8682724   -0.11933240861517
             1.8812885   -0.16085421161283
             0.5442493     1.1434564825515
 s    1 1.00
             0.1687144                   1
 p    3 1.00
             7.8682724   0.068999095584993
             1.8812885    0.31642397975315
             0.5442493    0.74430825237435
 p    1 1.00
             0.1687144                   1
 d    1 1.00
                   0.8                   1

17 0
 s    6 1.00
             3047.5249  0.0018347001629433
             457.36951    0.01403730124668
             103.94869   0.068842606114048
             29.210155    0.23218442062076
              9.286663    0.46794134155879
              3.163927    0.36231203217765
 s    3 1.00
             7.8682724   -0.11933240861517
             1.8812885   -0.16085421161283
             0.5442493     1.1434564825515
 s    1 1.00
             0.1687144                   1
 p    3 1.00
             7.8682724   0.068999095584993
             1.8812885    0.31642397975315
             0.5442493    0.74430825237435
 p    1 1.00
             0.1687144                   1
 d    1 1.00
                   0.8                   1

18 0
 s    6 1.00
             3047.5249  0.0018347001629433
             457.36951    0.01403730124668
             103.94869   0.068842606114048
             29.210155    0.23218442062076
              9.286663    0.46794134155879
              3.163927    0.36231203217765
 s    3 1.00
             7.8682724   -0.11933240861517
             1.8812885   -0.16085421161283
             0.5442493     1.1434564825515
 s    1 1.00
             0.1687144                   1
 p    3 1.00
             7.8682724   0.068999095584993
             1.8812885    0.31642397975315
             0.5442493    0.74430825237435
 p    1 1.00
             0.1687144                   1
 d    1 1.00
                   0.8                   1

19 0
 s    6 1.00
             3047.5249  0.0018347001629433
             457.36951    0.01403730124668
             103.94869   0.068842606114048
             29.210155    0.23218442062076
              9.286663    0.46794134155879
              3.163927    0.36231203217765
 s    3 1.00
             7.8682724   -0.11933240861517
             1.8812885   -0.16085421161283
             0.5442493     1.1434564825515
 s    1 1.00
             0.1687144                   1
 p    3 1.00
             7.8682724   0.068999095584993
             1.8812885    0.31642397975315
             0.5442493    0.74430825237435
 p    1 1.00
             0.1687144                   1
 d    1 1.00
                   0.8                   1

20 0
 s    6 1.00
             3047.5249  0.0018347001629433
             457.36951    0.01403730124668
             103.94869   0.068842606114048
             29.210155    0.23218442062076
              9.286663    0.46794134155879
              3.163927    0.36231203217765
 s    3 1.00
             7.8682724   -0.11933240861517
             1.8812885   -0.16085421161283
             0.5442493     1.1434564825515
 s    1 1.00
             0.1687144                   1
 p    3 1.00
             7.8682724   0.068999095584993
             1.8812885    0.31642397975315
             0.5442493    0.74430825237435
 p    1 1.00
             0.1687144                   1
 d    1 1.00
                   0.8                   1

21 0
 s    6 1.00
             3047.5249  0.0018347001629433
             457.36951    0.01403730124668
             103.94869   0.068842606114048
             29.210155    0.23218442062076
              9.286663    0.46794134155879
              3.163927    0.36231203217765
 s    3 1.00
             7.8682724   -0.11933240861517
             1.8812885   -0.16085421161283
             0.5442493     1.1434564825515
 s    1 1.00
             0.1687144                   1
 p    3 1.00
             7.8682724   0.068999095584993
             1.8812885    0.31642397975315
             0.5442493    0.74430825237435
 p    1 1.00
             0.1687144                   1
 d    1 1.00
                   0.8                   1

22 0
 s    3 1.00
             18.731137    0.03349459952309
             2.8253937    0.23472694665786
             0.6401217    0.81375731841339
 s    1 1.00
             0.1612778                   1

23 0
 s    3 1.00
             18.731137    0.03349459952309
             2.8253937    0.23472694665786
             0.6401217    0.81375731841339
 s    1 1.00
             0.1612778                   1

24 0
 s    3 1.00
             18.731137    0.03349459952309
             2.8253937    0.23472694665786
             0.6401217    0.81375731841339
 s    1 1.00
             0.1612778                   1

25 0
 s    3 1.00
             18.731137    0.03349459952309
             2.8253937    0.23472694665786
             0.6401217    0.81375731841339
 s    1 1.00
             0.1612778                   1

26 0
 s    3 1.00
             18.731137    0.03349459952309
             2.8253937    0.23472694665786
             0.6401217    0.81375731841339
 s    1 1.00
             0.1612778                   1

27 0
 s    3 1.00
             18.731137    0.03349459952309
             2.8253937    0.23472694665786
             0.6401217    0.81375731841339
 s    1 1.00
             0.1612778                   1

28 0
 s    3 1.00
             18.731137    0.03349459952309
             2.8253937    0.23472694665786
             0.6401217    0.81375731841339
 s    1 1.00
             0.1612778                   1

29 0
 s    3 1.00
             18.731137    0.03349459952309
             2.8253937    0.23472694665786
             0.6401217    0.81375731841339
 s    1 1.00
             0.1612778                   1

30 0
 s    3 1.00
             18.731137    0.03349459952309
             2.8253937    0.23472694665786
             0.6401217    0.81375731841339
 s    1 1.00
             0.1612778                   1

31 0
 s    3 1.00
             18.731137    0.03349459952309
             2.8253937    0.23472694665786
             0.6401217    0.81375731841339
 s    1 1.00
             0.1612778                   1

32 0
 s    3 1.00
             18.731137    0.03349459952309
             2.8253937    0.23472694665786
             0.6401217    0.81375731841339
 s    1 1.00
             0.1612778                   1

33 0
 s    6 1.00
             3047.5249  0.0018347001629433
             457.36951    0.01403730124668
             103.94869   0.068842606114048
             29.210155    0.23218442062076
              9.286663    0.46794134155879
              3.163927    0.36231203217765
 s    3 1.00
             7.8682724   -0.11933240861517
             1.8812885   -0.16085421161283
             0.5442493     1.1434564825515
 s    1 1.00
             0.1687144                   1
 p    3 1.00
             7.8682724   0.068999095584993
             1.8812885    0.31642397975315
             0.5442493    0.74430825237435
 p    1 1.00
             0.1687144                   1
 d    1 1.00
                   0.8                   1

34 0
 s    6 1.00
             3047.5249  0.0018347001629433
             457.36951    0.01403730124668
             103.94869   0.068842606114048
             29.210155    0.23218442062076
              9.286663    0.46794134155879
              3.163927    0.36231203217765
 s    3 1.00
             7.8682724   -0.11933240861517
             1.8812885   -0.16085421161283
             0.5442493     1.1434564825515
 s    1 1.00
             0.1687144                   1
 p    3 1.00
             7.8682724   0.068999095584993
             1.8812885    0.31642397975315
             0.5442493    0.74430825237435
 p    1 1.00
             0.1687144                   1
 d    1 1.00
                   0.8                   1

35 0
 s    3 1.00
             18.731137    0.03349459952309
             2.8253937    0.23472694665786
             0.6401217    0.81375731841339
 s    1 1.00
             0.1612778                   1

36 0
 s    6 1.00
             3047.5249  0.0018347001629433
             457.36951    0.01403730124668
             103.94869   0.068842606114048
             29.210155    0.23218442062076
              9.286663    0.46794134155879
              3.163927    0.36231203217765
 s    3 1.00
             7.8682724   -0.11933240861517
             1.8812885   -0.16085421161283
             0.5442493     1.1434564825515
 s    1 1.00
             0.1687144                   1
 p    3 1.00
             7.8682724   0.068999095584993
             1.8812885    0.31642397975315
             0.5442493    0.74430825237435
 p    1 1.00
             0.1687144                   1
 d    1 1.00
                   0.8                   1

37 0
 s    3 1.00
             18.731137    0.03349459952309
             2.8253937    0.23472694665786
             0.6401217    0.81375731841339
 s    1 1.00
             0.1612778                   1

38 0
 s    3 1.00
             18.731137    0.03349459952309
             2.8253937    0.23472694665786
             0.6401217    0.81375731841339
 s    1 1.00
             0.1612778                   1

39 0
 s    6 1.00
             3047.5249  0.0018347001629433
             457.36951    0.01403730124668
             103.94869   0.068842606114048
             29.210155    0.23218442062076
              9.286663    0.46794134155879
              3.163927    0.36231203217765
 s    3 1.00
             7.8682724   -0.11933240861517
             1.8812885   -0.16085421161283
             0.5442493     1.1434564825515
 s    1 1.00
             0.1687144                   1
 p    3 1.00
             7.8682724   0.068999095584993
             1.8812885    0.31642397975315
             0.5442493    0.74430825237435
 p    1 1.00
             0.1687144                   1
 d    1 1.00
                   0.8                   1

40 0
 s    6 1.00
             3047.5249  0.0018347001629433
             457.36951    0.01403730124668
             103.94869   0.068842606114048
             29.210155    0.23218442062076
              9.286663    0.46794134155879
              3.163927    0.36231203217765
 s    3 1.00
             7.8682724   -0.11933240861517
             1.8812885   -0.16085421161283
             0.5442493     1.1434564825515
 s    1 1.00
             0.1687144                   1
 p    3 1.00
             7.8682724   0.068999095584993
             1.8812885    0.31642397975315
             0.5442493    0.74430825237435
 p    1 1.00
             0.1687144                   1
 d    1 1.00
                   0.8                   1

41 0
 s    3 1.00
             18.731137    0.03349459952309
             2.8253937    0.23472694665786
             0.6401217    0.81375731841339
 s    1 1.00
             0.1612778                   1

42 0
 s    6 1.00
             5484.6717   0.001831099805527
             825.23495   0.013950098518422
             188.04696    0.06844509273075
               52.9645    0.23271427528445
              16.89757    0.47019295006289
             5.7996353    0.35852086192309
 s    3 1.00
             15.539616   -0.11077750382508
             3.5999336   -0.14802630511126
             1.0137618     1.1307670390447
 s    1 1.00
             0.2700058                   1
 p    3 1.00
             15.539616   0.070874299543311
             3.5999336    0.33975279781076
             1.0137618    0.72715859531445
 p    1 1.00
             0.2700058                   1
 d    1 1.00
                   0.8                   1

43 0
 s    3 1.00
             18.731137    0.03349459952309
             2.8253937    0.23472694665786
             0.6401217    0.81375731841339
 s    1 1.00
             0.1612778                   1

[5d]
[7f]
[9g]

[MO]
 Sym= A
 Ene=               0
 Spin= Alpha
 Occup=    1.00000
   1    -6.3537614522032e-06
   2    -1.9809382678166e-05
   3    -2.8290751430957e-05
   4    -1.0896308682163e-05
   5    -1.5426930255764e-05
   6    9.5329706903733e-06
   7    0.00013529271956954
   8    0.00016820920757861
   9    -0.00049215928066995
  10    1.1555028557198e-05
  11    1.8365969946324e-05
  12    5.6948615214049e-07
  13    3.0299745889609e-06
  14    -4.767388519034e-07
  15    -2.484995367461e-05
  16    -1.7825885473821e-05
  17    1.0869788828337e-05
  18    3.5776920218504e-05
  19    -0.0011652403316541
  20    -1.4834079736551e-05
  21    -2.1749235028682e-06
  22    4.6111429986876e-05
  23    -0.00024469253124471
  24    -0.00010123906212138
  25    0.0004135160824089
  26    -2.9642349934128e-05
  27    9.2117757810078e-06
  28    1.3603260799216e-05
  29    -8.0944758491251e-06
  30    1.2707094259265e-05
  31    -1.4773883563362e-06
  32    4.9444097960818e-05
  33    -5.9376764673284e-05
  34    -0.00016058452804009
  35     0.003164938980623
  36    -5.5796470879151e-06
  37    -9.7277658536317e-06
  38    -0.00014692809371584
  39    -0.0010200533477303
  40    -0.00060126006556253
  41    -0.00084849632506212
  42    9.4592688710874e-05
  43    2.4226520210648e-05
  44    2.0599578450009e-05
  45    1.2115973918332e-05
  46    2.7634384829031e-05
  47    1.8462162287745e-05
  48    0.00017590114008083
  49    5.656101590939e-05
  50    -0.00023306929636883
  51    -0.0024414009063879
  52    8.8134745941433e-05
  53    6.3962927159204e-05
  54    0.00044409383900877
  55    -0.00074528576539168
  56    -0.00051558831093792
  57    -0.0021564757013656
  58    -5.9693677151321e-05
  59    -8.8759570437502e-05
  60    -5.6240718754966e-05
  61    2.4057622495022e-05
  62    4.1148518638197e-05
  63    -0.00027363491383426
  64    -0.00010930272283011
  65    -6.245705287411e-08
  66    9.713073575865e-07
  67    -6.8787122062502e-08
  68    -6.9971065494554e-07
  69    -1.9876923305804e-07
  70    4.2691838346143e-07
  71    -4.8428397458658e-07
  72    2.0442000924226e-07
  73    1.1395154400237e-06
  74    3.2655614870919e-07
  75    -1.3959308132509e-06
  76    1.3007440374178e-07
  77    4.2310512390645e-08
  78    7.4692454073651e-08
  79    5.8304908004317e-08
  80    4.4068540249229e-08
  81    6.7412421213393e-08
  82    3.7856538587384e-07
  83    1.3982063492367e-07
  84    1.0214409521295e-06
  85    -5.155482840414e-06
  86    1.8730938694586e-07
  87    3.2710695718626e-08
  88    3.6066502750018e-07
  89    2.6225331141781e-06
  90    -4.4546926311191e-06
  91    1.4368639938578e-07
  92    -6.1711977545063e-08
  93    -2.545369532281e-07
  94    4.7736886352814e-07
  95    -1.7009976587304e-07
  96    -4.5738438804141e-09
  97    6.8242693941371e-07
  98    3.007527373946e-07
  99    -1.6508628738758e-07
 100    -8.0437887845675e-07
 101    -3.1907683592343e-07
 102    -1.332050600227e-06
 103    4.2577543910287e-05
 104    -4.3333493326241e-07
 105    2.0291649501119e-07
 106    -1.2086775227677e-06
 107    -1.7242725043818e-05
 108    1.7922653334628e-05
 109    -2.8555628052731e-06
 110    3.6890949275792e-07
 111    6.0757773297298e-07
 112    -2.6966556462483e-07
 113    -2.9736865223447e-07
 114    -8.5019807623821e-07
 115    2.003959708137e-07
 116    2.1386493041922e-06
 117    -3.9568402639835e-06
 118    -2.0898746389959e-07
 119    8.3879370163832e-07
 120    -7.0969061728635e-07
 121    1.9357695059055e-06
 122    -5.7766122877218e-06
 123    8.5366418063834e-06
 124    2.8185802586829e-07
 125    -3.0888070107972e-07
 126    -3.508910442125e-07
 127    -7.2536650860068e-08
 128    -1.0146877923146e-07
 129    1.4450222212438e-07
 130    1.7285513045674e-06
 131    2.3562186940782e-05
 132    2.7869769458343e-06
 133    8.5173010002039e-07
 134    -2.0370661053362e-06
 135    -5.7915852990465e-05
 136    4.8053270732204e-06
 137    -1.6387628250383e-05
 138    5.0448077527579e-07
 139    5.0565459588557e-07
 140    1.3674717049673e-06
 141    -1.6563279034243e-07
 142    9.2179827686705e-07
 143    -9.4066220667028e-09
 144    -1.0959916886502e-06
 145    -1.8203705969799e-05
 146    -1.8521947676934e-07
 147    -6.62403657831e-07
 148    2.5646371222572e-06
 149    -6.0057508874727e-06
 150    1.8926997553247e-05
 151    -9.0779013733966e-06
 152    -4.7741914717854e-07
 153    8.5239235491971e-08
 154    -1.0474858061132e-06
 155    -7.1689867274316e-08
 156    -5.1860932904771e-07
 157    3.3178193607357e-07
 158    2.6900387965197e-06
 159    -1.619500235774e-05
 160    1.9903917959689e-07
 161    4.4065118368556e-07
 162    -5.525237359783e-07
 163    -5.4428498824296e-06
 164    6.2816901524372e-06
 165    9.7913816732079e-07
 166    5.5458805936904e-07
 167    -1.6678080815153e-07
 168    1.1181618056325e-07
 169    2.3988716023497e-07
 170    4.1481337853808e-07
 171    2.4364041798895e-08
 172    1.0950121924291e-07
 173    2.008708158714e-06
 174    -9.089195741189e-08
 175    -1.1916350423412e-07
 176    7.642611565022e-07
 177    6.1964699659705e-06
 178    2.0418176718696e-06
 179    2.751335095757e-06
 180    -1.6580100493634e-07
 181    7.1921214780473e-07
 182    1.1936615484415e-08
 183    3.7802154073685e-07
 184    5.4036063345029e-07
 185    -3.6068294590445e-07
 186    -3.0301032777076e-06
 187    1.4487177466374e-05
 188    -5.8965070468859e-07
 189    -4.4665948979387e-08
 190    -6.7604203929081e-08
 191    -3.3542168303448e-07
 192    -5.027804205421e-06
 193    -6.8998816549226e-06
 194    2.908975947181e-07
 195    4.0802701260623e-07
 196    7.7826032245719e-07
 197    -2.3542744355244e-07
 198    1.8333102291476e-07
 199    -9.0367825308589e-07
 200    7.8557396687349e-07
 201    -2.1306650533249e-07
 202    7.7276413850316e-07
 203    -4.5846463024314e-07
 204    -3.3528521497783e-06
 205    1.4705632140029e-06
 206    2.9585195109588e-07
 207    -1.8024405959341e-07
 208    8.3508901346553e-06
 209    1.2242678686945e-06
 210    5.2597775951322e-08
 211    9.8244694916981e-07
 212    1.7902458989369e-06
 213    2.6224258077334e-07
 214    -1.7664510834023e-06
 215    -1.4089030800734e-06
 216    8.7870536556926e-06
 217    3.8566186457438e-07
 218    9.6191839836443e-08
 219    3.8969377626332e-07
 220    -1.2038721647082e-06
 221    -1.7864225814719e-06
 222    -1.1684878050647e-05
 223    0.00012869590433933
 224    3.1276613084054e-06
 225    -2.99471460815e-07
 226    2.616107841235e-07
 227    2.2536940131021e-05
 228    2.7061108359451e-05
 229    -0.00013794470210921
 230    3.0585998313846e-06
 231    -4.6501732482496e-06
 232    -3.2197309177552e-06
 233    1.6632777822023e-06
 234    1.2022279243373e-06
 235    3.6367415169664e-06
 236    2.2201269774796e-05
 237    -0.00037253430251518
 238    -2.4903827613712e-06
 239    -3.6520222402656e-06
 240    8.846141626401e-06
 241    0.00011733801139238
 242    2.9554476689467e-05
 243    5.0134825625639e-05
 244    -1.0262578899076e-05
 245    1.8587592859629e-06
 246    2.9301455050005e-06
 247    -6.6749199288892e-07
 248    -1.9478102521049e-06
 249    -5.5988950619498e-06
 250    -1.0035233681884e-05
 251    -3.5491616884212e-06
 252    -2.7583990817171e-05
 253    0.00053855520703641
 254    -8.8098725319945e-06
 255    6.1965545606863e-06
 256    -1.5249889866358e-05
 257    0.00023948710818973
 258    2.8975559998917e-05
 259    5.3227178334729e-05
 260    1.0156158611216e-05
 261    -2.7886504229095e-06
 262    -3.2281028703014e-06
 263    3.3640502691656e-06
 264    4.027599285579e-07
 265    -4.2109892618883e-06
 266    -3.2875187086282e-06
 267    1.3637866725863e-05
 268    3.3536113031299e-05
 269    4.5557188734683e-05
 270    -8.4782122010428e-05
 271    -0.0019311524730694
 272    0.00017754422329134
 273    9.8380135656153e-05
 274    -0.00010928110531229
 275    -0.00082710444779442
 276    -0.00047234773797515
 277    0.0020242120307215
 278    -0.00021563045443719
 279    5.9078364422646e-05
 280    3.2820878763793e-05