[Molden Format]
made by pyscf v[2.0.1]
[Atoms] (AU)
C   1   6     0.69100024066471     0.64692934207205    -3.48223131169301
H   2   1     2.68052439830868     1.13355088658700    -3.25784032593313
C   3   6    -0.36286361513219     0.85440132524594    -5.97030179418974
H   4   1    -2.35448549047279     0.36322488579172    -6.17995817793143
C   5   6     0.93697958957450     1.61209284601821    -8.05828437677121
H   6   1     1.52220939200985     3.58023657898303    -8.21595213017833
C   7   6     1.59282573286669    -0.05175011382745   -10.09734693546315
H   8   1     0.99474836942587    -2.01839690080961    -9.91207388765078
H   9   1     1.55630230933075    -1.92953025305990    12.99630010416247
C   10   6     0.75233899775814    -2.21270439606481    11.10705728102219
H   11   1    -0.43433408177274    -3.90944857546550    11.22216085340412
C   12   6     2.86362581178706    -2.63237380607947     9.17926416456045
H   13   1     4.39038949912609    -1.24955421540245     9.49899813497433
H   14   1     3.74629220191363    -4.48798724300892     9.47414880959024
C   15   6     2.02478325613682    -2.42177285709634     6.44560829588644
C   16   6     3.88048732735477    -3.58795445234514     4.61402886975252
C   17   6    -0.18412382258602    -1.30464291234259     5.76021113872346
C   18   6    -2.10044360464350    -0.26837831858460     7.71610340967100
C   19   6    -3.08956938670431     2.35282328359417     6.88693925039594
C   20   6    -4.37372924086464    -2.09766595989678     7.93610724222001
C   21   6    -0.83850430601230     0.06372213486173    10.33002307638377
H   22   1     0.38411922151109     1.74281358582432    10.27380136542181
H   23   1    -2.30980003007874     0.45460143924521    11.73986301809809
H   24   1     4.58527064644668    -5.38706904487420     5.36778158031719
H   25   1     5.54944938085014    -2.37631462192748     4.35398898413318
H   26   1     3.06633019150423    -3.94118377050688     2.75255466040884
H   27   1    -4.17727778763735     2.26573369139522     5.12914900961283
H   28   1    -1.52662344944051     3.68001877445626     6.59540397144508
H   29   1    -4.32916174397830     3.13643051467482     8.35225460090378
H   30   1    -5.32329548508442    -2.36691813602939     6.11583672749896
H   31   1    -5.77989366602257    -1.33896741843465     9.25748940450990
H   32   1    -3.79310905208926    -3.96389819310853     8.61386170102686
C   33   6    -1.01100794811226    -1.06331657314144     3.11929490449947
C   34   6     0.37686231036534    -0.33275864505552     1.09165013605873
H   35   1    -3.01671213906703    -1.40297922279997     2.77827895090944
C   36   6    -0.64382707979370    -0.11591880174385    -1.42063131251064
H   37   1     2.35569259782137     0.17174499283897     1.33641070251401
H   38   1    -2.63317482980319    -0.60229203511219    -1.66119700387645
C   39   6     2.88089126504443     0.61821658123040   -12.21129238571255
C   40   6     3.45664863859100    -1.22033421200677   -14.18493293343049
H   41   1     3.53070761900678     2.54536442784122   -12.51396089296279
O   42   8     4.60321296142939    -0.74877588551315   -16.13014426558594
H   43   1     2.75622344406002    -3.16930929543288   -13.79624335354022
[GTO]
1 0
 s    6 1.00
             3047.5249  0.0018347001629433
             457.36951    0.01403730124668
             103.94869   0.068842606114048
             29.210155    0.23218442062076
              9.286663    0.46794134155879
              3.163927    0.36231203217765
 s    3 1.00
             7.8682724   -0.11933240861517
             1.8812885   -0.16085421161283
             0.5442493     1.1434564825515
 s    1 1.00
             0.1687144                   1
 p    3 1.00
             7.8682724   0.068999095584993
             1.8812885    0.31642397975315
             0.5442493    0.74430825237435
 p    1 1.00
             0.1687144                   1
 d    1 1.00
                   0.8                   1

2 0
 s    3 1.00
             18.731137    0.03349459952309
             2.8253937    0.23472694665786
             0.6401217    0.81375731841339
 s    1 1.00
             0.1612778                   1

3 0
 s    6 1.00
             3047.5249  0.0018347001629433
             457.36951    0.01403730124668
             103.94869   0.068842606114048
             29.210155    0.23218442062076
              9.286663    0.46794134155879
              3.163927    0.36231203217765
 s    3 1.00
             7.8682724   -0.11933240861517
             1.8812885   -0.16085421161283
             0.5442493     1.1434564825515
 s    1 1.00
             0.1687144                   1
 p    3 1.00
             7.8682724   0.068999095584993
             1.8812885    0.31642397975315
             0.5442493    0.74430825237435
 p    1 1.00
             0.1687144                   1
 d    1 1.00
                   0.8                   1

4 0
 s    3 1.00
             18.731137    0.03349459952309
             2.8253937    0.23472694665786
             0.6401217    0.81375731841339
 s    1 1.00
             0.1612778                   1

5 0
 s    6 1.00
             3047.5249  0.0018347001629433
             457.36951    0.01403730124668
             103.94869   0.068842606114048
             29.210155    0.23218442062076
              9.286663    0.46794134155879
              3.163927    0.36231203217765
 s    3 1.00
             7.8682724   -0.11933240861517
             1.8812885   -0.16085421161283
             0.5442493     1.1434564825515
 s    1 1.00
             0.1687144                   1
 p    3 1.00
             7.8682724   0.068999095584993
             1.8812885    0.31642397975315
             0.5442493    0.74430825237435
 p    1 1.00
             0.1687144                   1
 d    1 1.00
                   0.8                   1

6 0
 s    3 1.00
             18.731137    0.03349459952309
             2.8253937    0.23472694665786
             0.6401217    0.81375731841339
 s    1 1.00
             0.1612778                   1

7 0
 s    6 1.00
             3047.5249  0.0018347001629433
             457.36951    0.01403730124668
             103.94869   0.068842606114048
             29.210155    0.23218442062076
              9.286663    0.46794134155879
              3.163927    0.36231203217765
 s    3 1.00
             7.8682724   -0.11933240861517
             1.8812885   -0.16085421161283
             0.5442493     1.1434564825515
 s    1 1.00
             0.1687144                   1
 p    3 1.00
             7.8682724   0.068999095584993
             1.8812885    0.31642397975315
             0.5442493    0.74430825237435
 p    1 1.00
             0.1687144                   1
 d    1 1.00
                   0.8                   1

8 0
 s    3 1.00
             18.731137    0.03349459952309
             2.8253937    0.23472694665786
             0.6401217    0.81375731841339
 s    1 1.00
             0.1612778                   1

9 0
 s    3 1.00
             18.731137    0.03349459952309
             2.8253937    0.23472694665786
             0.6401217    0.81375731841339
 s    1 1.00
             0.1612778                   1

10 0
 s    6 1.00
             3047.5249  0.0018347001629433
             457.36951    0.01403730124668
             103.94869   0.068842606114048
             29.210155    0.23218442062076
              9.286663    0.46794134155879
              3.163927    0.36231203217765
 s    3 1.00
             7.8682724   -0.11933240861517
             1.8812885   -0.16085421161283
             0.5442493     1.1434564825515
 s    1 1.00
             0.1687144                   1
 p    3 1.00
             7.8682724   0.068999095584993
             1.8812885    0.31642397975315
             0.5442493    0.74430825237435
 p    1 1.00
             0.1687144                   1
 d    1 1.00
                   0.8                   1

11 0
 s    3 1.00
             18.731137    0.03349459952309
             2.8253937    0.23472694665786
             0.6401217    0.81375731841339
 s    1 1.00
             0.1612778                   1

12 0
 s    6 1.00
             3047.5249  0.0018347001629433
             457.36951    0.01403730124668
             103.94869   0.068842606114048
             29.210155    0.23218442062076
              9.286663    0.46794134155879
              3.163927    0.36231203217765
 s    3 1.00
             7.8682724   -0.11933240861517
             1.8812885   -0.16085421161283
             0.5442493     1.1434564825515
 s    1 1.00
             0.1687144                   1
 p    3 1.00
             7.8682724   0.068999095584993
             1.8812885    0.31642397975315
             0.5442493    0.74430825237435
 p    1 1.00
             0.1687144                   1
 d    1 1.00
                   0.8                   1

13 0
 s    3 1.00
             18.731137    0.03349459952309
             2.8253937    0.23472694665786
             0.6401217    0.81375731841339
 s    1 1.00
             0.1612778                   1

14 0
 s    3 1.00
             18.731137    0.03349459952309
             2.8253937    0.23472694665786
             0.6401217    0.81375731841339
 s    1 1.00
             0.1612778                   1

15 0
 s    6 1.00
             3047.5249  0.0018347001629433
             457.36951    0.01403730124668
             103.94869   0.068842606114048
             29.210155    0.23218442062076
              9.286663    0.46794134155879
              3.163927    0.36231203217765
 s    3 1.00
             7.8682724   -0.11933240861517
             1.8812885   -0.16085421161283
             0.5442493     1.1434564825515
 s    1 1.00
             0.1687144                   1
 p    3 1.00
             7.8682724   0.068999095584993
             1.8812885    0.31642397975315
             0.5442493    0.74430825237435
 p    1 1.00
             0.1687144                   1
 d    1 1.00
                   0.8                   1

16 0
 s    6 1.00
             3047.5249  0.0018347001629433
             457.36951    0.01403730124668
             103.94869   0.068842606114048
             29.210155    0.23218442062076
              9.286663    0.46794134155879
              3.163927    0.36231203217765
 s    3 1.00
             7.8682724   -0.11933240861517
             1.8812885   -0.16085421161283
             0.5442493     1.1434564825515
 s    1 1.00
             0.1687144                   1
 p    3 1.00
             7.8682724   0.068999095584993
             1.8812885    0.31642397975315
             0.5442493    0.74430825237435
 p    1 1.00
             0.1687144                   1
 d    1 1.00
                   0.8                   1

17 0
 s    6 1.00
             3047.5249  0.0018347001629433
             457.36951    0.01403730124668
             103.94869   0.068842606114048
             29.210155    0.23218442062076
              9.286663    0.46794134155879
              3.163927    0.36231203217765
 s    3 1.00
             7.8682724   -0.11933240861517
             1.8812885   -0.16085421161283
             0.5442493     1.1434564825515
 s    1 1.00
             0.1687144                   1
 p    3 1.00
             7.8682724   0.068999095584993
             1.8812885    0.31642397975315
             0.5442493    0.74430825237435
 p    1 1.00
             0.1687144                   1
 d    1 1.00
                   0.8                   1

18 0
 s    6 1.00
             3047.5249  0.0018347001629433
             457.36951    0.01403730124668
             103.94869   0.068842606114048
             29.210155    0.23218442062076
              9.286663    0.46794134155879
              3.163927    0.36231203217765
 s    3 1.00
             7.8682724   -0.11933240861517
             1.8812885   -0.16085421161283
             0.5442493     1.1434564825515
 s    1 1.00
             0.1687144                   1
 p    3 1.00
             7.8682724   0.068999095584993
             1.8812885    0.31642397975315
             0.5442493    0.74430825237435
 p    1 1.00
             0.1687144                   1
 d    1 1.00
                   0.8                   1

19 0
 s    6 1.00
             3047.5249  0.0018347001629433
             457.36951    0.01403730124668
             103.94869   0.068842606114048
             29.210155    0.23218442062076
              9.286663    0.46794134155879
              3.163927    0.36231203217765
 s    3 1.00
             7.8682724   -0.11933240861517
             1.8812885   -0.16085421161283
             0.5442493     1.1434564825515
 s    1 1.00
             0.1687144                   1
 p    3 1.00
             7.8682724   0.068999095584993
             1.8812885    0.31642397975315
             0.5442493    0.74430825237435
 p    1 1.00
             0.1687144                   1
 d    1 1.00
                   0.8                   1

20 0
 s    6 1.00
             3047.5249  0.0018347001629433
             457.36951    0.01403730124668
             103.94869   0.068842606114048
             29.210155    0.23218442062076
              9.286663    0.46794134155879
              3.163927    0.36231203217765
 s    3 1.00
             7.8682724   -0.11933240861517
             1.8812885   -0.16085421161283
             0.5442493     1.1434564825515
 s    1 1.00
             0.1687144                   1
 p    3 1.00
             7.8682724   0.068999095584993
             1.8812885    0.31642397975315
             0.5442493    0.74430825237435
 p    1 1.00
             0.1687144                   1
 d    1 1.00
                   0.8                   1

21 0
 s    6 1.00
             3047.5249  0.0018347001629433
             457.36951    0.01403730124668
             103.94869   0.068842606114048
             29.210155    0.23218442062076
              9.286663    0.46794134155879
              3.163927    0.36231203217765
 s    3 1.00
             7.8682724   -0.11933240861517
             1.8812885   -0.16085421161283
             0.5442493     1.1434564825515
 s    1 1.00
             0.1687144                   1
 p    3 1.00
             7.8682724   0.068999095584993
             1.8812885    0.31642397975315
             0.5442493    0.74430825237435
 p    1 1.00
             0.1687144                   1
 d    1 1.00
                   0.8                   1

22 0
 s    3 1.00
             18.731137    0.03349459952309
             2.8253937    0.23472694665786
             0.6401217    0.81375731841339
 s    1 1.00
             0.1612778                   1

23 0
 s    3 1.00
             18.731137    0.03349459952309
             2.8253937    0.23472694665786
             0.6401217    0.81375731841339
 s    1 1.00
             0.1612778                   1

24 0
 s    3 1.00
             18.731137    0.03349459952309
             2.8253937    0.23472694665786
             0.6401217    0.81375731841339
 s    1 1.00
             0.1612778                   1

25 0
 s    3 1.00
             18.731137    0.03349459952309
             2.8253937    0.23472694665786
             0.6401217    0.81375731841339
 s    1 1.00
             0.1612778                   1

26 0
 s    3 1.00
             18.731137    0.03349459952309
             2.8253937    0.23472694665786
             0.6401217    0.81375731841339
 s    1 1.00
             0.1612778                   1

27 0
 s    3 1.00
             18.731137    0.03349459952309
             2.8253937    0.23472694665786
             0.6401217    0.81375731841339
 s    1 1.00
             0.1612778                   1

28 0
 s    3 1.00
             18.731137    0.03349459952309
             2.8253937    0.23472694665786
             0.6401217    0.81375731841339
 s    1 1.00
             0.1612778                   1

29 0
 s    3 1.00
             18.731137    0.03349459952309
             2.8253937    0.23472694665786
             0.6401217    0.81375731841339
 s    1 1.00
             0.1612778                   1

30 0
 s    3 1.00
             18.731137    0.03349459952309
             2.8253937    0.23472694665786
             0.6401217    0.81375731841339
 s    1 1.00
             0.1612778                   1

31 0
 s    3 1.00
             18.731137    0.03349459952309
             2.8253937    0.23472694665786
             0.6401217    0.81375731841339
 s    1 1.00
             0.1612778                   1

32 0
 s    3 1.00
             18.731137    0.03349459952309
             2.8253937    0.23472694665786
             0.6401217    0.81375731841339
 s    1 1.00
             0.1612778                   1

33 0
 s    6 1.00
             3047.5249  0.0018347001629433
             457.36951    0.01403730124668
             103.94869   0.068842606114048
             29.210155    0.23218442062076
              9.286663    0.46794134155879
              3.163927    0.36231203217765
 s    3 1.00
             7.8682724   -0.11933240861517
             1.8812885   -0.16085421161283
             0.5442493     1.1434564825515
 s    1 1.00
             0.1687144                   1
 p    3 1.00
             7.8682724   0.068999095584993
             1.8812885    0.31642397975315
             0.5442493    0.74430825237435
 p    1 1.00
             0.1687144                   1
 d    1 1.00
                   0.8                   1

34 0
 s    6 1.00
             3047.5249  0.0018347001629433
             457.36951    0.01403730124668
             103.94869   0.068842606114048
             29.210155    0.23218442062076
              9.286663    0.46794134155879
              3.163927    0.36231203217765
 s    3 1.00
             7.8682724   -0.11933240861517
             1.8812885   -0.16085421161283
             0.5442493     1.1434564825515
 s    1 1.00
             0.1687144                   1
 p    3 1.00
             7.8682724   0.068999095584993
             1.8812885    0.31642397975315
             0.5442493    0.74430825237435
 p    1 1.00
             0.1687144                   1
 d    1 1.00
                   0.8                   1

35 0
 s    3 1.00
             18.731137    0.03349459952309
             2.8253937    0.23472694665786
             0.6401217    0.81375731841339
 s    1 1.00
             0.1612778                   1

36 0
 s    6 1.00
             3047.5249  0.0018347001629433
             457.36951    0.01403730124668
             103.94869   0.068842606114048
             29.210155    0.23218442062076
              9.286663    0.46794134155879
              3.163927    0.36231203217765
 s    3 1.00
             7.8682724   -0.11933240861517
             1.8812885   -0.16085421161283
             0.5442493     1.1434564825515
 s    1 1.00
             0.1687144                   1
 p    3 1.00
             7.8682724   0.068999095584993
             1.8812885    0.31642397975315
             0.5442493    0.74430825237435
 p    1 1.00
             0.1687144                   1
 d    1 1.00
                   0.8                   1

37 0
 s    3 1.00
             18.731137    0.03349459952309
             2.8253937    0.23472694665786
             0.6401217    0.81375731841339
 s    1 1.00
             0.1612778                   1

38 0
 s    3 1.00
             18.731137    0.03349459952309
             2.8253937    0.23472694665786
             0.6401217    0.81375731841339
 s    1 1.00
             0.1612778                   1

39 0
 s    6 1.00
             3047.5249  0.0018347001629433
             457.36951    0.01403730124668
             103.94869   0.068842606114048
             29.210155    0.23218442062076
              9.286663    0.46794134155879
              3.163927    0.36231203217765
 s    3 1.00
             7.8682724   -0.11933240861517
             1.8812885   -0.16085421161283
             0.5442493     1.1434564825515
 s    1 1.00
             0.1687144                   1
 p    3 1.00
             7.8682724   0.068999095584993
             1.8812885    0.31642397975315
             0.5442493    0.74430825237435
 p    1 1.00
             0.1687144                   1
 d    1 1.00
                   0.8                   1

40 0
 s    6 1.00
             3047.5249  0.0018347001629433
             457.36951    0.01403730124668
             103.94869   0.068842606114048
             29.210155    0.23218442062076
              9.286663    0.46794134155879
              3.163927    0.36231203217765
 s    3 1.00
             7.8682724   -0.11933240861517
             1.8812885   -0.16085421161283
             0.5442493     1.1434564825515
 s    1 1.00
             0.1687144                   1
 p    3 1.00
             7.8682724   0.068999095584993
             1.8812885    0.31642397975315
             0.5442493    0.74430825237435
 p    1 1.00
             0.1687144                   1
 d    1 1.00
                   0.8                   1

41 0
 s    3 1.00
             18.731137    0.03349459952309
             2.8253937    0.23472694665786
             0.6401217    0.81375731841339
 s    1 1.00
             0.1612778                   1

42 0
 s    6 1.00
             5484.6717   0.001831099805527
             825.23495   0.013950098518422
             188.04696    0.06844509273075
               52.9645    0.23271427528445
              16.89757    0.47019295006289
             5.7996353    0.35852086192309
 s    3 1.00
             15.539616   -0.11077750382508
             3.5999336   -0.14802630511126
             1.0137618     1.1307670390447
 s    1 1.00
             0.2700058                   1
 p    3 1.00
             15.539616   0.070874299543311
             3.5999336    0.33975279781076
             1.0137618    0.72715859531445
 p    1 1.00
             0.2700058                   1
 d    1 1.00
                   0.8                   1

43 0
 s    3 1.00
             18.731137    0.03349459952309
             2.8253937    0.23472694665786
             0.6401217    0.81375731841339
 s    1 1.00
             0.1612778                   1

[5d]
[7f]
[9g]

[MO]
 Sym= A
 Ene=               0
 Spin= Alpha
 Occup=    1.00000
   1    8.9746067185009e-07
   2    -1.6137270559458e-05
   3    5.774984462484e-05
   4    1.2509476571271e-07
   5    2.2876295313793e-06
   6    1.4026142546036e-05
   7    -1.8382145641466e-05
   8    -9.8116790246669e-06
   9    -0.0001374359363062
  10    -9.2869141955283e-07
  11    4.430486584391e-06
  12    1.942373723899e-06
  13    6.4409193823442e-06
  14    -3.4308455636173e-06
  15    -5.4751057566857e-06
  16    1.5602128927443e-05
  17    1.3432512400172e-06
  18    8.3096208431854e-05
  19    0.00033680141733866
  20    3.0186775561475e-05
  21    -2.2268641640865e-06
  22    -4.9397982772253e-05
  23    9.1693173358795e-05
  24    -2.6027150397407e-05
  25    -0.00040159205389948
  26    1.1926093263475e-05
  27    -1.1783032776916e-05
  28    -1.4352102089623e-06
  29    2.3648596913941e-05
  30    -9.2143964644088e-06
  31    -2.4348767192564e-06
  32    1.0694340141496e-05
  33    5.4365716443109e-05
  34    0.00013949427988649
  35    -0.0026018175702294
  36    -4.9858374917988e-05
  37    6.2251256765533e-05
  38    0.00015424094438734
  39    5.8284590831987e-05
  40    0.0011060027491093
  41    0.00049918923389447
  42    -3.5061909610693e-05
  43    4.7718682491912e-05
  44    -5.4673980660663e-05
  45    2.5744185921067e-05
  46    6.7348049103048e-06
  47    -3.0733075512288e-06
  48    -0.00015019983035309
  49    -5.2169044546736e-05
  50    0.00026025045842567
  51    0.0021219502945764
  52    0.00012982968553993
  53    -0.00023334350818987
  54    -0.00037258149917641
  55    -0.00047763329341907
  56    0.0013536024876445
  57     0.001539204377889
  58    1.1425697949002e-05
  59    3.2178849769536e-05
  60    9.8853853665489e-05
  61    -3.5130944937757e-06
  62    -5.9663496965307e-05
  63    0.0002782337836261
  64    8.6477329169112e-05
  65    -1.1327686467344e-07
  66    -2.3056278904279e-07
  67    -1.0984867134795e-08
  68    -2.4194563461112e-07
  69    1.6145886492873e-06
  70    7.2201168239848e-08
  71    -1.1256926974651e-07
  72     3.93188428956e-08
  73    -5.0190415423466e-08
  74    7.8859945907698e-07
  75    2.1571449024255e-07
  76    -3.2733178661669e-08
  77    -6.1800324128085e-08
  78    2.0999812973027e-08
  79    3.9234455179186e-08
  80    -4.8111521667066e-08
  81    2.3897613738031e-08
  82    4.9291770104403e-08
  83    8.9866823576169e-09
  84    -8.5049328724871e-08
  85    -5.2083151086807e-06
  86    2.7968261737012e-07
  87    1.187433870931e-07
  88    3.7395901485468e-07
  89    1.5230216092733e-06
  90    -2.0401161089625e-06
  91    1.1521610585168e-06
  92    7.5422121517694e-08
  93    -1.0423118863898e-07
  94    1.2658314768526e-07
  95    1.9977666541953e-08
  96    -5.7246581164794e-08
  97    3.121601522468e-07
  98    5.0365635289256e-07
  99    -6.611455976174e-08
 100    -5.4543051150557e-07
 101    -5.5203493218429e-08
 102    -5.7278378206596e-07
 103    6.3004733162547e-06
 104    -1.6420840883736e-07
 105    -6.6177397864486e-07
 106    -1.3312677274427e-07
 107    -8.0399037768238e-06
 108    6.4563034457946e-06
 109    1.1853379482571e-05
 110    -2.8926607311044e-07
 111    -2.6933907507463e-07
 112    1.3236867310132e-07
 113    3.2724545977841e-07
 114    -1.5374120529316e-07
 115    -2.7639114939527e-07
 116    -2.3588684203077e-06
 117    1.7373033974859e-05
 118    -3.2153274144191e-07
 119    5.6245162721695e-07
 120    2.9900542773783e-07
 121    -3.3824593914862e-06
 122    -1.2044666200344e-07
 123    -5.3929257045221e-07
 124    -2.7987826577024e-08
 125    -1.5590109824565e-08
 126    -8.3382200509431e-08
 127    -8.9372667518529e-09
 128    -1.0503761058446e-07
 129    -3.9688081613485e-07
 130    -4.4172235214337e-06
 131    1.730525025938e-05
 132    -1.3152326121719e-07
 133    -8.4624109964535e-07
 134    2.0177193822466e-06
 135    -8.6151465228878e-06
 136    2.2792193508066e-06
 137    -3.1580005411807e-05
 138    1.0408786343368e-06
 139    5.5200198035256e-07
 140    8.4428320110752e-09
 141    1.6893317466588e-07
 142    4.2055493574784e-09
 143    -1.0566907855588e-07
 144    -9.8762227420043e-07
 145    6.2403442531656e-06
 146    1.8046303004857e-07
 147    4.8826529706564e-07
 148    -1.6759039395471e-08
 149    4.1606885472684e-06
 150    -5.5685201179643e-06
 151    9.8079959898894e-07
 152    -4.7773025253415e-07
 153    -1.1905835567032e-07
 154    5.5625046805674e-08
 155    3.191399770413e-07
 156    -2.187520391431e-07
 157    1.6649841959704e-09
 158    1.1540463255634e-07
 159    2.9250265952001e-06
 160    3.9342710216447e-07
 161    -2.0285600292513e-07
 162    1.6343949615361e-07
 163    -1.940801053986e-06
 164    -9.8623939991294e-07
 165    2.7371106505787e-07
 166    9.376233990373e-08
 167    1.5351646993858e-08
 168    -1.8134156022772e-08
 169    -8.318408899008e-08
 170    5.137823047723e-08
 171    2.5350177059053e-08
 172    -1.8927939538516e-07
 173    -1.5271982624727e-06
 174    -3.5236024706079e-07
 175    -4.9900158304983e-08
 176    2.9477067980557e-07
 177    -7.6961188218658e-07
 178    2.6886120002063e-07
 179    -1.4112970359957e-06
 180    1.0100975584539e-07
 181    3.0756052784123e-08
 182    -3.4138038208177e-08
 183    -2.0812615616057e-07
 184    3.0832825896895e-08
 185    -1.0989520971191e-07
 186    -1.1399915944338e-06
 187    1.829293809371e-07
 188    -6.5464501540854e-08
 189    6.2129693433257e-08
 190    4.4292992963901e-07
 191    1.3189677697343e-06
 192    1.1673754824989e-06
 193    -2.3882686575046e-06
 194    1.8200889912957e-07
 195    -4.8771286562192e-08
 196    -3.8494831644349e-08
 197    2.989780554863e-08
 198    -4.9350793309661e-08
 199    -3.0833593484249e-07
 200    -8.5547493551948e-07
 201    4.6595346940136e-08
 202    1.476781818518e-06
 203    -9.094964025743e-07
 204    -1.1011227971759e-06
 205    -2.0842693484692e-07
 206    -1.0401304757252e-06
 207    1.0461021775294e-06
 208    -8.4699679692252e-06
 209    2.9246098468371e-07
 210    -1.8924054667562e-06
 211    3.0850617066651e-08
 212    1.1362714519483e-06
 213    -9.9955333378267e-08
 214    -8.7107687602803e-07
 215    -1.3709561926467e-07
 216    -5.5245766087347e-07
 217    1.5400041723165e-07
 218    5.4571584721692e-07
 219    4.6135097434249e-08
 220    6.4290839873579e-07
 221    -3.2270050372925e-07
 222    -3.0091455507281e-06
 223    -6.7583186036156e-06
 224    -4.1287284444477e-07
 225    9.9144917966919e-07
 226    1.3263581877473e-06
 227    8.7531214995026e-06
 228    9.8870186014456e-06
 229    -2.8458379806161e-05
 230    -8.210138675402e-07
 231    -1.303568519351e-06
 232    -8.5901649921438e-07
 233    6.3272402180086e-07
 234    1.3586951832266e-06
 235    -8.6230842668293e-07
 236    -9.2113032073168e-06
 237    5.0986298091953e-05
 238    -5.6941647272159e-07
 239    2.8512729393227e-06
 240    2.1557830135257e-06
 241    -1.9575952221032e-05
 242    -7.3218015104564e-06
 243    -5.6207420104335e-05
 244    2.5454197180034e-06
 245    3.129204360173e-06
 246    1.3140808556109e-06
 247    1.2084393290968e-06
 248    1.4835796714068e-06
 249    -7.9495959324278e-07
 250    6.8447148078237e-06
 251    -1.785191841625e-06
 252    -8.5977295177628e-06
 253    3.7840864953431e-05
 254    5.4919640971151e-06
 255    -8.6136186820382e-06
 256    2.4374944775576e-06
 257    1.8967636126806e-05
 258    5.7724300632597e-05
 259    -0.00011010810147823
 260    -1.0350806555828e-06
 261    -5.2982607153451e-06
 262    -2.9693925960034e-06
 263    2.5878476547514e-06
 264    4.2773618358421e-06
 265    -2.6817769709201e-06
 266    1.3411573234728e-05
 267    -5.2407970073141e-06
 268    1.7458867533068e-05
 269    -4.5862247584082e-05
 270    8.2827848930229e-05
 271    0.0019144708688692
 272    -0.00012813333224762
 273    -0.00015406207986652
 274    0.0001185251477957
 275     0.001056132698697
 276    0.0003453043044288
 277    -0.0018862653126241
 278    0.00017226677682421
 279    -0.00010771149125385
 280    5.4493187815769e-05