[Molden Format]
made by pyscf v[2.0.1]
[Atoms] (AU)
C   1   6     0.69100024066471     0.64692934207205    -3.48223131169301
H   2   1     2.68052439830868     1.13355088658700    -3.25784032593313
C   3   6    -0.36286361513219     0.85440132524594    -5.97030179418974
H   4   1    -2.35448549047279     0.36322488579172    -6.17995817793143
C   5   6     0.93697958957450     1.61209284601821    -8.05828437677121
H   6   1     0.30646242799847     3.28538583431710    -9.07979378939352
C   7   6     3.12235401223615     0.31857752265429    -9.01077606594223
H   8   1     3.73232478675010    -1.35404880050347    -7.96675544506269
H   9   1     1.55630230933075    -1.92953025305990    12.99630010416247
C   10   6     0.75233899775814    -2.21270439606481    11.10705728102219
H   11   1    -0.43433408177274    -3.90944857546550    11.22216085340412
C   12   6     2.86362581178706    -2.63237380607947     9.17926416456045
H   13   1     4.39038949912609    -1.24955421540245     9.49899813497433
H   14   1     3.74629220191363    -4.48798724300892     9.47414880959024
C   15   6     2.02478325613682    -2.42177285709634     6.44560829588644
C   16   6     3.88048732735477    -3.58795445234514     4.61402886975252
C   17   6    -0.18412382258602    -1.30464291234259     5.76021113872346
C   18   6    -2.10044360464350    -0.26837831858460     7.71610340967100
C   19   6    -3.08956938670431     2.35282328359417     6.88693925039594
C   20   6    -4.37372924086464    -2.09766595989678     7.93610724222001
C   21   6    -0.83850430601230     0.06372213486173    10.33002307638377
H   22   1     0.38411922151109     1.74281358582432    10.27380136542181
H   23   1    -2.30980003007874     0.45460143924521    11.73986301809809
H   24   1     4.58527064644668    -5.38706904487420     5.36778158031719
H   25   1     5.54944938085014    -2.37631462192748     4.35398898413318
H   26   1     3.06633019150423    -3.94118377050688     2.75255466040884
H   27   1    -4.17727778763735     2.26573369139522     5.12914900961283
H   28   1    -1.52662344944051     3.68001877445626     6.59540397144508
H   29   1    -4.32916174397830     3.13643051467482     8.35225460090378
H   30   1    -5.32329548508442    -2.36691813602939     6.11583672749896
H   31   1    -5.77989366602257    -1.33896741843465     9.25748940450990
H   32   1    -3.79310905208926    -3.96389819310853     8.61386170102686
C   33   6    -1.01100794811226    -1.06331657314144     3.11929490449947
C   34   6     0.37686231036534    -0.33275864505552     1.09165013605873
H   35   1    -3.01671213906703    -1.40297922279997     2.77827895090944
C   36   6    -0.64382707979370    -0.11591880174385    -1.42063131251064
H   37   1     2.35569259782137     0.17174499283897     1.33641070251401
H   38   1    -2.63317482980319    -0.60229203511219    -1.66119700387645
C   39   6     4.47307059082302     1.00138906809445   -11.08105785168909
C   40   6     6.67463726557562    -0.44413475967984   -11.89995199897600
H   41   1     3.96718229655089     2.64690253849906   -12.20539356366280
O   42   8     7.97152342098443     0.06042731610533   -13.73960618931333
H   43   1     7.12379765531873    -2.11255344586070   -10.69379572801653
[GTO]
1 0
 s    6 1.00
             3047.5249  0.0018347001629433
             457.36951    0.01403730124668
             103.94869   0.068842606114048
             29.210155    0.23218442062076
              9.286663    0.46794134155879
              3.163927    0.36231203217765
 s    3 1.00
             7.8682724   -0.11933240861517
             1.8812885   -0.16085421161283
             0.5442493     1.1434564825515
 s    1 1.00
             0.1687144                   1
 p    3 1.00
             7.8682724   0.068999095584993
             1.8812885    0.31642397975315
             0.5442493    0.74430825237435
 p    1 1.00
             0.1687144                   1
 d    1 1.00
                   0.8                   1

2 0
 s    3 1.00
             18.731137    0.03349459952309
             2.8253937    0.23472694665786
             0.6401217    0.81375731841339
 s    1 1.00
             0.1612778                   1

3 0
 s    6 1.00
             3047.5249  0.0018347001629433
             457.36951    0.01403730124668
             103.94869   0.068842606114048
             29.210155    0.23218442062076
              9.286663    0.46794134155879
              3.163927    0.36231203217765
 s    3 1.00
             7.8682724   -0.11933240861517
             1.8812885   -0.16085421161283
             0.5442493     1.1434564825515
 s    1 1.00
             0.1687144                   1
 p    3 1.00
             7.8682724   0.068999095584993
             1.8812885    0.31642397975315
             0.5442493    0.74430825237435
 p    1 1.00
             0.1687144                   1
 d    1 1.00
                   0.8                   1

4 0
 s    3 1.00
             18.731137    0.03349459952309
             2.8253937    0.23472694665786
             0.6401217    0.81375731841339
 s    1 1.00
             0.1612778                   1

5 0
 s    6 1.00
             3047.5249  0.0018347001629433
             457.36951    0.01403730124668
             103.94869   0.068842606114048
             29.210155    0.23218442062076
              9.286663    0.46794134155879
              3.163927    0.36231203217765
 s    3 1.00
             7.8682724   -0.11933240861517
             1.8812885   -0.16085421161283
             0.5442493     1.1434564825515
 s    1 1.00
             0.1687144                   1
 p    3 1.00
             7.8682724   0.068999095584993
             1.8812885    0.31642397975315
             0.5442493    0.74430825237435
 p    1 1.00
             0.1687144                   1
 d    1 1.00
                   0.8                   1

6 0
 s    3 1.00
             18.731137    0.03349459952309
             2.8253937    0.23472694665786
             0.6401217    0.81375731841339
 s    1 1.00
             0.1612778                   1

7 0
 s    6 1.00
             3047.5249  0.0018347001629433
             457.36951    0.01403730124668
             103.94869   0.068842606114048
             29.210155    0.23218442062076
              9.286663    0.46794134155879
              3.163927    0.36231203217765
 s    3 1.00
             7.8682724   -0.11933240861517
             1.8812885   -0.16085421161283
             0.5442493     1.1434564825515
 s    1 1.00
             0.1687144                   1
 p    3 1.00
             7.8682724   0.068999095584993
             1.8812885    0.31642397975315
             0.5442493    0.74430825237435
 p    1 1.00
             0.1687144                   1
 d    1 1.00
                   0.8                   1

8 0
 s    3 1.00
             18.731137    0.03349459952309
             2.8253937    0.23472694665786
             0.6401217    0.81375731841339
 s    1 1.00
             0.1612778                   1

9 0
 s    3 1.00
             18.731137    0.03349459952309
             2.8253937    0.23472694665786
             0.6401217    0.81375731841339
 s    1 1.00
             0.1612778                   1

10 0
 s    6 1.00
             3047.5249  0.0018347001629433
             457.36951    0.01403730124668
             103.94869   0.068842606114048
             29.210155    0.23218442062076
              9.286663    0.46794134155879
              3.163927    0.36231203217765
 s    3 1.00
             7.8682724   -0.11933240861517
             1.8812885   -0.16085421161283
             0.5442493     1.1434564825515
 s    1 1.00
             0.1687144                   1
 p    3 1.00
             7.8682724   0.068999095584993
             1.8812885    0.31642397975315
             0.5442493    0.74430825237435
 p    1 1.00
             0.1687144                   1
 d    1 1.00
                   0.8                   1

11 0
 s    3 1.00
             18.731137    0.03349459952309
             2.8253937    0.23472694665786
             0.6401217    0.81375731841339
 s    1 1.00
             0.1612778                   1

12 0
 s    6 1.00
             3047.5249  0.0018347001629433
             457.36951    0.01403730124668
             103.94869   0.068842606114048
             29.210155    0.23218442062076
              9.286663    0.46794134155879
              3.163927    0.36231203217765
 s    3 1.00
             7.8682724   -0.11933240861517
             1.8812885   -0.16085421161283
             0.5442493     1.1434564825515
 s    1 1.00
             0.1687144                   1
 p    3 1.00
             7.8682724   0.068999095584993
             1.8812885    0.31642397975315
             0.5442493    0.74430825237435
 p    1 1.00
             0.1687144                   1
 d    1 1.00
                   0.8                   1

13 0
 s    3 1.00
             18.731137    0.03349459952309
             2.8253937    0.23472694665786
             0.6401217    0.81375731841339
 s    1 1.00
             0.1612778                   1

14 0
 s    3 1.00
             18.731137    0.03349459952309
             2.8253937    0.23472694665786
             0.6401217    0.81375731841339
 s    1 1.00
             0.1612778                   1

15 0
 s    6 1.00
             3047.5249  0.0018347001629433
             457.36951    0.01403730124668
             103.94869   0.068842606114048
             29.210155    0.23218442062076
              9.286663    0.46794134155879
              3.163927    0.36231203217765
 s    3 1.00
             7.8682724   -0.11933240861517
             1.8812885   -0.16085421161283
             0.5442493     1.1434564825515
 s    1 1.00
             0.1687144                   1
 p    3 1.00
             7.8682724   0.068999095584993
             1.8812885    0.31642397975315
             0.5442493    0.74430825237435
 p    1 1.00
             0.1687144                   1
 d    1 1.00
                   0.8                   1

16 0
 s    6 1.00
             3047.5249  0.0018347001629433
             457.36951    0.01403730124668
             103.94869   0.068842606114048
             29.210155    0.23218442062076
              9.286663    0.46794134155879
              3.163927    0.36231203217765
 s    3 1.00
             7.8682724   -0.11933240861517
             1.8812885   -0.16085421161283
             0.5442493     1.1434564825515
 s    1 1.00
             0.1687144                   1
 p    3 1.00
             7.8682724   0.068999095584993
             1.8812885    0.31642397975315
             0.5442493    0.74430825237435
 p    1 1.00
             0.1687144                   1
 d    1 1.00
                   0.8                   1

17 0
 s    6 1.00
             3047.5249  0.0018347001629433
             457.36951    0.01403730124668
             103.94869   0.068842606114048
             29.210155    0.23218442062076
              9.286663    0.46794134155879
              3.163927    0.36231203217765
 s    3 1.00
             7.8682724   -0.11933240861517
             1.8812885   -0.16085421161283
             0.5442493     1.1434564825515
 s    1 1.00
             0.1687144                   1
 p    3 1.00
             7.8682724   0.068999095584993
             1.8812885    0.31642397975315
             0.5442493    0.74430825237435
 p    1 1.00
             0.1687144                   1
 d    1 1.00
                   0.8                   1

18 0
 s    6 1.00
             3047.5249  0.0018347001629433
             457.36951    0.01403730124668
             103.94869   0.068842606114048
             29.210155    0.23218442062076
              9.286663    0.46794134155879
              3.163927    0.36231203217765
 s    3 1.00
             7.8682724   -0.11933240861517
             1.8812885   -0.16085421161283
             0.5442493     1.1434564825515
 s    1 1.00
             0.1687144                   1
 p    3 1.00
             7.8682724   0.068999095584993
             1.8812885    0.31642397975315
             0.5442493    0.74430825237435
 p    1 1.00
             0.1687144                   1
 d    1 1.00
                   0.8                   1

19 0
 s    6 1.00
             3047.5249  0.0018347001629433
             457.36951    0.01403730124668
             103.94869   0.068842606114048
             29.210155    0.23218442062076
              9.286663    0.46794134155879
              3.163927    0.36231203217765
 s    3 1.00
             7.8682724   -0.11933240861517
             1.8812885   -0.16085421161283
             0.5442493     1.1434564825515
 s    1 1.00
             0.1687144                   1
 p    3 1.00
             7.8682724   0.068999095584993
             1.8812885    0.31642397975315
             0.5442493    0.74430825237435
 p    1 1.00
             0.1687144                   1
 d    1 1.00
                   0.8                   1

20 0
 s    6 1.00
             3047.5249  0.0018347001629433
             457.36951    0.01403730124668
             103.94869   0.068842606114048
             29.210155    0.23218442062076
              9.286663    0.46794134155879
              3.163927    0.36231203217765
 s    3 1.00
             7.8682724   -0.11933240861517
             1.8812885   -0.16085421161283
             0.5442493     1.1434564825515
 s    1 1.00
             0.1687144                   1
 p    3 1.00
             7.8682724   0.068999095584993
             1.8812885    0.31642397975315
             0.5442493    0.74430825237435
 p    1 1.00
             0.1687144                   1
 d    1 1.00
                   0.8                   1

21 0
 s    6 1.00
             3047.5249  0.0018347001629433
             457.36951    0.01403730124668
             103.94869   0.068842606114048
             29.210155    0.23218442062076
              9.286663    0.46794134155879
              3.163927    0.36231203217765
 s    3 1.00
             7.8682724   -0.11933240861517
             1.8812885   -0.16085421161283
             0.5442493     1.1434564825515
 s    1 1.00
             0.1687144                   1
 p    3 1.00
             7.8682724   0.068999095584993
             1.8812885    0.31642397975315
             0.5442493    0.74430825237435
 p    1 1.00
             0.1687144                   1
 d    1 1.00
                   0.8                   1

22 0
 s    3 1.00
             18.731137    0.03349459952309
             2.8253937    0.23472694665786
             0.6401217    0.81375731841339
 s    1 1.00
             0.1612778                   1

23 0
 s    3 1.00
             18.731137    0.03349459952309
             2.8253937    0.23472694665786
             0.6401217    0.81375731841339
 s    1 1.00
             0.1612778                   1

24 0
 s    3 1.00
             18.731137    0.03349459952309
             2.8253937    0.23472694665786
             0.6401217    0.81375731841339
 s    1 1.00
             0.1612778                   1

25 0
 s    3 1.00
             18.731137    0.03349459952309
             2.8253937    0.23472694665786
             0.6401217    0.81375731841339
 s    1 1.00
             0.1612778                   1

26 0
 s    3 1.00
             18.731137    0.03349459952309
             2.8253937    0.23472694665786
             0.6401217    0.81375731841339
 s    1 1.00
             0.1612778                   1

27 0
 s    3 1.00
             18.731137    0.03349459952309
             2.8253937    0.23472694665786
             0.6401217    0.81375731841339
 s    1 1.00
             0.1612778                   1

28 0
 s    3 1.00
             18.731137    0.03349459952309
             2.8253937    0.23472694665786
             0.6401217    0.81375731841339
 s    1 1.00
             0.1612778                   1

29 0
 s    3 1.00
             18.731137    0.03349459952309
             2.8253937    0.23472694665786
             0.6401217    0.81375731841339
 s    1 1.00
             0.1612778                   1

30 0
 s    3 1.00
             18.731137    0.03349459952309
             2.8253937    0.23472694665786
             0.6401217    0.81375731841339
 s    1 1.00
             0.1612778                   1

31 0
 s    3 1.00
             18.731137    0.03349459952309
             2.8253937    0.23472694665786
             0.6401217    0.81375731841339
 s    1 1.00
             0.1612778                   1

32 0
 s    3 1.00
             18.731137    0.03349459952309
             2.8253937    0.23472694665786
             0.6401217    0.81375731841339
 s    1 1.00
             0.1612778                   1

33 0
 s    6 1.00
             3047.5249  0.0018347001629433
             457.36951    0.01403730124668
             103.94869   0.068842606114048
             29.210155    0.23218442062076
              9.286663    0.46794134155879
              3.163927    0.36231203217765
 s    3 1.00
             7.8682724   -0.11933240861517
             1.8812885   -0.16085421161283
             0.5442493     1.1434564825515
 s    1 1.00
             0.1687144                   1
 p    3 1.00
             7.8682724   0.068999095584993
             1.8812885    0.31642397975315
             0.5442493    0.74430825237435
 p    1 1.00
             0.1687144                   1
 d    1 1.00
                   0.8                   1

34 0
 s    6 1.00
             3047.5249  0.0018347001629433
             457.36951    0.01403730124668
             103.94869   0.068842606114048
             29.210155    0.23218442062076
              9.286663    0.46794134155879
              3.163927    0.36231203217765
 s    3 1.00
             7.8682724   -0.11933240861517
             1.8812885   -0.16085421161283
             0.5442493     1.1434564825515
 s    1 1.00
             0.1687144                   1
 p    3 1.00
             7.8682724   0.068999095584993
             1.8812885    0.31642397975315
             0.5442493    0.74430825237435
 p    1 1.00
             0.1687144                   1
 d    1 1.00
                   0.8                   1

35 0
 s    3 1.00
             18.731137    0.03349459952309
             2.8253937    0.23472694665786
             0.6401217    0.81375731841339
 s    1 1.00
             0.1612778                   1

36 0
 s    6 1.00
             3047.5249  0.0018347001629433
             457.36951    0.01403730124668
             103.94869   0.068842606114048
             29.210155    0.23218442062076
              9.286663    0.46794134155879
              3.163927    0.36231203217765
 s    3 1.00
             7.8682724   -0.11933240861517
             1.8812885   -0.16085421161283
             0.5442493     1.1434564825515
 s    1 1.00
             0.1687144                   1
 p    3 1.00
             7.8682724   0.068999095584993
             1.8812885    0.31642397975315
             0.5442493    0.74430825237435
 p    1 1.00
             0.1687144                   1
 d    1 1.00
                   0.8                   1

37 0
 s    3 1.00
             18.731137    0.03349459952309
             2.8253937    0.23472694665786
             0.6401217    0.81375731841339
 s    1 1.00
             0.1612778                   1

38 0
 s    3 1.00
             18.731137    0.03349459952309
             2.8253937    0.23472694665786
             0.6401217    0.81375731841339
 s    1 1.00
             0.1612778                   1

39 0
 s    6 1.00
             3047.5249  0.0018347001629433
             457.36951    0.01403730124668
             103.94869   0.068842606114048
             29.210155    0.23218442062076
              9.286663    0.46794134155879
              3.163927    0.36231203217765
 s    3 1.00
             7.8682724   -0.11933240861517
             1.8812885   -0.16085421161283
             0.5442493     1.1434564825515
 s    1 1.00
             0.1687144                   1
 p    3 1.00
             7.8682724   0.068999095584993
             1.8812885    0.31642397975315
             0.5442493    0.74430825237435
 p    1 1.00
             0.1687144                   1
 d    1 1.00
                   0.8                   1

40 0
 s    6 1.00
             3047.5249  0.0018347001629433
             457.36951    0.01403730124668
             103.94869   0.068842606114048
             29.210155    0.23218442062076
              9.286663    0.46794134155879
              3.163927    0.36231203217765
 s    3 1.00
             7.8682724   -0.11933240861517
             1.8812885   -0.16085421161283
             0.5442493     1.1434564825515
 s    1 1.00
             0.1687144                   1
 p    3 1.00
             7.8682724   0.068999095584993
             1.8812885    0.31642397975315
             0.5442493    0.74430825237435
 p    1 1.00
             0.1687144                   1
 d    1 1.00
                   0.8                   1

41 0
 s    3 1.00
             18.731137    0.03349459952309
             2.8253937    0.23472694665786
             0.6401217    0.81375731841339
 s    1 1.00
             0.1612778                   1

42 0
 s    6 1.00
             5484.6717   0.001831099805527
             825.23495   0.013950098518422
             188.04696    0.06844509273075
               52.9645    0.23271427528445
              16.89757    0.47019295006289
             5.7996353    0.35852086192309
 s    3 1.00
             15.539616   -0.11077750382508
             3.5999336   -0.14802630511126
             1.0137618     1.1307670390447
 s    1 1.00
             0.2700058                   1
 p    3 1.00
             15.539616   0.070874299543311
             3.5999336    0.33975279781076
             1.0137618    0.72715859531445
 p    1 1.00
             0.2700058                   1
 d    1 1.00
                   0.8                   1

43 0
 s    3 1.00
             18.731137    0.03349459952309
             2.8253937    0.23472694665786
             0.6401217    0.81375731841339
 s    1 1.00
             0.1612778                   1

[5d]
[7f]
[9g]

[MO]
 Sym= A
 Ene=               0
 Spin= Alpha
 Occup=    1.00000
   1    -7.948778801387e-07
   2    -1.274677680057e-05
   3    0.0002283050287095
   4    -5.042983163991e-06
   5    1.6577784925444e-05
   6    1.5771391899976e-06
   7    -4.6406471048463e-05
   8    -8.8256318205478e-05
   9    1.3394481572759e-05
  10    4.7814194068157e-06
  11    1.124141246261e-06
  12    2.5920383095121e-06
  13    -4.934107875904e-06
  14    3.4953903497983e-06
  15    2.4179305963051e-06
  16    1.1091778546783e-07
  17    1.958871745867e-06
  18    -5.358080807491e-05
  19    -0.00052084651797754
  20    -3.5814692316451e-05
  21    -9.0561932229186e-06
  22    4.4037851524551e-05
  23    -0.00031291284406345
  24    6.9701359164666e-05
  25    0.00015944506271687
  26    -1.5746077768354e-05
  27    1.2910520884894e-05
  28    -1.0445120448441e-05
  29    -1.6808481128313e-05
  30    -1.1683249650787e-05
  31    6.110188942092e-06
  32    -4.3914047943864e-05
  33    -5.4660259477834e-05
  34    -0.00014008618248512
  35    0.0026099668473986
  36    0.00014066875688274
  37    -3.9088873934137e-05
  38    -8.761936366644e-05
  39    0.00086809876718877
  40    -0.00093815135645012
  41    0.00010508966366659
  42    -1.2016983655901e-05
  43    -5.7705708812341e-05
  44    3.1538690138038e-06
  45    2.910187434298e-05
  46    -5.6054612352066e-05
  47    7.2916791147989e-06
  48    0.00016789227438394
  49    5.2665246839386e-05
  50    -0.00025854211586432
  51    -0.0021837074381894
  52    -0.00037226584611722
  53    0.0001768356871452
  54    0.0001979235644022
  55    0.0017056162529969
  56    -0.0010927492947333
  57    -0.00068035220246742
  58    5.7883904404994e-05
  59    -3.2750357349632e-06
  60    -8.3558470085637e-05
  61      -3.864268175e-05
  62    5.3519423716031e-05
  63    -0.0002778023767148
  64    -9.9145477547073e-05
  65    2.3976255529495e-08
  66    3.1229244854158e-07
  67    8.1806767087571e-09
  68    1.3211062443607e-07
  69    -1.1261732805481e-06
  70    -3.206800391982e-09
  71    2.8741815742534e-08
  72    -9.0592377381848e-08
  73    1.6167588739999e-07
  74    -3.8402071615111e-07
  75    -3.0189459208086e-08
  76    7.1098706174395e-08
  77    7.9621261314937e-08
  78    2.5645988859985e-11
  79    2.7124087665816e-09
  80    8.0478958259679e-08
  81    -2.2372809635357e-08
  82    1.4459355144587e-07
  83    4.4860070528794e-08
  84    5.3998649763254e-07
  85    7.6880346579007e-06
  86    -3.95583839089e-07
  87    1.607366288377e-07
  88    -4.1852157717724e-07
  89    -9.9737927150574e-07
  90    5.0280900273236e-07
  91    -2.6382519922821e-06
  92    -1.0688440492594e-07
  93    9.3423596263419e-08
  94    -6.7772966692616e-08
  95    -1.0591855754619e-07
  96    1.086599700356e-07
  97    -1.0573727619087e-07
  98    1.0971826939066e-07
  99    -2.1853652730273e-07
 100    -6.1706452438256e-08
 101    -1.4234327732361e-07
 102    -4.0640575826324e-07
 103    9.901822554012e-06
 104    -6.7678990699613e-07
 105    2.8799577658084e-07
 106    2.3736655844468e-07
 107    5.2478690527407e-06
 108    -5.6266137420557e-06
 109    -2.3273330257744e-05
 110    3.708042497678e-07
 111    5.2305681231986e-07
 112    -2.1428505907888e-07
 113    -2.4355635441251e-09
 114    8.0997916455551e-08
 115    2.5911712368971e-07
 116    2.3126607792962e-06
 117    -1.9549145310488e-05
 118    3.4560578716422e-07
 119    -1.9441157325955e-07
 120    -6.1668127412172e-07
 121    6.383076563437e-06
 122    -3.9656111763819e-06
 123    -1.8861390301129e-06
 124    1.7832812923287e-07
 125    1.6724594763559e-07
 126    -1.563024367245e-07
 127    -2.1007528702726e-07
 128    2.6271707875532e-07
 129    5.9700510141299e-07
 130    4.7470291925394e-06
 131    -3.4777330265564e-05
 132    6.3122134072895e-07
 133    -3.669313011008e-07
 134    -1.8189492443483e-06
 135    -4.7209007913393e-06
 136    6.4811057628975e-06
 137    5.2234384401316e-05
 138    -1.5282380012117e-06
 139    -9.4834378906615e-07
 140    2.3133775960971e-07
 141    -2.735535611487e-07
 142    3.7166109507817e-07
 143    4.1456485903388e-07
 144    3.1966022819473e-06
 145    -2.4829301906036e-05
 146    1.0649009019722e-08
 147    7.6452112356613e-09
 148    5.0873965903896e-07
 149    -1.2856786474447e-05
 150    5.940670327479e-06
 151    1.3520148284051e-06
 152    3.5579035167347e-07
 153    2.6743930804197e-07
 154    -1.5919340782531e-07
 155    -4.3312162432528e-07
 156    4.8457593756394e-07
 157    3.1341035761425e-08
 158    1.5833886228786e-07
 159    -2.3952881462957e-06
 160    -1.7311887756486e-07
 161    1.9037128275128e-08
 162    1.077437702821e-07
 163    3.073759264532e-06
 164    6.3369805881105e-07
 165    1.997827141163e-09
 166    -2.2157441894007e-07
 167    2.0034003852828e-07
 168    -2.9879579846385e-08
 169    1.4006071368153e-07
 170    -1.817329313827e-07
 171    -1.0456120768444e-08
 172    1.8443161131084e-07
 173    -1.4521592062923e-07
 174    1.426447791467e-07
 175    1.0689170489166e-07
 176    -8.6558774806762e-08
 177    1.9111132854798e-06
 178    -1.2778044994978e-06
 179    7.9654645185689e-07
 180    -6.2511648122968e-08
 181    9.5687386634848e-08
 182    -9.6592881019681e-08
 183    3.0849556277147e-07
 184    3.9488917996588e-08
 185    4.2025268175303e-08
 186    8.1445974744596e-07
 187    4.5121966770889e-06
 188    -9.9060436326523e-08
 189    -1.1082195217673e-07
 190    -8.3864868630079e-07
 191    -1.2944114035826e-06
 192    -9.7466069983478e-07
 193    -8.2051829501807e-08
 194    3.7641728504805e-08
 195    1.5198905741442e-07
 196    -2.0803597958295e-08
 197    -1.6102662703887e-07
 198    1.2497735617978e-07
 199    6.1706486214167e-08
 200    4.6956967610347e-07
 201    -9.5213524535503e-08
 202    -1.7121888927804e-06
 203    5.1126898819197e-07
 204    -6.1593419448274e-07
 205    5.4711394342687e-07
 206    1.1112700542909e-06
 207    3.2800563405965e-07
 208    2.7204225969218e-06
 209    -3.9283945503856e-07
 210    2.7213383453002e-06
 211    -1.8922455078999e-07
 212    -1.1054912569613e-06
 213    2.622055157086e-07
 214    6.8127974374689e-07
 215    -2.2070535008959e-07
 216    1.7518826771606e-06
 217    6.9338774093156e-08
 218    1.0919038461609e-07
 219    -1.5607842241191e-07
 220    -9.7575016795424e-07
 221    -3.0333247129846e-07
 222    -4.0097820443851e-07
 223    6.375269215295e-05
 224    -4.3012084324868e-07
 225    2.3021992375526e-06
 226    -2.66563268351e-06
 227    1.6669718832486e-05
 228    -7.1895841954846e-06
 229    2.6190133862571e-05
 230    1.5550657604539e-06
 231    1.2881302104103e-06
 232    -1.3422069750971e-07
 233    -4.7673974451687e-07
 234    -8.2036401510176e-07
 235    7.7082590937535e-07
 236    6.4930456044802e-06
 237    -7.934453506903e-05
 238    -6.0108940808081e-07
 239    -3.2890845166411e-06
 240    3.0484605120636e-07
 241    4.173588231132e-05
 242    9.9838577222702e-06
 243    1.9032213727618e-05
 244    -1.1565979745712e-06
 245    -2.0625665671373e-06
 246    1.0101558482761e-06
 247    -1.379297131582e-06
 248    1.7485611700029e-07
 249    2.4280179772997e-06
 250    -4.970561109419e-06
 251    1.9423752513316e-06
 252    1.5527149796564e-05
 253    -0.00010098495884319
 254    -3.6224889511229e-07
 255    3.6973285750782e-07
 256    -6.6151475143831e-06
 257    -2.7512887267237e-05
 258    -2.033664994526e-05
 259    0.0001556990148309
 260    -1.8706297945344e-06
 261    6.5511480509156e-06
 262    3.5984120228075e-07
 263    -4.8595129589077e-06
 264    6.9657310329929e-07
 265    -1.2329337408533e-06
 266    -1.3002626550389e-05
 267    6.7204478347809e-06
 268    -3.0210114764986e-06
 269    4.5663985660789e-05
 270    -8.3963184572289e-05
 271    -0.0018974347362409
 272    2.5330665737611e-05
 273    0.00012971766032427
 274    -0.00019059543722617
 275    -0.0013180972173037
 276    -0.00039480282232897
 277    0.0017184063456465
 278    -4.6212931820199e-05
 279    0.00017418459447196
 280    -9.6390535184441e-05