[Molden Format]
made by pyscf v[2.0.1]
[Atoms] (AU)
C   1   6     0.69100024066471     0.64692934207205    -3.48223131169301
H   2   1     2.68052439830868     1.13355088658700    -3.25784032593313
C   3   6    -0.36286361513219     0.85440132524594    -5.97030179418974
H   4   1    -2.35448549047279     0.36322488579172    -6.17995817793143
C   5   6     0.93697958957450     1.61209284601821    -8.05828437677121
H   6   1     1.79023114573091     3.48620134168797    -8.08322278856913
C   7   6     1.25568723688000     0.06665493916240   -10.26426053014808
H   8   1     0.39118722523993    -1.80671768770582   -10.21099750517578
H   9   1     1.55630230933075    -1.92953025305990    12.99630010416247
C   10   6     0.75233899775814    -2.21270439606481    11.10705728102219
H   11   1    -0.43433408177274    -3.90944857546550    11.22216085340412
C   12   6     2.86362581178706    -2.63237380607947     9.17926416456045
H   13   1     4.39038949912609    -1.24955421540245     9.49899813497433
H   14   1     3.74629220191363    -4.48798724300892     9.47414880959024
C   15   6     2.02478325613682    -2.42177285709634     6.44560829588644
C   16   6     3.88048732735477    -3.58795445234514     4.61402886975252
C   17   6    -0.18412382258602    -1.30464291234259     5.76021113872346
C   18   6    -2.10044360464350    -0.26837831858460     7.71610340967100
C   19   6    -3.08956938670431     2.35282328359417     6.88693925039594
C   20   6    -4.37372924086464    -2.09766595989678     7.93610724222001
C   21   6    -0.83850430601230     0.06372213486173    10.33002307638377
H   22   1     0.38411922151109     1.74281358582432    10.27380136542181
H   23   1    -2.30980003007874     0.45460143924521    11.73986301809809
H   24   1     4.58527064644668    -5.38706904487420     5.36778158031719
H   25   1     5.54944938085014    -2.37631462192748     4.35398898413318
H   26   1     3.06633019150423    -3.94118377050688     2.75255466040884
H   27   1    -4.17727778763735     2.26573369139522     5.12914900961283
H   28   1    -1.52662344944051     3.68001877445626     6.59540397144508
H   29   1    -4.32916174397830     3.13643051467482     8.35225460090378
H   30   1    -5.32329548508442    -2.36691813602939     6.11583672749896
H   31   1    -5.77989366602257    -1.33896741843465     9.25748940450990
H   32   1    -3.79310905208926    -3.96389819310853     8.61386170102686
C   33   6    -1.01100794811226    -1.06331657314144     3.11929490449947
C   34   6     0.37686231036534    -0.33275864505552     1.09165013605873
H   35   1    -3.01671213906703    -1.40297922279997     2.77827895090944
C   36   6    -0.64382707979370    -0.11591880174385    -1.42063131251064
H   37   1     2.35569259782137     0.17174499283897     1.33641070251401
H   38   1    -2.63317482980319    -0.60229203511219    -1.66119700387645
C   39   6     2.53016326718275     0.74184279311179   -12.38477126217512
C   40   6     2.74761784180424    -0.97075180884473   -14.53576076061004
H   41   1     3.43489191747297     2.57981441042514   -12.56110828288274
O   42   8     3.86136937293188    -0.48701494751058   -16.49697984673750
H   43   1     1.79359090776017    -2.83108880557309   -14.27278208139205
[GTO]
1 0
 s    6 1.00
             3047.5249  0.0018347001629433
             457.36951    0.01403730124668
             103.94869   0.068842606114048
             29.210155    0.23218442062076
              9.286663    0.46794134155879
              3.163927    0.36231203217765
 s    3 1.00
             7.8682724   -0.11933240861517
             1.8812885   -0.16085421161283
             0.5442493     1.1434564825515
 s    1 1.00
             0.1687144                   1
 p    3 1.00
             7.8682724   0.068999095584993
             1.8812885    0.31642397975315
             0.5442493    0.74430825237435
 p    1 1.00
             0.1687144                   1
 d    1 1.00
                   0.8                   1

2 0
 s    3 1.00
             18.731137    0.03349459952309
             2.8253937    0.23472694665786
             0.6401217    0.81375731841339
 s    1 1.00
             0.1612778                   1

3 0
 s    6 1.00
             3047.5249  0.0018347001629433
             457.36951    0.01403730124668
             103.94869   0.068842606114048
             29.210155    0.23218442062076
              9.286663    0.46794134155879
              3.163927    0.36231203217765
 s    3 1.00
             7.8682724   -0.11933240861517
             1.8812885   -0.16085421161283
             0.5442493     1.1434564825515
 s    1 1.00
             0.1687144                   1
 p    3 1.00
             7.8682724   0.068999095584993
             1.8812885    0.31642397975315
             0.5442493    0.74430825237435
 p    1 1.00
             0.1687144                   1
 d    1 1.00
                   0.8                   1

4 0
 s    3 1.00
             18.731137    0.03349459952309
             2.8253937    0.23472694665786
             0.6401217    0.81375731841339
 s    1 1.00
             0.1612778                   1

5 0
 s    6 1.00
             3047.5249  0.0018347001629433
             457.36951    0.01403730124668
             103.94869   0.068842606114048
             29.210155    0.23218442062076
              9.286663    0.46794134155879
              3.163927    0.36231203217765
 s    3 1.00
             7.8682724   -0.11933240861517
             1.8812885   -0.16085421161283
             0.5442493     1.1434564825515
 s    1 1.00
             0.1687144                   1
 p    3 1.00
             7.8682724   0.068999095584993
             1.8812885    0.31642397975315
             0.5442493    0.74430825237435
 p    1 1.00
             0.1687144                   1
 d    1 1.00
                   0.8                   1

6 0
 s    3 1.00
             18.731137    0.03349459952309
             2.8253937    0.23472694665786
             0.6401217    0.81375731841339
 s    1 1.00
             0.1612778                   1

7 0
 s    6 1.00
             3047.5249  0.0018347001629433
             457.36951    0.01403730124668
             103.94869   0.068842606114048
             29.210155    0.23218442062076
              9.286663    0.46794134155879
              3.163927    0.36231203217765
 s    3 1.00
             7.8682724   -0.11933240861517
             1.8812885   -0.16085421161283
             0.5442493     1.1434564825515
 s    1 1.00
             0.1687144                   1
 p    3 1.00
             7.8682724   0.068999095584993
             1.8812885    0.31642397975315
             0.5442493    0.74430825237435
 p    1 1.00
             0.1687144                   1
 d    1 1.00
                   0.8                   1

8 0
 s    3 1.00
             18.731137    0.03349459952309
             2.8253937    0.23472694665786
             0.6401217    0.81375731841339
 s    1 1.00
             0.1612778                   1

9 0
 s    3 1.00
             18.731137    0.03349459952309
             2.8253937    0.23472694665786
             0.6401217    0.81375731841339
 s    1 1.00
             0.1612778                   1

10 0
 s    6 1.00
             3047.5249  0.0018347001629433
             457.36951    0.01403730124668
             103.94869   0.068842606114048
             29.210155    0.23218442062076
              9.286663    0.46794134155879
              3.163927    0.36231203217765
 s    3 1.00
             7.8682724   -0.11933240861517
             1.8812885   -0.16085421161283
             0.5442493     1.1434564825515
 s    1 1.00
             0.1687144                   1
 p    3 1.00
             7.8682724   0.068999095584993
             1.8812885    0.31642397975315
             0.5442493    0.74430825237435
 p    1 1.00
             0.1687144                   1
 d    1 1.00
                   0.8                   1

11 0
 s    3 1.00
             18.731137    0.03349459952309
             2.8253937    0.23472694665786
             0.6401217    0.81375731841339
 s    1 1.00
             0.1612778                   1

12 0
 s    6 1.00
             3047.5249  0.0018347001629433
             457.36951    0.01403730124668
             103.94869   0.068842606114048
             29.210155    0.23218442062076
              9.286663    0.46794134155879
              3.163927    0.36231203217765
 s    3 1.00
             7.8682724   -0.11933240861517
             1.8812885   -0.16085421161283
             0.5442493     1.1434564825515
 s    1 1.00
             0.1687144                   1
 p    3 1.00
             7.8682724   0.068999095584993
             1.8812885    0.31642397975315
             0.5442493    0.74430825237435
 p    1 1.00
             0.1687144                   1
 d    1 1.00
                   0.8                   1

13 0
 s    3 1.00
             18.731137    0.03349459952309
             2.8253937    0.23472694665786
             0.6401217    0.81375731841339
 s    1 1.00
             0.1612778                   1

14 0
 s    3 1.00
             18.731137    0.03349459952309
             2.8253937    0.23472694665786
             0.6401217    0.81375731841339
 s    1 1.00
             0.1612778                   1

15 0
 s    6 1.00
             3047.5249  0.0018347001629433
             457.36951    0.01403730124668
             103.94869   0.068842606114048
             29.210155    0.23218442062076
              9.286663    0.46794134155879
              3.163927    0.36231203217765
 s    3 1.00
             7.8682724   -0.11933240861517
             1.8812885   -0.16085421161283
             0.5442493     1.1434564825515
 s    1 1.00
             0.1687144                   1
 p    3 1.00
             7.8682724   0.068999095584993
             1.8812885    0.31642397975315
             0.5442493    0.74430825237435
 p    1 1.00
             0.1687144                   1
 d    1 1.00
                   0.8                   1

16 0
 s    6 1.00
             3047.5249  0.0018347001629433
             457.36951    0.01403730124668
             103.94869   0.068842606114048
             29.210155    0.23218442062076
              9.286663    0.46794134155879
              3.163927    0.36231203217765
 s    3 1.00
             7.8682724   -0.11933240861517
             1.8812885   -0.16085421161283
             0.5442493     1.1434564825515
 s    1 1.00
             0.1687144                   1
 p    3 1.00
             7.8682724   0.068999095584993
             1.8812885    0.31642397975315
             0.5442493    0.74430825237435
 p    1 1.00
             0.1687144                   1
 d    1 1.00
                   0.8                   1

17 0
 s    6 1.00
             3047.5249  0.0018347001629433
             457.36951    0.01403730124668
             103.94869   0.068842606114048
             29.210155    0.23218442062076
              9.286663    0.46794134155879
              3.163927    0.36231203217765
 s    3 1.00
             7.8682724   -0.11933240861517
             1.8812885   -0.16085421161283
             0.5442493     1.1434564825515
 s    1 1.00
             0.1687144                   1
 p    3 1.00
             7.8682724   0.068999095584993
             1.8812885    0.31642397975315
             0.5442493    0.74430825237435
 p    1 1.00
             0.1687144                   1
 d    1 1.00
                   0.8                   1

18 0
 s    6 1.00
             3047.5249  0.0018347001629433
             457.36951    0.01403730124668
             103.94869   0.068842606114048
             29.210155    0.23218442062076
              9.286663    0.46794134155879
              3.163927    0.36231203217765
 s    3 1.00
             7.8682724   -0.11933240861517
             1.8812885   -0.16085421161283
             0.5442493     1.1434564825515
 s    1 1.00
             0.1687144                   1
 p    3 1.00
             7.8682724   0.068999095584993
             1.8812885    0.31642397975315
             0.5442493    0.74430825237435
 p    1 1.00
             0.1687144                   1
 d    1 1.00
                   0.8                   1

19 0
 s    6 1.00
             3047.5249  0.0018347001629433
             457.36951    0.01403730124668
             103.94869   0.068842606114048
             29.210155    0.23218442062076
              9.286663    0.46794134155879
              3.163927    0.36231203217765
 s    3 1.00
             7.8682724   -0.11933240861517
             1.8812885   -0.16085421161283
             0.5442493     1.1434564825515
 s    1 1.00
             0.1687144                   1
 p    3 1.00
             7.8682724   0.068999095584993
             1.8812885    0.31642397975315
             0.5442493    0.74430825237435
 p    1 1.00
             0.1687144                   1
 d    1 1.00
                   0.8                   1

20 0
 s    6 1.00
             3047.5249  0.0018347001629433
             457.36951    0.01403730124668
             103.94869   0.068842606114048
             29.210155    0.23218442062076
              9.286663    0.46794134155879
              3.163927    0.36231203217765
 s    3 1.00
             7.8682724   -0.11933240861517
             1.8812885   -0.16085421161283
             0.5442493     1.1434564825515
 s    1 1.00
             0.1687144                   1
 p    3 1.00
             7.8682724   0.068999095584993
             1.8812885    0.31642397975315
             0.5442493    0.74430825237435
 p    1 1.00
             0.1687144                   1
 d    1 1.00
                   0.8                   1

21 0
 s    6 1.00
             3047.5249  0.0018347001629433
             457.36951    0.01403730124668
             103.94869   0.068842606114048
             29.210155    0.23218442062076
              9.286663    0.46794134155879
              3.163927    0.36231203217765
 s    3 1.00
             7.8682724   -0.11933240861517
             1.8812885   -0.16085421161283
             0.5442493     1.1434564825515
 s    1 1.00
             0.1687144                   1
 p    3 1.00
             7.8682724   0.068999095584993
             1.8812885    0.31642397975315
             0.5442493    0.74430825237435
 p    1 1.00
             0.1687144                   1
 d    1 1.00
                   0.8                   1

22 0
 s    3 1.00
             18.731137    0.03349459952309
             2.8253937    0.23472694665786
             0.6401217    0.81375731841339
 s    1 1.00
             0.1612778                   1

23 0
 s    3 1.00
             18.731137    0.03349459952309
             2.8253937    0.23472694665786
             0.6401217    0.81375731841339
 s    1 1.00
             0.1612778                   1

24 0
 s    3 1.00
             18.731137    0.03349459952309
             2.8253937    0.23472694665786
             0.6401217    0.81375731841339
 s    1 1.00
             0.1612778                   1

25 0
 s    3 1.00
             18.731137    0.03349459952309
             2.8253937    0.23472694665786
             0.6401217    0.81375731841339
 s    1 1.00
             0.1612778                   1

26 0
 s    3 1.00
             18.731137    0.03349459952309
             2.8253937    0.23472694665786
             0.6401217    0.81375731841339
 s    1 1.00
             0.1612778                   1

27 0
 s    3 1.00
             18.731137    0.03349459952309
             2.8253937    0.23472694665786
             0.6401217    0.81375731841339
 s    1 1.00
             0.1612778                   1

28 0
 s    3 1.00
             18.731137    0.03349459952309
             2.8253937    0.23472694665786
             0.6401217    0.81375731841339
 s    1 1.00
             0.1612778                   1

29 0
 s    3 1.00
             18.731137    0.03349459952309
             2.8253937    0.23472694665786
             0.6401217    0.81375731841339
 s    1 1.00
             0.1612778                   1

30 0
 s    3 1.00
             18.731137    0.03349459952309
             2.8253937    0.23472694665786
             0.6401217    0.81375731841339
 s    1 1.00
             0.1612778                   1

31 0
 s    3 1.00
             18.731137    0.03349459952309
             2.8253937    0.23472694665786
             0.6401217    0.81375731841339
 s    1 1.00
             0.1612778                   1

32 0
 s    3 1.00
             18.731137    0.03349459952309
             2.8253937    0.23472694665786
             0.6401217    0.81375731841339
 s    1 1.00
             0.1612778                   1

33 0
 s    6 1.00
             3047.5249  0.0018347001629433
             457.36951    0.01403730124668
             103.94869   0.068842606114048
             29.210155    0.23218442062076
              9.286663    0.46794134155879
              3.163927    0.36231203217765
 s    3 1.00
             7.8682724   -0.11933240861517
             1.8812885   -0.16085421161283
             0.5442493     1.1434564825515
 s    1 1.00
             0.1687144                   1
 p    3 1.00
             7.8682724   0.068999095584993
             1.8812885    0.31642397975315
             0.5442493    0.74430825237435
 p    1 1.00
             0.1687144                   1
 d    1 1.00
                   0.8                   1

34 0
 s    6 1.00
             3047.5249  0.0018347001629433
             457.36951    0.01403730124668
             103.94869   0.068842606114048
             29.210155    0.23218442062076
              9.286663    0.46794134155879
              3.163927    0.36231203217765
 s    3 1.00
             7.8682724   -0.11933240861517
             1.8812885   -0.16085421161283
             0.5442493     1.1434564825515
 s    1 1.00
             0.1687144                   1
 p    3 1.00
             7.8682724   0.068999095584993
             1.8812885    0.31642397975315
             0.5442493    0.74430825237435
 p    1 1.00
             0.1687144                   1
 d    1 1.00
                   0.8                   1

35 0
 s    3 1.00
             18.731137    0.03349459952309
             2.8253937    0.23472694665786
             0.6401217    0.81375731841339
 s    1 1.00
             0.1612778                   1

36 0
 s    6 1.00
             3047.5249  0.0018347001629433
             457.36951    0.01403730124668
             103.94869   0.068842606114048
             29.210155    0.23218442062076
              9.286663    0.46794134155879
              3.163927    0.36231203217765
 s    3 1.00
             7.8682724   -0.11933240861517
             1.8812885   -0.16085421161283
             0.5442493     1.1434564825515
 s    1 1.00
             0.1687144                   1
 p    3 1.00
             7.8682724   0.068999095584993
             1.8812885    0.31642397975315
             0.5442493    0.74430825237435
 p    1 1.00
             0.1687144                   1
 d    1 1.00
                   0.8                   1

37 0
 s    3 1.00
             18.731137    0.03349459952309
             2.8253937    0.23472694665786
             0.6401217    0.81375731841339
 s    1 1.00
             0.1612778                   1

38 0
 s    3 1.00
             18.731137    0.03349459952309
             2.8253937    0.23472694665786
             0.6401217    0.81375731841339
 s    1 1.00
             0.1612778                   1

39 0
 s    6 1.00
             3047.5249  0.0018347001629433
             457.36951    0.01403730124668
             103.94869   0.068842606114048
             29.210155    0.23218442062076
              9.286663    0.46794134155879
              3.163927    0.36231203217765
 s    3 1.00
             7.8682724   -0.11933240861517
             1.8812885   -0.16085421161283
             0.5442493     1.1434564825515
 s    1 1.00
             0.1687144                   1
 p    3 1.00
             7.8682724   0.068999095584993
             1.8812885    0.31642397975315
             0.5442493    0.74430825237435
 p    1 1.00
             0.1687144                   1
 d    1 1.00
                   0.8                   1

40 0
 s    6 1.00
             3047.5249  0.0018347001629433
             457.36951    0.01403730124668
             103.94869   0.068842606114048
             29.210155    0.23218442062076
              9.286663    0.46794134155879
              3.163927    0.36231203217765
 s    3 1.00
             7.8682724   -0.11933240861517
             1.8812885   -0.16085421161283
             0.5442493     1.1434564825515
 s    1 1.00
             0.1687144                   1
 p    3 1.00
             7.8682724   0.068999095584993
             1.8812885    0.31642397975315
             0.5442493    0.74430825237435
 p    1 1.00
             0.1687144                   1
 d    1 1.00
                   0.8                   1

41 0
 s    3 1.00
             18.731137    0.03349459952309
             2.8253937    0.23472694665786
             0.6401217    0.81375731841339
 s    1 1.00
             0.1612778                   1

42 0
 s    6 1.00
             5484.6717   0.001831099805527
             825.23495   0.013950098518422
             188.04696    0.06844509273075
               52.9645    0.23271427528445
              16.89757    0.47019295006289
             5.7996353    0.35852086192309
 s    3 1.00
             15.539616   -0.11077750382508
             3.5999336   -0.14802630511126
             1.0137618     1.1307670390447
 s    1 1.00
             0.2700058                   1
 p    3 1.00
             15.539616   0.070874299543311
             3.5999336    0.33975279781076
             1.0137618    0.72715859531445
 p    1 1.00
             0.2700058                   1
 d    1 1.00
                   0.8                   1

43 0
 s    3 1.00
             18.731137    0.03349459952309
             2.8253937    0.23472694665786
             0.6401217    0.81375731841339
 s    1 1.00
             0.1612778                   1

[5d]
[7f]
[9g]

[MO]
 Sym= A
 Ene=               0
 Spin= Alpha
 Occup=    1.00000
   1    1.6665361097519e-06
   2    -1.3170595652264e-05
   3    7.0337410055008e-05
   4    1.0035941203962e-06
   5    7.7814934284896e-06
   6    1.1782348519137e-05
   7    -4.2862418152169e-05
   8    -4.7070932315317e-05
   9    -4.0732738434837e-05
  10    -2.5692177293042e-06
  11    1.5813331296678e-06
  12    1.7460659668984e-06
  13    4.979950693722e-06
  14    -2.7769848393686e-06
  15    -9.4123971825237e-07
  16    1.7210718684501e-05
  17    -5.0556692982152e-07
  18    6.322027516054e-05
  19    0.00045267576933105
  20    2.6280481943661e-05
  21    -3.4674087065748e-06
  22    -4.8453014846978e-05
  23    0.00011221424772106
  24    -3.1066277387612e-06
  25    -0.00040998294259965
  26    1.4138875500151e-05
  27    -1.1622617900597e-05
  28    -4.839636206522e-06
  29    2.2256422280245e-05
  30    -1.316503775054e-05
  31    -7.628587196806e-07
  32    4.331142402396e-06
  33    5.4196487528913e-05
  34    0.00013391865662444
  35    -0.0026382472141089
  36    -3.5597351838039e-05
  37    5.5958480525959e-05
  38    0.00015641777437587
  39    0.00024949862652237
  40    0.0010485006874109
  41    0.00057926322814623
  42    -4.8360791521793e-05
  43    3.5646360922453e-05
  44    -5.7226707609307e-05
  45    2.368214747773e-05
  46    -6.7414381509757e-06
  47    -3.9344663304361e-06
  48    -0.00015408492665665
  49    -5.2327549434218e-05
  50    0.00025925511585788
  51    0.0021429248193217
  52    7.8988059105222e-05
  53    -0.00021503758355624
  54    -0.00039602506781928
  55    -0.00020701632741485
  56    0.0012680285311332
  57    0.0016648794300272
  58    2.3081973805446e-05
  59    4.1726121255359e-05
  60    9.4673871613233e-05
  61    -9.1536091535697e-06
  62    -5.6668626554611e-05
  63    0.00027880998503444
  64    8.6961660921364e-05
  65    -9.1617253765458e-08
  66    -3.320985768759e-07
  67    -5.3859360714785e-10
  68    -1.0676400308683e-07
  69    1.4539976532217e-06
  70    7.3278212983724e-09
  71    -2.4991299535003e-08
  72    -7.7388634584719e-09
  73    -2.3121848403868e-07
  74    6.1004015317025e-07
  75    3.9623399243923e-07
  76    -4.392916028757e-08
  77    -5.8170565580936e-08
  78    8.4581067453046e-09
  79    2.7831984019488e-08
  80    -4.4606756659714e-08
  81    1.9023068785767e-09
  82    -2.1879427828444e-08
  83    -8.8950184073077e-09
  84    -1.7400917475721e-07
  85    -3.22701852202e-06
  86    1.7659100676719e-07
  87    1.1211622252899e-07
  88    2.4432789262376e-07
  89    9.0676181739863e-07
  90    -1.1097312048433e-06
  91    7.7071152107183e-07
  92     6.65658444102e-08
  93    -4.869309004312e-08
  94    3.3350794222662e-08
  95    3.3688272502529e-08
  96    -4.2300224568754e-08
  97    1.5514326077633e-07
  98    3.9797012242461e-07
  99    -5.0436066702483e-08
 100    -3.5594324713426e-07
 101    -1.6450669261098e-08
 102    -4.0031189045521e-07
 103    5.3579255875494e-07
 104    -1.1694905583501e-07
 105    -5.5747248961625e-07
 106    8.9468635527862e-08
 107    -4.1814941335474e-06
 108    2.6131275557404e-06
 109    8.8803560396836e-06
 110    -2.7605425418472e-07
 111    -2.9333671021553e-07
 112    1.4228536871777e-07
 113    3.5719347210602e-07
 114    -4.05162673023e-09
 115    -2.547754676764e-07
 116    -2.2659189133732e-06
 117    1.4611492376272e-05
 118    -2.3155807203647e-07
 119    3.9352850150425e-07
 120    3.2495630368498e-07
 121    -2.6998513443805e-06
 122    1.8735072379136e-07
 123    -2.0625493386161e-06
 124    -5.1478513718954e-08
 125    6.150428739474e-08
 126    -4.3828468077186e-08
 127    -3.0086456180572e-08
 128    -5.4091876949352e-08
 129    -3.3461309889499e-07
 130    -3.8783687349423e-06
 131    8.9360446894331e-06
 132    -4.8266359049896e-07
 133    -9.3377190611957e-07
 134    1.9846934144133e-06
 135    3.8341962296663e-07
 136    2.2734663468125e-06
 137    -2.1315078433971e-05
 138    7.4455987196947e-07
 139    3.2238723229914e-07
 140    -1.7083367266007e-07
 141    1.5317539124974e-07
 142    -1.0586228174781e-07
 143    -4.8974372420301e-08
 144    -3.4252660358163e-07
 145    5.7761520454311e-06
 146    1.9606737586841e-07
 147    5.5625108107001e-07
 148    -4.0089148823774e-07
 149    3.4598201376086e-06
 150    -7.5771154915382e-06
 151    2.786204478694e-06
 152    -3.3635931916896e-07
 153    -8.3951991762479e-08
 154    2.0026358115969e-07
 155    2.6421856938441e-07
 156    -6.555639863344e-08
 157    -5.1073771541291e-08
 158    -3.1570407074371e-07
 159     5.18725728682e-06
 160    3.1426472241772e-07
 161    -2.6122958543745e-07
 162    2.4865640862236e-07
 163    -6.0856620210276e-07
 164    -1.9086473312807e-06
 165     3.51451472493e-08
 166    -3.1825455844452e-08
 167    6.8950167452282e-08
 168    -3.4156889858958e-08
 169    -1.0631789755831e-07
 170    -3.6134747298197e-08
 171    1.8584447467588e-08
 172    -1.5776819230576e-07
 173    -1.7154283301383e-06
 174    -2.8154337221761e-07
 175    -1.3106075836616e-08
 176    1.3453625322008e-07
 177    -1.5498938516777e-06
 178    -1.8915810522275e-07
 179    -1.6757301990651e-06
 180    1.1458122246936e-07
 181    -8.1409413956723e-08
 182    -4.9834052647519e-08
 183    -2.2304313582735e-07
 184    -5.4288924392686e-08
 185    -3.8797874965295e-08
 186    -4.9287910879736e-07
 187    -1.7571550336611e-06
 188    1.9612022031747e-08
 189    5.5026352321547e-08
 190    3.4654888087732e-07
 191    1.2114487959948e-06
 192    1.8018930999595e-06
 193    -1.1100801272395e-06
 194    1.2868491779471e-07
 195    -9.8758123382445e-08
 196    -1.6434925549331e-07
 197    4.6592199545971e-08
 198    -6.2793405538688e-08
 199    -1.4068979084121e-07
 200    -8.8548474837659e-07
 201    7.8841990919834e-08
 202    1.0952220596052e-06
 203    -7.1904703820996e-07
 204    -6.3345194518175e-07
 205    -3.687080676212e-07
 206    -8.5793698918923e-07
 207    1.0641611009492e-06
 208    -9.0495630836915e-06
 209    3.2989018700439e-08
 210    -1.5255013855714e-06
 211    -1.586103559151e-07
 212    6.6456318554571e-07
 213    -1.0945139107145e-07
 214    -4.4735944475888e-07
 215    8.085328323357e-08
 216    -1.7788564831233e-06
 217    8.6191606283567e-08
 218    4.6639197383363e-07
 219    -3.2116106800558e-08
 220    7.0198134297825e-07
 221    -2.6927120462742e-08
 222    -9.293776477266e-07
 223    -2.1356130982999e-05
 224    -9.2651379735223e-07
 225    1.0703240125763e-06
 226    9.321741651642e-07
 227    5.8721382772686e-06
 228    3.9082818084285e-06
 229    -1.5752163277951e-06
 230    -1.1033226399857e-06
 231    -3.0768038200123e-07
 232    -2.9965063855886e-07
 233    2.4507182760506e-07
 234    9.8203992330461e-07
 235    -1.2905316226351e-06
 236    -1.1270301948985e-05
 237    9.8486389135218e-05
 238    -1.8458192162683e-07
 239    2.8947792889576e-06
 240    5.1296153197841e-07
 241    -3.2418251302397e-05
 242    -1.1493622971362e-05
 243    -5.7098734826167e-05
 244    3.850678761118e-06
 245    2.3387434080485e-06
 246    9.1247253467344e-07
 247    1.0362043967253e-06
 248    1.759039537131e-06
 249    3.8345789986647e-07
 250    7.4474506462529e-06
 251    -8.8546297131808e-07
 252    -2.2516246344586e-06
 253    -6.1674987677617e-05
 254    6.2368843252925e-06
 255    -8.9315762707626e-06
 256    4.1523754826054e-06
 257    -2.5034708833731e-05
 258    4.8145021014674e-05
 259    -9.3379327534031e-05
 260    -2.71776575945e-06
 261    -3.7255631018011e-06
 262    -2.3884841681148e-06
 263    1.2110721783561e-06
 264    4.0794968443206e-06
 265    -1.869221709651e-06
 266    1.1571163005091e-05
 267    -6.2914155313319e-06
 268    9.505392402197e-06
 269    -4.5679528273551e-05
 270    8.4569553318437e-05
 271    0.0019012021344825
 272    -0.00014069258750656
 273    -0.0001460932219182
 274    0.00011378763612125
 275    0.0010183169671763
 276    0.00036469783791543
 277    -0.0019173279696383
 278    0.00018818756468026
 279    -9.6620244096266e-05
 280    3.7113462545171e-05