[Molden Format]
made by pyscf v[2.0.1]
[Atoms] (AU)
C   1   6     0.69100024066471     0.64692934207205    -3.48223131169301
H   2   1     2.68052439830868     1.13355088658700    -3.25784032593313
C   3   6    -0.36286361513219     0.85440132524594    -5.97030179418974
H   4   1    -2.35448549047279     0.36322488579172    -6.17995817793143
C   5   6     0.93697958957450     1.61209284601821    -8.05828437677121
H   6   1     2.82520634269342     2.40231158819155    -7.83223822317356
C   7   6    -0.04591716574067     1.43050675384137   -10.57963800872440
H   8   1    -1.93966227025444     0.63380613673234   -10.77641154630544
H   9   1     1.55630230933075    -1.92953025305990    12.99630010416247
C   10   6     0.75233899775814    -2.21270439606481    11.10705728102219
H   11   1    -0.43433408177274    -3.90944857546550    11.22216085340412
C   12   6     2.86362581178706    -2.63237380607947     9.17926416456045
H   13   1     4.39038949912609    -1.24955421540245     9.49899813497433
H   14   1     3.74629220191363    -4.48798724300892     9.47414880959024
C   15   6     2.02478325613682    -2.42177285709634     6.44560829588644
C   16   6     3.88048732735477    -3.58795445234514     4.61402886975252
C   17   6    -0.18412382258602    -1.30464291234259     5.76021113872346
C   18   6    -2.10044360464350    -0.26837831858460     7.71610340967100
C   19   6    -3.08956938670431     2.35282328359417     6.88693925039594
C   20   6    -4.37372924086464    -2.09766595989678     7.93610724222001
C   21   6    -0.83850430601230     0.06372213486173    10.33002307638377
H   22   1     0.38411922151109     1.74281358582432    10.27380136542181
H   23   1    -2.30980003007874     0.45460143924521    11.73986301809809
H   24   1     4.58527064644668    -5.38706904487420     5.36778158031719
H   25   1     5.54944938085014    -2.37631462192748     4.35398898413318
H   26   1     3.06633019150423    -3.94118377050688     2.75255466040884
H   27   1    -4.17727778763735     2.26573369139522     5.12914900961283
H   28   1    -1.52662344944051     3.68001877445626     6.59540397144508
H   29   1    -4.32916174397830     3.13643051467482     8.35225460090378
H   30   1    -5.32329548508442    -2.36691813602939     6.11583672749896
H   31   1    -5.77989366602257    -1.33896741843465     9.25748940450990
H   32   1    -3.79310905208926    -3.96389819310853     8.61386170102686
C   33   6    -1.01100794811226    -1.06331657314144     3.11929490449947
C   34   6     0.37686231036534    -0.33275864505552     1.09165013605873
H   35   1    -3.01671213906703    -1.40297922279997     2.77827895090944
C   36   6    -0.64382707979370    -0.11591880174385    -1.42063131251064
H   37   1     2.35569259782137     0.17174499283897     1.33641070251401
H   38   1    -2.63317482980319    -0.60229203511219    -1.66119700387645
C   39   6     1.17709071185639     2.16235266520763   -12.71162929579923
C   40   6     0.01149368127442     1.89967079998079   -15.19747007607967
H   41   1     3.06674924318564     2.97042403350516   -12.64854490967844
O   42   8     1.00001917973751     2.51860460578581   -17.18758625638360
H   43   1    -1.92257659968242     1.06364005135718   -15.17290072571517
[GTO]
1 0
 s    6 1.00
             3047.5249  0.0018347001629433
             457.36951    0.01403730124668
             103.94869   0.068842606114048
             29.210155    0.23218442062076
              9.286663    0.46794134155879
              3.163927    0.36231203217765
 s    3 1.00
             7.8682724   -0.11933240861517
             1.8812885   -0.16085421161283
             0.5442493     1.1434564825515
 s    1 1.00
             0.1687144                   1
 p    3 1.00
             7.8682724   0.068999095584993
             1.8812885    0.31642397975315
             0.5442493    0.74430825237435
 p    1 1.00
             0.1687144                   1
 d    1 1.00
                   0.8                   1

2 0
 s    3 1.00
             18.731137    0.03349459952309
             2.8253937    0.23472694665786
             0.6401217    0.81375731841339
 s    1 1.00
             0.1612778                   1

3 0
 s    6 1.00
             3047.5249  0.0018347001629433
             457.36951    0.01403730124668
             103.94869   0.068842606114048
             29.210155    0.23218442062076
              9.286663    0.46794134155879
              3.163927    0.36231203217765
 s    3 1.00
             7.8682724   -0.11933240861517
             1.8812885   -0.16085421161283
             0.5442493     1.1434564825515
 s    1 1.00
             0.1687144                   1
 p    3 1.00
             7.8682724   0.068999095584993
             1.8812885    0.31642397975315
             0.5442493    0.74430825237435
 p    1 1.00
             0.1687144                   1
 d    1 1.00
                   0.8                   1

4 0
 s    3 1.00
             18.731137    0.03349459952309
             2.8253937    0.23472694665786
             0.6401217    0.81375731841339
 s    1 1.00
             0.1612778                   1

5 0
 s    6 1.00
             3047.5249  0.0018347001629433
             457.36951    0.01403730124668
             103.94869   0.068842606114048
             29.210155    0.23218442062076
              9.286663    0.46794134155879
              3.163927    0.36231203217765
 s    3 1.00
             7.8682724   -0.11933240861517
             1.8812885   -0.16085421161283
             0.5442493     1.1434564825515
 s    1 1.00
             0.1687144                   1
 p    3 1.00
             7.8682724   0.068999095584993
             1.8812885    0.31642397975315
             0.5442493    0.74430825237435
 p    1 1.00
             0.1687144                   1
 d    1 1.00
                   0.8                   1

6 0
 s    3 1.00
             18.731137    0.03349459952309
             2.8253937    0.23472694665786
             0.6401217    0.81375731841339
 s    1 1.00
             0.1612778                   1

7 0
 s    6 1.00
             3047.5249  0.0018347001629433
             457.36951    0.01403730124668
             103.94869   0.068842606114048
             29.210155    0.23218442062076
              9.286663    0.46794134155879
              3.163927    0.36231203217765
 s    3 1.00
             7.8682724   -0.11933240861517
             1.8812885   -0.16085421161283
             0.5442493     1.1434564825515
 s    1 1.00
             0.1687144                   1
 p    3 1.00
             7.8682724   0.068999095584993
             1.8812885    0.31642397975315
             0.5442493    0.74430825237435
 p    1 1.00
             0.1687144                   1
 d    1 1.00
                   0.8                   1

8 0
 s    3 1.00
             18.731137    0.03349459952309
             2.8253937    0.23472694665786
             0.6401217    0.81375731841339
 s    1 1.00
             0.1612778                   1

9 0
 s    3 1.00
             18.731137    0.03349459952309
             2.8253937    0.23472694665786
             0.6401217    0.81375731841339
 s    1 1.00
             0.1612778                   1

10 0
 s    6 1.00
             3047.5249  0.0018347001629433
             457.36951    0.01403730124668
             103.94869   0.068842606114048
             29.210155    0.23218442062076
              9.286663    0.46794134155879
              3.163927    0.36231203217765
 s    3 1.00
             7.8682724   -0.11933240861517
             1.8812885   -0.16085421161283
             0.5442493     1.1434564825515
 s    1 1.00
             0.1687144                   1
 p    3 1.00
             7.8682724   0.068999095584993
             1.8812885    0.31642397975315
             0.5442493    0.74430825237435
 p    1 1.00
             0.1687144                   1
 d    1 1.00
                   0.8                   1

11 0
 s    3 1.00
             18.731137    0.03349459952309
             2.8253937    0.23472694665786
             0.6401217    0.81375731841339
 s    1 1.00
             0.1612778                   1

12 0
 s    6 1.00
             3047.5249  0.0018347001629433
             457.36951    0.01403730124668
             103.94869   0.068842606114048
             29.210155    0.23218442062076
              9.286663    0.46794134155879
              3.163927    0.36231203217765
 s    3 1.00
             7.8682724   -0.11933240861517
             1.8812885   -0.16085421161283
             0.5442493     1.1434564825515
 s    1 1.00
             0.1687144                   1
 p    3 1.00
             7.8682724   0.068999095584993
             1.8812885    0.31642397975315
             0.5442493    0.74430825237435
 p    1 1.00
             0.1687144                   1
 d    1 1.00
                   0.8                   1

13 0
 s    3 1.00
             18.731137    0.03349459952309
             2.8253937    0.23472694665786
             0.6401217    0.81375731841339
 s    1 1.00
             0.1612778                   1

14 0
 s    3 1.00
             18.731137    0.03349459952309
             2.8253937    0.23472694665786
             0.6401217    0.81375731841339
 s    1 1.00
             0.1612778                   1

15 0
 s    6 1.00
             3047.5249  0.0018347001629433
             457.36951    0.01403730124668
             103.94869   0.068842606114048
             29.210155    0.23218442062076
              9.286663    0.46794134155879
              3.163927    0.36231203217765
 s    3 1.00
             7.8682724   -0.11933240861517
             1.8812885   -0.16085421161283
             0.5442493     1.1434564825515
 s    1 1.00
             0.1687144                   1
 p    3 1.00
             7.8682724   0.068999095584993
             1.8812885    0.31642397975315
             0.5442493    0.74430825237435
 p    1 1.00
             0.1687144                   1
 d    1 1.00
                   0.8                   1

16 0
 s    6 1.00
             3047.5249  0.0018347001629433
             457.36951    0.01403730124668
             103.94869   0.068842606114048
             29.210155    0.23218442062076
              9.286663    0.46794134155879
              3.163927    0.36231203217765
 s    3 1.00
             7.8682724   -0.11933240861517
             1.8812885   -0.16085421161283
             0.5442493     1.1434564825515
 s    1 1.00
             0.1687144                   1
 p    3 1.00
             7.8682724   0.068999095584993
             1.8812885    0.31642397975315
             0.5442493    0.74430825237435
 p    1 1.00
             0.1687144                   1
 d    1 1.00
                   0.8                   1

17 0
 s    6 1.00
             3047.5249  0.0018347001629433
             457.36951    0.01403730124668
             103.94869   0.068842606114048
             29.210155    0.23218442062076
              9.286663    0.46794134155879
              3.163927    0.36231203217765
 s    3 1.00
             7.8682724   -0.11933240861517
             1.8812885   -0.16085421161283
             0.5442493     1.1434564825515
 s    1 1.00
             0.1687144                   1
 p    3 1.00
             7.8682724   0.068999095584993
             1.8812885    0.31642397975315
             0.5442493    0.74430825237435
 p    1 1.00
             0.1687144                   1
 d    1 1.00
                   0.8                   1

18 0
 s    6 1.00
             3047.5249  0.0018347001629433
             457.36951    0.01403730124668
             103.94869   0.068842606114048
             29.210155    0.23218442062076
              9.286663    0.46794134155879
              3.163927    0.36231203217765
 s    3 1.00
             7.8682724   -0.11933240861517
             1.8812885   -0.16085421161283
             0.5442493     1.1434564825515
 s    1 1.00
             0.1687144                   1
 p    3 1.00
             7.8682724   0.068999095584993
             1.8812885    0.31642397975315
             0.5442493    0.74430825237435
 p    1 1.00
             0.1687144                   1
 d    1 1.00
                   0.8                   1

19 0
 s    6 1.00
             3047.5249  0.0018347001629433
             457.36951    0.01403730124668
             103.94869   0.068842606114048
             29.210155    0.23218442062076
              9.286663    0.46794134155879
              3.163927    0.36231203217765
 s    3 1.00
             7.8682724   -0.11933240861517
             1.8812885   -0.16085421161283
             0.5442493     1.1434564825515
 s    1 1.00
             0.1687144                   1
 p    3 1.00
             7.8682724   0.068999095584993
             1.8812885    0.31642397975315
             0.5442493    0.74430825237435
 p    1 1.00
             0.1687144                   1
 d    1 1.00
                   0.8                   1

20 0
 s    6 1.00
             3047.5249  0.0018347001629433
             457.36951    0.01403730124668
             103.94869   0.068842606114048
             29.210155    0.23218442062076
              9.286663    0.46794134155879
              3.163927    0.36231203217765
 s    3 1.00
             7.8682724   -0.11933240861517
             1.8812885   -0.16085421161283
             0.5442493     1.1434564825515
 s    1 1.00
             0.1687144                   1
 p    3 1.00
             7.8682724   0.068999095584993
             1.8812885    0.31642397975315
             0.5442493    0.74430825237435
 p    1 1.00
             0.1687144                   1
 d    1 1.00
                   0.8                   1

21 0
 s    6 1.00
             3047.5249  0.0018347001629433
             457.36951    0.01403730124668
             103.94869   0.068842606114048
             29.210155    0.23218442062076
              9.286663    0.46794134155879
              3.163927    0.36231203217765
 s    3 1.00
             7.8682724   -0.11933240861517
             1.8812885   -0.16085421161283
             0.5442493     1.1434564825515
 s    1 1.00
             0.1687144                   1
 p    3 1.00
             7.8682724   0.068999095584993
             1.8812885    0.31642397975315
             0.5442493    0.74430825237435
 p    1 1.00
             0.1687144                   1
 d    1 1.00
                   0.8                   1

22 0
 s    3 1.00
             18.731137    0.03349459952309
             2.8253937    0.23472694665786
             0.6401217    0.81375731841339
 s    1 1.00
             0.1612778                   1

23 0
 s    3 1.00
             18.731137    0.03349459952309
             2.8253937    0.23472694665786
             0.6401217    0.81375731841339
 s    1 1.00
             0.1612778                   1

24 0
 s    3 1.00
             18.731137    0.03349459952309
             2.8253937    0.23472694665786
             0.6401217    0.81375731841339
 s    1 1.00
             0.1612778                   1

25 0
 s    3 1.00
             18.731137    0.03349459952309
             2.8253937    0.23472694665786
             0.6401217    0.81375731841339
 s    1 1.00
             0.1612778                   1

26 0
 s    3 1.00
             18.731137    0.03349459952309
             2.8253937    0.23472694665786
             0.6401217    0.81375731841339
 s    1 1.00
             0.1612778                   1

27 0
 s    3 1.00
             18.731137    0.03349459952309
             2.8253937    0.23472694665786
             0.6401217    0.81375731841339
 s    1 1.00
             0.1612778                   1

28 0
 s    3 1.00
             18.731137    0.03349459952309
             2.8253937    0.23472694665786
             0.6401217    0.81375731841339
 s    1 1.00
             0.1612778                   1

29 0
 s    3 1.00
             18.731137    0.03349459952309
             2.8253937    0.23472694665786
             0.6401217    0.81375731841339
 s    1 1.00
             0.1612778                   1

30 0
 s    3 1.00
             18.731137    0.03349459952309
             2.8253937    0.23472694665786
             0.6401217    0.81375731841339
 s    1 1.00
             0.1612778                   1

31 0
 s    3 1.00
             18.731137    0.03349459952309
             2.8253937    0.23472694665786
             0.6401217    0.81375731841339
 s    1 1.00
             0.1612778                   1

32 0
 s    3 1.00
             18.731137    0.03349459952309
             2.8253937    0.23472694665786
             0.6401217    0.81375731841339
 s    1 1.00
             0.1612778                   1

33 0
 s    6 1.00
             3047.5249  0.0018347001629433
             457.36951    0.01403730124668
             103.94869   0.068842606114048
             29.210155    0.23218442062076
              9.286663    0.46794134155879
              3.163927    0.36231203217765
 s    3 1.00
             7.8682724   -0.11933240861517
             1.8812885   -0.16085421161283
             0.5442493     1.1434564825515
 s    1 1.00
             0.1687144                   1
 p    3 1.00
             7.8682724   0.068999095584993
             1.8812885    0.31642397975315
             0.5442493    0.74430825237435
 p    1 1.00
             0.1687144                   1
 d    1 1.00
                   0.8                   1

34 0
 s    6 1.00
             3047.5249  0.0018347001629433
             457.36951    0.01403730124668
             103.94869   0.068842606114048
             29.210155    0.23218442062076
              9.286663    0.46794134155879
              3.163927    0.36231203217765
 s    3 1.00
             7.8682724   -0.11933240861517
             1.8812885   -0.16085421161283
             0.5442493     1.1434564825515
 s    1 1.00
             0.1687144                   1
 p    3 1.00
             7.8682724   0.068999095584993
             1.8812885    0.31642397975315
             0.5442493    0.74430825237435
 p    1 1.00
             0.1687144                   1
 d    1 1.00
                   0.8                   1

35 0
 s    3 1.00
             18.731137    0.03349459952309
             2.8253937    0.23472694665786
             0.6401217    0.81375731841339
 s    1 1.00
             0.1612778                   1

36 0
 s    6 1.00
             3047.5249  0.0018347001629433
             457.36951    0.01403730124668
             103.94869   0.068842606114048
             29.210155    0.23218442062076
              9.286663    0.46794134155879
              3.163927    0.36231203217765
 s    3 1.00
             7.8682724   -0.11933240861517
             1.8812885   -0.16085421161283
             0.5442493     1.1434564825515
 s    1 1.00
             0.1687144                   1
 p    3 1.00
             7.8682724   0.068999095584993
             1.8812885    0.31642397975315
             0.5442493    0.74430825237435
 p    1 1.00
             0.1687144                   1
 d    1 1.00
                   0.8                   1

37 0
 s    3 1.00
             18.731137    0.03349459952309
             2.8253937    0.23472694665786
             0.6401217    0.81375731841339
 s    1 1.00
             0.1612778                   1

38 0
 s    3 1.00
             18.731137    0.03349459952309
             2.8253937    0.23472694665786
             0.6401217    0.81375731841339
 s    1 1.00
             0.1612778                   1

39 0
 s    6 1.00
             3047.5249  0.0018347001629433
             457.36951    0.01403730124668
             103.94869   0.068842606114048
             29.210155    0.23218442062076
              9.286663    0.46794134155879
              3.163927    0.36231203217765
 s    3 1.00
             7.8682724   -0.11933240861517
             1.8812885   -0.16085421161283
             0.5442493     1.1434564825515
 s    1 1.00
             0.1687144                   1
 p    3 1.00
             7.8682724   0.068999095584993
             1.8812885    0.31642397975315
             0.5442493    0.74430825237435
 p    1 1.00
             0.1687144                   1
 d    1 1.00
                   0.8                   1

40 0
 s    6 1.00
             3047.5249  0.0018347001629433
             457.36951    0.01403730124668
             103.94869   0.068842606114048
             29.210155    0.23218442062076
              9.286663    0.46794134155879
              3.163927    0.36231203217765
 s    3 1.00
             7.8682724   -0.11933240861517
             1.8812885   -0.16085421161283
             0.5442493     1.1434564825515
 s    1 1.00
             0.1687144                   1
 p    3 1.00
             7.8682724   0.068999095584993
             1.8812885    0.31642397975315
             0.5442493    0.74430825237435
 p    1 1.00
             0.1687144                   1
 d    1 1.00
                   0.8                   1

41 0
 s    3 1.00
             18.731137    0.03349459952309
             2.8253937    0.23472694665786
             0.6401217    0.81375731841339
 s    1 1.00
             0.1612778                   1

42 0
 s    6 1.00
             5484.6717   0.001831099805527
             825.23495   0.013950098518422
             188.04696    0.06844509273075
               52.9645    0.23271427528445
              16.89757    0.47019295006289
             5.7996353    0.35852086192309
 s    3 1.00
             15.539616   -0.11077750382508
             3.5999336   -0.14802630511126
             1.0137618     1.1307670390447
 s    1 1.00
             0.2700058                   1
 p    3 1.00
             15.539616   0.070874299543311
             3.5999336    0.33975279781076
             1.0137618    0.72715859531445
 p    1 1.00
             0.2700058                   1
 d    1 1.00
                   0.8                   1

43 0
 s    3 1.00
             18.731137    0.03349459952309
             2.8253937    0.23472694665786
             0.6401217    0.81375731841339
 s    1 1.00
             0.1612778                   1

[5d]
[7f]
[9g]

[MO]
 Sym= A
 Ene=               0
 Spin= Alpha
 Occup=    1.00000
   1    7.3501321929194e-06
   2    2.7790176535585e-05
   3    6.8716153810238e-06
   4    1.3719299217181e-05
   5    1.2541963497245e-05
   6    -1.4651427957137e-05
   7    -0.0001486500750545
   8    -0.00017616362587156
   9    0.00059495643135541
  10    -1.3403674888892e-05
  11    -2.253467111978e-05
  12    -7.4589439245368e-07
  13    -4.6721642209608e-06
  14    1.2600924996171e-06
  15    2.9582214220767e-05
  16    1.6624202013984e-05
  17    -1.2883590692249e-05
  18    -5.3448997747543e-05
  19     0.001311626466105
  20    1.2950021087608e-05
  21    6.5817373940557e-06
  22    -4.5996065865542e-05
  23    0.00026755650511281
  24    0.00012823013927844
  25    -0.00040816998866055
  26    3.3295771971023e-05
  27    -7.6096061594023e-06
  28    -1.4054916382915e-05
  29    2.8858330170906e-06
  30    -6.9637086160465e-06
  31    1.6376495404694e-06
  32    -6.3361548212135e-05
  33    6.1138570944333e-05
  34    0.00017308331900453
  35    -0.0033084304773178
  36    1.1926071498441e-05
  37    -5.9087749113533e-06
  38    0.00014256098897065
  39    0.0011784081059057
  40    0.0004049371408364
  41    0.00087320050773097
  42    -9.7725864984963e-05
  43    -3.6776366144363e-05
  44    1.8272012151714e-06
  45    -2.1840565744225e-05
  46    -2.0357349303387e-05
  47    -2.1784650853502e-05
  48    -0.00017839073554506
  49    -5.7762934130729e-05
  50    0.00022527462852079
  51    0.0025174268660391
  52    -0.00011643372723357
  53    -9.6876588955861e-06
  54    -0.00044308238713231
  55    0.0009297506864149
  56    0.00020194157103255
  57    0.0022224189858475
  58    6.1858567871861e-05
  59    0.00010094712934363
  60    3.8311552572501e-05
  61    -2.5382806010301e-05
  62    -3.9698210383818e-05
  63    0.00027134140988448
  64    0.00011746238090293
  65    9.3745217922151e-08
  66    -1.1257252615812e-06
  67    8.5609460808273e-08
  68    8.8700354582928e-07
  69    -1.8712707959134e-07
  70    -5.2588054342363e-07
  71    5.8279393496902e-07
  72    -2.3930802495391e-07
  73    -1.2495993617664e-06
  74    -4.7879742575442e-07
  75    1.6357388853803e-06
  76    -1.5051593467881e-07
  77    -3.7477070449648e-08
  78    -9.3226015498855e-08
  79    -7.9764211590452e-08
  80    -4.5100356690081e-08
  81    -6.2427947702159e-08
  82    -4.1417023968309e-07
  83    -1.7281653297658e-07
  84    -1.2558952206794e-06
  85    6.4777576228921e-06
  86    -2.3009224458629e-07
  87    -7.9910224706686e-08
  88    -4.6582386419066e-07
  89    -3.3663115129423e-06
  90    5.5770837315535e-06
  91    -1.6787739574472e-07
  92    7.2873604859338e-08
  93    3.1116408459765e-07
  94    -5.7839120842379e-07
  95    2.0484173892301e-07
  96    6.4497488820522e-09
  97    -8.4946392085826e-07
  98    -4.5750240264525e-07
  99    2.2887500332059e-07
 100    1.0263052555126e-06
 101    4.1346227018618e-07
 102    1.8283665146812e-06
 103    -5.3257656018899e-05
 104    6.2269141221152e-07
 105    -1.414931809997e-07
 106    1.4182601412717e-06
 107    2.1423920081448e-05
 108    -2.1778651992439e-05
 109    3.4103444177817e-06
 110    -4.2821502064545e-07
 111    -6.8863523951827e-07
 112    3.0314358070102e-07
 113    2.3125947816358e-07
 114    1.0210601248975e-06
 115    -1.9863057821787e-07
 116    -2.1945372901647e-06
 117    2.5347426253795e-06
 118    3.027094695566e-07
 119    -1.1888125559908e-06
 120    8.5769714376758e-07
 121    -2.3422200042566e-06
 122    7.8217667052509e-06
 123    -9.3788720926162e-06
 124    -3.4235898099721e-07
 125    3.1609011251919e-07
 126    4.6675198051726e-07
 127     1.39918321213e-07
 128    1.0830372881544e-07
 129    -1.2279032814309e-07
 130    -1.3715449456082e-06
 131    -2.8204896261055e-05
 132    -3.2981493984916e-06
 133    -6.9000159821678e-07
 134    2.0806326232558e-06
 135    7.068248898127e-05
 136    -7.4717025780551e-06
 137    2.0977797454361e-05
 138    -7.1161076942234e-07
 139    -5.9086817499804e-07
 140    -1.6370398232861e-06
 141    1.8840197707615e-07
 142    -1.1028958138116e-06
 143    -3.1227883333827e-08
 144    9.6408112918017e-07
 145    2.3337809741302e-05
 146    1.8578302969428e-07
 147    6.2656835250568e-07
 148    -2.9806666395733e-06
 149    7.4989230704436e-06
 150    -2.1092813304575e-05
 151    9.2892104265507e-06
 152    6.4922267805573e-07
 153    -1.3464066306295e-07
 154    1.2192882490538e-06
 155    4.9903207125693e-08
 156    5.8690000354477e-07
 157    -3.8347554683796e-07
 158    -3.1380585326461e-06
 159    1.788867867785e-05
 160    -3.2245966945746e-07
 161    -4.3576029141337e-07
 162    5.6308884054378e-07
 163    6.4166047669839e-06
 164    -6.9162736967639e-06
 165    -1.0660142163721e-06
 166    -6.1975997970506e-07
 167    1.4687161249438e-07
 168    -1.298423899241e-07
 169    -2.5882449886168e-07
 170    -4.7282072809326e-07
 171    -3.5288885796891e-08
 172    -1.3159507485118e-07
 173    -1.9565716541517e-06
 174    1.5247375861327e-07
 175    1.3108485415441e-07
 176    -9.2938190909199e-07
 177    -7.1048222165063e-06
 178    -2.3211164062846e-06
 179    -2.8524207052912e-06
 180    1.6878311303455e-07
 181    -8.3859611332674e-07
 182    2.4844523014771e-08
 183    -4.1608322156028e-07
 184    -6.3781765611838e-07
 185    4.3980955221231e-07
 186    3.7041141074148e-06
 187    -1.7116543166671e-05
 188    7.1954755423068e-07
 189    4.6101045120985e-08
 190    5.3440358776898e-08
 191    1.6537000060593e-08
 192    5.5430331518878e-06
 193    8.5927355069219e-06
 194    -3.9555188174321e-07
 195    -4.6866488453313e-07
 196    -8.7903374384825e-07
 197    2.8988704437203e-07
 198    -2.1367526185608e-07
 199    1.1289585456329e-06
 200    -6.8473045622062e-07
 201    2.2709083377259e-07
 202    -1.1240172947561e-06
 203    7.4834377447907e-07
 204    4.5410880038235e-06
 205    -1.7449807162427e-06
 206    -3.4158949956464e-07
 207    -2.2354852750902e-07
 208    -7.1847402113548e-06
 209    -1.4312386360706e-06
 210    2.3414148261093e-07
 211    -1.0873224746434e-06
 212    -2.2866405785157e-06
 213    -3.0943629435228e-07
 214    2.1723096488495e-06
 215    1.6828549293576e-06
 216    -1.0148937673743e-05
 217    -4.9173069316612e-07
 218    -2.0204667949221e-07
 219    -4.4797031536719e-07
 220    1.3000047321823e-06
 221    2.1575381384393e-06
 222    1.4301534803767e-05
 223    -0.00015256533526978
 224    -3.4110340306917e-06
 225    -1.9279527099895e-07
 226    -3.9507318689596e-07
 227    -2.9548108975149e-05
 228    -3.2910229671316e-05
 229    0.00016354260785636
 230    -3.4625582742336e-06
 231    5.4934069577362e-06
 232    4.0021222935046e-06
 233    -1.95634221778e-06
 234    -1.6766987886503e-06
 235    -4.0786879389015e-06
 236    -2.4177377891354e-05
 237    0.00042673983816827
 238    3.1591663721461e-06
 239    3.5855741725529e-06
 240    -1.0703128257157e-05
 241    -0.00013590552763632
 242    -3.1013994044812e-05
 243    -4.7414798204893e-05
 244    1.1342129652016e-05
 245    -2.59928010623e-06
 246    -4.0636833240771e-06
 247    7.0491891351738e-07
 248    1.6537441872373e-06
 249    6.4268927751728e-06
 250    1.0454895767022e-05
 251    4.3309184015689e-06
 252    3.2778164099124e-05
 253    -0.00062120152236724
 254    8.871424953344e-06
 255    -4.0178592700694e-06
 256    1.7707137304625e-05
 257    -0.00027604683073545
 258    -5.0329295800889e-05
 259    -5.3164403963705e-05
 260    -1.1248318002114e-05
 261    3.5750267883024e-06
 262    4.7775430576327e-06
 263    -3.6681420993489e-06
 264    -1.8888247428291e-06
 265    5.6388841461124e-06
 266    1.8803808056453e-06
 267    -1.5246045971802e-05
 268    -4.1546012080143e-05
 269    -4.5707147737461e-05
 270    8.344847133193e-05
 271    0.0019540539213625
 272    -0.0001824332604927
 273    -8.5250901519022e-05
 274    0.00011155621144964
 275    0.00077271904540549
 276    0.00052743179316174
 277    -0.002034538351851
 278    0.0002141257732859
 279    -4.9613312808211e-05