[Molden Format]
made by pyscf v[2.0.1]
[Atoms] (AU)
C   1   6     0.69100024066471     0.64692934207205    -3.48223131169301
H   2   1     2.68052439830868     1.13355088658700    -3.25784032593313
C   3   6    -0.36286361513219     0.85440132524594    -5.97030179418974
H   4   1    -2.35448549047279     0.36322488579172    -6.17995817793143
C   5   6     0.93697958957450     1.61209284601821    -8.05828437677121
H   6   1     1.11826626333964     3.62551264984471    -8.45099117670825
C   7   6     2.10097243920823    -0.10888483292738    -9.80174075747215
H   8   1     1.90436861547379    -2.12023320363586    -9.38275759847606
H   9   1     1.55630230933075    -1.92953025305990    12.99630010416247
C   10   6     0.75233899775814    -2.21270439606481    11.10705728102219
H   11   1    -0.43433408177274    -3.90944857546550    11.22216085340412
C   12   6     2.86362581178706    -2.63237380607947     9.17926416456045
H   13   1     4.39038949912609    -1.24955421540245     9.49899813497433
H   14   1     3.74629220191363    -4.48798724300892     9.47414880959024
C   15   6     2.02478325613682    -2.42177285709634     6.44560829588644
C   16   6     3.88048732735477    -3.58795445234514     4.61402886975252
C   17   6    -0.18412382258602    -1.30464291234259     5.76021113872346
C   18   6    -2.10044360464350    -0.26837831858460     7.71610340967100
C   19   6    -3.08956938670431     2.35282328359417     6.88693925039594
C   20   6    -4.37372924086464    -2.09766595989678     7.93610724222001
C   21   6    -0.83850430601230     0.06372213486173    10.33002307638377
H   22   1     0.38411922151109     1.74281358582432    10.27380136542181
H   23   1    -2.30980003007874     0.45460143924521    11.73986301809809
H   24   1     4.58527064644668    -5.38706904487420     5.36778158031719
H   25   1     5.54944938085014    -2.37631462192748     4.35398898413318
H   26   1     3.06633019150423    -3.94118377050688     2.75255466040884
H   27   1    -4.17727778763735     2.26573369139522     5.12914900961283
H   28   1    -1.52662344944051     3.68001877445626     6.59540397144508
H   29   1    -4.32916174397830     3.13643051467482     8.35225460090378
H   30   1    -5.32329548508442    -2.36691813602939     6.11583672749896
H   31   1    -5.77989366602257    -1.33896741843465     9.25748940450990
H   32   1    -3.79310905208926    -3.96389819310853     8.61386170102686
C   33   6    -1.01100794811226    -1.06331657314144     3.11929490449947
C   34   6     0.37686231036534    -0.33275864505552     1.09165013605873
H   35   1    -3.01671213906703    -1.40297922279997     2.77827895090944
C   36   6    -0.64382707979370    -0.11591880174385    -1.42063131251064
H   37   1     2.35569259782137     0.17174499283897     1.33641070251401
H   38   1    -2.63317482980319    -0.60229203511219    -1.66119700387645
C   39   6     3.40965399787931     0.55809653308114   -11.90393532262733
C   40   6     4.52549279160481    -1.34135539088305   -13.56345596406470
H   41   1     3.67536210453709     2.52791097593625   -12.43024189111277
O   42   8     5.72170846290986    -0.87635365493868   -15.48013684009233
H   43   1     4.20717735374393    -3.33265649371778   -12.95224886476863
[GTO]
1 0
 s    6 1.00
             3047.5249  0.0018347001629433
             457.36951    0.01403730124668
             103.94869   0.068842606114048
             29.210155    0.23218442062076
              9.286663    0.46794134155879
              3.163927    0.36231203217765
 s    3 1.00
             7.8682724   -0.11933240861517
             1.8812885   -0.16085421161283
             0.5442493     1.1434564825515
 s    1 1.00
             0.1687144                   1
 p    3 1.00
             7.8682724   0.068999095584993
             1.8812885    0.31642397975315
             0.5442493    0.74430825237435
 p    1 1.00
             0.1687144                   1
 d    1 1.00
                   0.8                   1

2 0
 s    3 1.00
             18.731137    0.03349459952309
             2.8253937    0.23472694665786
             0.6401217    0.81375731841339
 s    1 1.00
             0.1612778                   1

3 0
 s    6 1.00
             3047.5249  0.0018347001629433
             457.36951    0.01403730124668
             103.94869   0.068842606114048
             29.210155    0.23218442062076
              9.286663    0.46794134155879
              3.163927    0.36231203217765
 s    3 1.00
             7.8682724   -0.11933240861517
             1.8812885   -0.16085421161283
             0.5442493     1.1434564825515
 s    1 1.00
             0.1687144                   1
 p    3 1.00
             7.8682724   0.068999095584993
             1.8812885    0.31642397975315
             0.5442493    0.74430825237435
 p    1 1.00
             0.1687144                   1
 d    1 1.00
                   0.8                   1

4 0
 s    3 1.00
             18.731137    0.03349459952309
             2.8253937    0.23472694665786
             0.6401217    0.81375731841339
 s    1 1.00
             0.1612778                   1

5 0
 s    6 1.00
             3047.5249  0.0018347001629433
             457.36951    0.01403730124668
             103.94869   0.068842606114048
             29.210155    0.23218442062076
              9.286663    0.46794134155879
              3.163927    0.36231203217765
 s    3 1.00
             7.8682724   -0.11933240861517
             1.8812885   -0.16085421161283
             0.5442493     1.1434564825515
 s    1 1.00
             0.1687144                   1
 p    3 1.00
             7.8682724   0.068999095584993
             1.8812885    0.31642397975315
             0.5442493    0.74430825237435
 p    1 1.00
             0.1687144                   1
 d    1 1.00
                   0.8                   1

6 0
 s    3 1.00
             18.731137    0.03349459952309
             2.8253937    0.23472694665786
             0.6401217    0.81375731841339
 s    1 1.00
             0.1612778                   1

7 0
 s    6 1.00
             3047.5249  0.0018347001629433
             457.36951    0.01403730124668
             103.94869   0.068842606114048
             29.210155    0.23218442062076
              9.286663    0.46794134155879
              3.163927    0.36231203217765
 s    3 1.00
             7.8682724   -0.11933240861517
             1.8812885   -0.16085421161283
             0.5442493     1.1434564825515
 s    1 1.00
             0.1687144                   1
 p    3 1.00
             7.8682724   0.068999095584993
             1.8812885    0.31642397975315
             0.5442493    0.74430825237435
 p    1 1.00
             0.1687144                   1
 d    1 1.00
                   0.8                   1

8 0
 s    3 1.00
             18.731137    0.03349459952309
             2.8253937    0.23472694665786
             0.6401217    0.81375731841339
 s    1 1.00
             0.1612778                   1

9 0
 s    3 1.00
             18.731137    0.03349459952309
             2.8253937    0.23472694665786
             0.6401217    0.81375731841339
 s    1 1.00
             0.1612778                   1

10 0
 s    6 1.00
             3047.5249  0.0018347001629433
             457.36951    0.01403730124668
             103.94869   0.068842606114048
             29.210155    0.23218442062076
              9.286663    0.46794134155879
              3.163927    0.36231203217765
 s    3 1.00
             7.8682724   -0.11933240861517
             1.8812885   -0.16085421161283
             0.5442493     1.1434564825515
 s    1 1.00
             0.1687144                   1
 p    3 1.00
             7.8682724   0.068999095584993
             1.8812885    0.31642397975315
             0.5442493    0.74430825237435
 p    1 1.00
             0.1687144                   1
 d    1 1.00
                   0.8                   1

11 0
 s    3 1.00
             18.731137    0.03349459952309
             2.8253937    0.23472694665786
             0.6401217    0.81375731841339
 s    1 1.00
             0.1612778                   1

12 0
 s    6 1.00
             3047.5249  0.0018347001629433
             457.36951    0.01403730124668
             103.94869   0.068842606114048
             29.210155    0.23218442062076
              9.286663    0.46794134155879
              3.163927    0.36231203217765
 s    3 1.00
             7.8682724   -0.11933240861517
             1.8812885   -0.16085421161283
             0.5442493     1.1434564825515
 s    1 1.00
             0.1687144                   1
 p    3 1.00
             7.8682724   0.068999095584993
             1.8812885    0.31642397975315
             0.5442493    0.74430825237435
 p    1 1.00
             0.1687144                   1
 d    1 1.00
                   0.8                   1

13 0
 s    3 1.00
             18.731137    0.03349459952309
             2.8253937    0.23472694665786
             0.6401217    0.81375731841339
 s    1 1.00
             0.1612778                   1

14 0
 s    3 1.00
             18.731137    0.03349459952309
             2.8253937    0.23472694665786
             0.6401217    0.81375731841339
 s    1 1.00
             0.1612778                   1

15 0
 s    6 1.00
             3047.5249  0.0018347001629433
             457.36951    0.01403730124668
             103.94869   0.068842606114048
             29.210155    0.23218442062076
              9.286663    0.46794134155879
              3.163927    0.36231203217765
 s    3 1.00
             7.8682724   -0.11933240861517
             1.8812885   -0.16085421161283
             0.5442493     1.1434564825515
 s    1 1.00
             0.1687144                   1
 p    3 1.00
             7.8682724   0.068999095584993
             1.8812885    0.31642397975315
             0.5442493    0.74430825237435
 p    1 1.00
             0.1687144                   1
 d    1 1.00
                   0.8                   1

16 0
 s    6 1.00
             3047.5249  0.0018347001629433
             457.36951    0.01403730124668
             103.94869   0.068842606114048
             29.210155    0.23218442062076
              9.286663    0.46794134155879
              3.163927    0.36231203217765
 s    3 1.00
             7.8682724   -0.11933240861517
             1.8812885   -0.16085421161283
             0.5442493     1.1434564825515
 s    1 1.00
             0.1687144                   1
 p    3 1.00
             7.8682724   0.068999095584993
             1.8812885    0.31642397975315
             0.5442493    0.74430825237435
 p    1 1.00
             0.1687144                   1
 d    1 1.00
                   0.8                   1

17 0
 s    6 1.00
             3047.5249  0.0018347001629433
             457.36951    0.01403730124668
             103.94869   0.068842606114048
             29.210155    0.23218442062076
              9.286663    0.46794134155879
              3.163927    0.36231203217765
 s    3 1.00
             7.8682724   -0.11933240861517
             1.8812885   -0.16085421161283
             0.5442493     1.1434564825515
 s    1 1.00
             0.1687144                   1
 p    3 1.00
             7.8682724   0.068999095584993
             1.8812885    0.31642397975315
             0.5442493    0.74430825237435
 p    1 1.00
             0.1687144                   1
 d    1 1.00
                   0.8                   1

18 0
 s    6 1.00
             3047.5249  0.0018347001629433
             457.36951    0.01403730124668
             103.94869   0.068842606114048
             29.210155    0.23218442062076
              9.286663    0.46794134155879
              3.163927    0.36231203217765
 s    3 1.00
             7.8682724   -0.11933240861517
             1.8812885   -0.16085421161283
             0.5442493     1.1434564825515
 s    1 1.00
             0.1687144                   1
 p    3 1.00
             7.8682724   0.068999095584993
             1.8812885    0.31642397975315
             0.5442493    0.74430825237435
 p    1 1.00
             0.1687144                   1
 d    1 1.00
                   0.8                   1

19 0
 s    6 1.00
             3047.5249  0.0018347001629433
             457.36951    0.01403730124668
             103.94869   0.068842606114048
             29.210155    0.23218442062076
              9.286663    0.46794134155879
              3.163927    0.36231203217765
 s    3 1.00
             7.8682724   -0.11933240861517
             1.8812885   -0.16085421161283
             0.5442493     1.1434564825515
 s    1 1.00
             0.1687144                   1
 p    3 1.00
             7.8682724   0.068999095584993
             1.8812885    0.31642397975315
             0.5442493    0.74430825237435
 p    1 1.00
             0.1687144                   1
 d    1 1.00
                   0.8                   1

20 0
 s    6 1.00
             3047.5249  0.0018347001629433
             457.36951    0.01403730124668
             103.94869   0.068842606114048
             29.210155    0.23218442062076
              9.286663    0.46794134155879
              3.163927    0.36231203217765
 s    3 1.00
             7.8682724   -0.11933240861517
             1.8812885   -0.16085421161283
             0.5442493     1.1434564825515
 s    1 1.00
             0.1687144                   1
 p    3 1.00
             7.8682724   0.068999095584993
             1.8812885    0.31642397975315
             0.5442493    0.74430825237435
 p    1 1.00
             0.1687144                   1
 d    1 1.00
                   0.8                   1

21 0
 s    6 1.00
             3047.5249  0.0018347001629433
             457.36951    0.01403730124668
             103.94869   0.068842606114048
             29.210155    0.23218442062076
              9.286663    0.46794134155879
              3.163927    0.36231203217765
 s    3 1.00
             7.8682724   -0.11933240861517
             1.8812885   -0.16085421161283
             0.5442493     1.1434564825515
 s    1 1.00
             0.1687144                   1
 p    3 1.00
             7.8682724   0.068999095584993
             1.8812885    0.31642397975315
             0.5442493    0.74430825237435
 p    1 1.00
             0.1687144                   1
 d    1 1.00
                   0.8                   1

22 0
 s    3 1.00
             18.731137    0.03349459952309
             2.8253937    0.23472694665786
             0.6401217    0.81375731841339
 s    1 1.00
             0.1612778                   1

23 0
 s    3 1.00
             18.731137    0.03349459952309
             2.8253937    0.23472694665786
             0.6401217    0.81375731841339
 s    1 1.00
             0.1612778                   1

24 0
 s    3 1.00
             18.731137    0.03349459952309
             2.8253937    0.23472694665786
             0.6401217    0.81375731841339
 s    1 1.00
             0.1612778                   1

25 0
 s    3 1.00
             18.731137    0.03349459952309
             2.8253937    0.23472694665786
             0.6401217    0.81375731841339
 s    1 1.00
             0.1612778                   1

26 0
 s    3 1.00
             18.731137    0.03349459952309
             2.8253937    0.23472694665786
             0.6401217    0.81375731841339
 s    1 1.00
             0.1612778                   1

27 0
 s    3 1.00
             18.731137    0.03349459952309
             2.8253937    0.23472694665786
             0.6401217    0.81375731841339
 s    1 1.00
             0.1612778                   1

28 0
 s    3 1.00
             18.731137    0.03349459952309
             2.8253937    0.23472694665786
             0.6401217    0.81375731841339
 s    1 1.00
             0.1612778                   1

29 0
 s    3 1.00
             18.731137    0.03349459952309
             2.8253937    0.23472694665786
             0.6401217    0.81375731841339
 s    1 1.00
             0.1612778                   1

30 0
 s    3 1.00
             18.731137    0.03349459952309
             2.8253937    0.23472694665786
             0.6401217    0.81375731841339
 s    1 1.00
             0.1612778                   1

31 0
 s    3 1.00
             18.731137    0.03349459952309
             2.8253937    0.23472694665786
             0.6401217    0.81375731841339
 s    1 1.00
             0.1612778                   1

32 0
 s    3 1.00
             18.731137    0.03349459952309
             2.8253937    0.23472694665786
             0.6401217    0.81375731841339
 s    1 1.00
             0.1612778                   1

33 0
 s    6 1.00
             3047.5249  0.0018347001629433
             457.36951    0.01403730124668
             103.94869   0.068842606114048
             29.210155    0.23218442062076
              9.286663    0.46794134155879
              3.163927    0.36231203217765
 s    3 1.00
             7.8682724   -0.11933240861517
             1.8812885   -0.16085421161283
             0.5442493     1.1434564825515
 s    1 1.00
             0.1687144                   1
 p    3 1.00
             7.8682724   0.068999095584993
             1.8812885    0.31642397975315
             0.5442493    0.74430825237435
 p    1 1.00
             0.1687144                   1
 d    1 1.00
                   0.8                   1

34 0
 s    6 1.00
             3047.5249  0.0018347001629433
             457.36951    0.01403730124668
             103.94869   0.068842606114048
             29.210155    0.23218442062076
              9.286663    0.46794134155879
              3.163927    0.36231203217765
 s    3 1.00
             7.8682724   -0.11933240861517
             1.8812885   -0.16085421161283
             0.5442493     1.1434564825515
 s    1 1.00
             0.1687144                   1
 p    3 1.00
             7.8682724   0.068999095584993
             1.8812885    0.31642397975315
             0.5442493    0.74430825237435
 p    1 1.00
             0.1687144                   1
 d    1 1.00
                   0.8                   1

35 0
 s    3 1.00
             18.731137    0.03349459952309
             2.8253937    0.23472694665786
             0.6401217    0.81375731841339
 s    1 1.00
             0.1612778                   1

36 0
 s    6 1.00
             3047.5249  0.0018347001629433
             457.36951    0.01403730124668
             103.94869   0.068842606114048
             29.210155    0.23218442062076
              9.286663    0.46794134155879
              3.163927    0.36231203217765
 s    3 1.00
             7.8682724   -0.11933240861517
             1.8812885   -0.16085421161283
             0.5442493     1.1434564825515
 s    1 1.00
             0.1687144                   1
 p    3 1.00
             7.8682724   0.068999095584993
             1.8812885    0.31642397975315
             0.5442493    0.74430825237435
 p    1 1.00
             0.1687144                   1
 d    1 1.00
                   0.8                   1

37 0
 s    3 1.00
             18.731137    0.03349459952309
             2.8253937    0.23472694665786
             0.6401217    0.81375731841339
 s    1 1.00
             0.1612778                   1

38 0
 s    3 1.00
             18.731137    0.03349459952309
             2.8253937    0.23472694665786
             0.6401217    0.81375731841339
 s    1 1.00
             0.1612778                   1

39 0
 s    6 1.00
             3047.5249  0.0018347001629433
             457.36951    0.01403730124668
             103.94869   0.068842606114048
             29.210155    0.23218442062076
              9.286663    0.46794134155879
              3.163927    0.36231203217765
 s    3 1.00
             7.8682724   -0.11933240861517
             1.8812885   -0.16085421161283
             0.5442493     1.1434564825515
 s    1 1.00
             0.1687144                   1
 p    3 1.00
             7.8682724   0.068999095584993
             1.8812885    0.31642397975315
             0.5442493    0.74430825237435
 p    1 1.00
             0.1687144                   1
 d    1 1.00
                   0.8                   1

40 0
 s    6 1.00
             3047.5249  0.0018347001629433
             457.36951    0.01403730124668
             103.94869   0.068842606114048
             29.210155    0.23218442062076
              9.286663    0.46794134155879
              3.163927    0.36231203217765
 s    3 1.00
             7.8682724   -0.11933240861517
             1.8812885   -0.16085421161283
             0.5442493     1.1434564825515
 s    1 1.00
             0.1687144                   1
 p    3 1.00
             7.8682724   0.068999095584993
             1.8812885    0.31642397975315
             0.5442493    0.74430825237435
 p    1 1.00
             0.1687144                   1
 d    1 1.00
                   0.8                   1

41 0
 s    3 1.00
             18.731137    0.03349459952309
             2.8253937    0.23472694665786
             0.6401217    0.81375731841339
 s    1 1.00
             0.1612778                   1

42 0
 s    6 1.00
             5484.6717   0.001831099805527
             825.23495   0.013950098518422
             188.04696    0.06844509273075
               52.9645    0.23271427528445
              16.89757    0.47019295006289
             5.7996353    0.35852086192309
 s    3 1.00
             15.539616   -0.11077750382508
             3.5999336   -0.14802630511126
             1.0137618     1.1307670390447
 s    1 1.00
             0.2700058                   1
 p    3 1.00
             15.539616   0.070874299543311
             3.5999336    0.33975279781076
             1.0137618    0.72715859531445
 p    1 1.00
             0.2700058                   1
 d    1 1.00
                   0.8                   1

43 0
 s    3 1.00
             18.731137    0.03349459952309
             2.8253937    0.23472694665786
             0.6401217    0.81375731841339
 s    1 1.00
             0.1612778                   1

[5d]
[7f]
[9g]

[MO]
 Sym= A
 Ene=               0
 Spin= Alpha
 Occup=    1.00000
   1    -2.5585495995867e-07
   2    1.5054437446017e-05
   3    -1.4224958264719e-05
   4    -6.7951976322788e-07
   5    8.3882619929388e-06
   6    -1.3656538758591e-05
   7    -1.4997831390173e-05
   8    -4.1237399971571e-05
   9    0.00021666866425961
  10    -4.0470867485546e-07
  11    -6.1028351126214e-06
  12    -1.1312776054508e-06
  13    -7.6090347710237e-06
  14    4.0866705479167e-06
  15    8.8875196360668e-06
  16    -1.0223439417069e-05
  17    -2.7272443973576e-06
  18    -9.9909311190554e-05
  19    -0.00024981957408373
  20    -3.4989679370596e-05
  21    -3.1224643673755e-06
  22    4.9463494446677e-05
  23    -9.1064137614332e-05
  24    5.4874980691604e-05
  25    0.00037026686705405
  26    -1.0153505533892e-05
  27    1.2120827034308e-05
  28    -3.7518184840159e-06
  29    -2.3777090715556e-05
  30    1.7769681609382e-06
  31    5.2778066583486e-06
  32    -1.7722092617277e-05
  33    -5.5016822923255e-05
  34    -0.00014813042889514
  35    0.0025861384041925
  36    7.3064679537797e-05
  37    -6.6590048862366e-05
  38    -0.00014508733036806
  39    0.00022969018327774
  40    -0.0011483989538645
  41    -0.00035817304080674
  42    1.5943308527315e-05
  43    -6.0399391187006e-05
  44    4.3538658930607e-05
  45    -2.0322503053304e-05
  46    -2.8666196692809e-05
  47    4.3560897482732e-06
  48    0.00015017908838149
  49    5.2293085347961e-05
  50    -0.00026086435499874
  51    -0.0021207653236978
  52    -0.00020788903311928
  53    0.00024293811999009
  54    0.00032902103985078
  55    0.00089242279547139
  56    -0.0014000659377227
  57    -0.0013216371706794
  58    7.7512529510712e-06
  59    -1.907024214059e-05
  60    -0.00010076454684503
  61    -6.5222689845311e-06
  62    6.3180134822683e-05
  63    -0.00027785734116349
  64    -8.7542775423924e-05
  65    1.142328050765e-07
  66    1.171271494608e-07
  67    1.5353330252114e-08
  68    3.6312651361059e-07
  69    -1.6657692832998e-06
  70    -9.8664395042036e-08
  71    1.7091768711838e-07
  72    -1.1010533020515e-07
  73    -8.0190137232309e-08
  74    -9.690063089819e-07
  75    -1.2935091707052e-09
  76    2.7263968982225e-08
  77    6.3225418746018e-08
  78    -2.6884676978675e-08
  79     -4.3608069933e-08
  80    5.4281733783901e-08
  81    -4.9365416994221e-08
  82    -1.283461587698e-07
  83    -2.3465710113922e-08
  84    7.9332496141006e-08
  85    7.5466170653697e-06
  86    -4.3865505819009e-07
  87    -1.1262343344128e-07
  88    -5.213000393046e-07
  89    -2.0264587996526e-06
  90    2.7260824817379e-06
  91    -1.8120757532019e-06
  92    -8.4522807694633e-08
  93    1.435636400919e-07
  94    -2.1636483524849e-07
  95    -2.5115617633045e-08
  96    7.0690868783285e-08
  97    -4.9834549161858e-07
  98    -6.5042442203149e-07
  99    6.8275717181297e-08
 100    7.0377217485631e-07
 101    8.1431068804131e-08
 102    5.1635800707513e-07
 103    -8.9893728035732e-06
 104    2.9023076766202e-07
 105    9.6008021086606e-07
 106    3.7037298781556e-07
 107    1.1221416829931e-05
 108    -9.6739513623938e-06
 109    -1.6542606256171e-05
 110    3.250724186807e-07
 111    2.9219821001371e-07
 112    -1.3901313584761e-07
 113    -2.5210012617725e-07
 114    2.7139211459246e-07
 115    3.1153912295873e-07
 116    2.4350784093362e-06
 117    -2.0501901583336e-05
 118    4.3066364887068e-07
 119    -6.8273420995739e-07
 120    -2.6692630599999e-07
 121    4.5220597058234e-06
 122    -2.4653039258606e-07
 123    -1.1549255490971e-06
 124    3.0516203630312e-08
 125    1.2358218329168e-07
 126    8.7419814987099e-08
 127    -5.9049262504102e-08
 128    1.6946387030923e-07
 129    4.8257014441638e-07
 130    5.0265295032455e-06
 131    -2.7608554115617e-05
 132    -1.0839984720818e-07
 133    6.8786347609433e-07
 134    -2.0555419620188e-06
 135    1.4726019368135e-05
 136    -4.9455221628226e-07
 137    4.4241509399907e-05
 138    -1.361760149166e-06
 139    -8.5319566909482e-07
 140    -1.0009377787422e-07
 141    -1.9405879809508e-07
 142    -3.8466477016642e-08
 143    1.9152574659927e-07
 144    2.0236677333495e-06
 145    -9.7338114631623e-06
 146    -8.8222194247331e-08
 147    -3.6947692340106e-07
 148    -3.7189103421427e-07
 149    -6.1199135587575e-06
 150    3.6733035805428e-06
 151    1.252521346941e-06
 152    5.8035152804253e-07
 153    1.8104146915494e-07
 154    6.5415363287576e-08
 155    -3.832288154383e-07
 156    4.0690215542653e-07
 157    -6.1088445783548e-08
 158    -4.8722578845668e-07
 159    -4.9523155669484e-07
 160    -4.5041908712549e-07
 161    1.2054096981801e-07
 162    -8.9398263552953e-08
 163    3.3799452317086e-06
 164    1.6643208508299e-08
 165    -5.3404848247475e-07
 166    -2.417045610831e-07
 167    8.1461026076612e-08
 168    -4.3116155506781e-09
 169    6.4894240624227e-08
 170    -1.533705085203e-07
 171    -2.9291637631023e-08
 172    2.499939228594e-07
 173    1.0989231197802e-06
 174     4.04881171377e-07
 175    9.2883948812247e-08
 176    -4.1788367272572e-07
 177    1.5151344896434e-07
 178    -8.4039210525922e-07
 179    1.1080283936084e-06
 180    -8.4002208097525e-08
 181    -1.2590421733155e-07
 182    -4.8611719376237e-09
 183    2.0660995069357e-07
 184    -1.0403443895671e-07
 185    1.7337418391058e-07
 186    1.6819939879776e-06
 187    -1.3465694257992e-06
 188    1.1968031179953e-07
 189    -7.1745077125031e-08
 190    -5.470564836866e-07
 191    -1.3340729130724e-06
 192    -5.5620881149085e-07
 193    3.2457961328976e-06
 194    -1.9425498555069e-07
 195    8.7159140153554e-09
 196    -9.1171239373968e-08
 197    -3.4858972963512e-08
 198    4.4156693098626e-08
 199    4.155657210763e-07
 200    7.561616053754e-07
 201    1.0542250189848e-08
 202    -1.7964084240538e-06
 203    1.0861257289237e-06
 204    1.3666496388227e-06
 205    5.4862442665788e-08
 206    1.1903740628366e-06
 207    -8.290165658443e-07
 208    7.1472749464562e-06
 209    -5.4302933621548e-07
 210    2.3651483410881e-06
 211    -2.3505213722154e-07
 212    -1.6154734597009e-06
 213    9.5744930309651e-08
 214    1.2238795251976e-06
 215    2.9150095735368e-07
 216    -4.541683346443e-07
 217    -1.7888868385354e-07
 218    -5.5567876315241e-07
 219    -1.2913219219953e-07
 220    -6.320147914207e-07
 221    5.3895042922066e-07
 222    4.5857574631539e-06
 223    -3.7080087022443e-07
 224    -4.2946335922318e-08
 225    -1.1938236335019e-06
 226    -1.9768426958701e-06
 227    -8.3114490552671e-06
 228    -1.6297112435206e-05
 229    5.3535298187489e-05
 230    6.5339966802488e-07
 231    2.2707818995149e-06
 232    1.2714367635182e-06
 233    -9.9200216064973e-07
 234    -1.6789074417452e-06
 235    4.5600169222125e-07
 236    7.0345311418862e-06
 237    -1.0550301944474e-05
 238    8.1105343883538e-07
 239    -3.1111598060406e-06
 240    -3.5277559430382e-06
 241    1.0981166436846e-05
 242    2.707198320779e-06
 243    5.183017106826e-05
 244    -1.1855751651511e-06
 245    -3.7752432946948e-06
 246    -1.4117371563948e-06
 247    -1.4621655186634e-06
 248    -9.4182012560876e-07
 249    2.1275636178176e-06
 250    -6.1548361895737e-06
 251    2.6685041986158e-06
 252    1.5313941606152e-05
 253    -0.00014138033519091
 254    -4.8380967412242e-06
 255    8.9540937904783e-06
 256    -9.3239633832228e-07
 257    -6.3031086147904e-05
 258    -5.8870302010162e-05
 259    0.00013493771497884
 260    -9.3935579915036e-07
 261    7.0529562978677e-06
 262    2.8813235065904e-06
 263    -4.4122338788762e-06
 264    -3.5535660040455e-06
 265    3.0257970448977e-06
 266    -1.5457126048028e-05
 267    4.549460168885e-06
 268    -2.3517167664013e-05
 269    4.6000130351829e-05
 270    -7.9652641857968e-05
 271    -0.0019267610869482
 272    0.00010689412145152
 273    0.00016195034145409
 274    -0.0001269621173451
 275    -0.0011196734946431
 276    -0.00032844919842828
 277     0.001838790194255
 278    -0.00014169749727432
 279    0.00012630271216793