[Molden Format]
made by pyscf v[2.0.1]
[Atoms] (AU)
C   1   6     0.69100024066471     0.64692934207205    -3.48223131169301
H   2   1     2.68052439830868     1.13355088658700    -3.25784032593313
C   3   6    -0.36286361513219     0.85440132524594    -5.97030179418974
H   4   1    -2.35448549047279     0.36322488579172    -6.17995817793143
C   5   6     0.93697958957450     1.61209284601821    -8.05828437677121
H   6   1     0.98787445190838     3.61459623416997    -8.53612607551025
C   7   6     2.26501037377666    -0.09521284299527    -9.69466000525781
H   8   1     2.19798542548318    -2.09561092109775    -9.19103573591963
H   9   1     1.55630230933075    -1.92953025305990    12.99630010416247
C   10   6     0.75233899775814    -2.21270439606481    11.10705728102219
H   11   1    -0.43433408177274    -3.90944857546550    11.22216085340412
C   12   6     2.86362581178706    -2.63237380607947     9.17926416456045
H   13   1     4.39038949912609    -1.24955421540245     9.49899813497433
H   14   1     3.74629220191363    -4.48798724300892     9.47414880959024
C   15   6     2.02478325613682    -2.42177285709634     6.44560829588644
C   16   6     3.88048732735477    -3.58795445234514     4.61402886975252
C   17   6    -0.18412382258602    -1.30464291234259     5.76021113872346
C   18   6    -2.10044360464350    -0.26837831858460     7.71610340967100
C   19   6    -3.08956938670431     2.35282328359417     6.88693925039594
C   20   6    -4.37372924086464    -2.09766595989678     7.93610724222001
C   21   6    -0.83850430601230     0.06372213486173    10.33002307638377
H   22   1     0.38411922151109     1.74281358582432    10.27380136542181
H   23   1    -2.30980003007874     0.45460143924521    11.73986301809809
H   24   1     4.58527064644668    -5.38706904487420     5.36778158031719
H   25   1     5.54944938085014    -2.37631462192748     4.35398898413318
H   26   1     3.06633019150423    -3.94118377050688     2.75255466040884
H   27   1    -4.17727778763735     2.26573369139522     5.12914900961283
H   28   1    -1.52662344944051     3.68001877445626     6.59540397144508
H   29   1    -4.32916174397830     3.13643051467482     8.35225460090378
H   30   1    -5.32329548508442    -2.36691813602939     6.11583672749896
H   31   1    -5.77989366602257    -1.33896741843465     9.25748940450990
H   32   1    -3.79310905208926    -3.96389819310853     8.61386170102686
C   33   6    -1.01100794811226    -1.06331657314144     3.11929490449947
C   34   6     0.37686231036534    -0.33275864505552     1.09165013605873
H   35   1    -3.01671213906703    -1.40297922279997     2.77827895090944
C   36   6    -0.64382707979370    -0.11591880174385    -1.42063131251064
H   37   1     2.35569259782137     0.17174499283897     1.33641070251401
H   38   1    -2.63317482980319    -0.60229203511219    -1.66119700387645
C   39   6     3.58038244524183     0.57209765736826   -11.79257005200741
C   40   6     4.87057751772619    -1.31288245896332   -13.33829616647468
H   41   1     3.72212183925239     2.53140115363455   -12.39986577500592
O   42   8     6.08287300298468    -0.84687400827575   -15.24460146946798
H   43   1     4.67557951371048    -3.29368722109141   -12.64651065729987
[GTO]
1 0
 s    6 1.00
             3047.5249  0.0018347001629433
             457.36951    0.01403730124668
             103.94869   0.068842606114048
             29.210155    0.23218442062076
              9.286663    0.46794134155879
              3.163927    0.36231203217765
 s    3 1.00
             7.8682724   -0.11933240861517
             1.8812885   -0.16085421161283
             0.5442493     1.1434564825515
 s    1 1.00
             0.1687144                   1
 p    3 1.00
             7.8682724   0.068999095584993
             1.8812885    0.31642397975315
             0.5442493    0.74430825237435
 p    1 1.00
             0.1687144                   1
 d    1 1.00
                   0.8                   1

2 0
 s    3 1.00
             18.731137    0.03349459952309
             2.8253937    0.23472694665786
             0.6401217    0.81375731841339
 s    1 1.00
             0.1612778                   1

3 0
 s    6 1.00
             3047.5249  0.0018347001629433
             457.36951    0.01403730124668
             103.94869   0.068842606114048
             29.210155    0.23218442062076
              9.286663    0.46794134155879
              3.163927    0.36231203217765
 s    3 1.00
             7.8682724   -0.11933240861517
             1.8812885   -0.16085421161283
             0.5442493     1.1434564825515
 s    1 1.00
             0.1687144                   1
 p    3 1.00
             7.8682724   0.068999095584993
             1.8812885    0.31642397975315
             0.5442493    0.74430825237435
 p    1 1.00
             0.1687144                   1
 d    1 1.00
                   0.8                   1

4 0
 s    3 1.00
             18.731137    0.03349459952309
             2.8253937    0.23472694665786
             0.6401217    0.81375731841339
 s    1 1.00
             0.1612778                   1

5 0
 s    6 1.00
             3047.5249  0.0018347001629433
             457.36951    0.01403730124668
             103.94869   0.068842606114048
             29.210155    0.23218442062076
              9.286663    0.46794134155879
              3.163927    0.36231203217765
 s    3 1.00
             7.8682724   -0.11933240861517
             1.8812885   -0.16085421161283
             0.5442493     1.1434564825515
 s    1 1.00
             0.1687144                   1
 p    3 1.00
             7.8682724   0.068999095584993
             1.8812885    0.31642397975315
             0.5442493    0.74430825237435
 p    1 1.00
             0.1687144                   1
 d    1 1.00
                   0.8                   1

6 0
 s    3 1.00
             18.731137    0.03349459952309
             2.8253937    0.23472694665786
             0.6401217    0.81375731841339
 s    1 1.00
             0.1612778                   1

7 0
 s    6 1.00
             3047.5249  0.0018347001629433
             457.36951    0.01403730124668
             103.94869   0.068842606114048
             29.210155    0.23218442062076
              9.286663    0.46794134155879
              3.163927    0.36231203217765
 s    3 1.00
             7.8682724   -0.11933240861517
             1.8812885   -0.16085421161283
             0.5442493     1.1434564825515
 s    1 1.00
             0.1687144                   1
 p    3 1.00
             7.8682724   0.068999095584993
             1.8812885    0.31642397975315
             0.5442493    0.74430825237435
 p    1 1.00
             0.1687144                   1
 d    1 1.00
                   0.8                   1

8 0
 s    3 1.00
             18.731137    0.03349459952309
             2.8253937    0.23472694665786
             0.6401217    0.81375731841339
 s    1 1.00
             0.1612778                   1

9 0
 s    3 1.00
             18.731137    0.03349459952309
             2.8253937    0.23472694665786
             0.6401217    0.81375731841339
 s    1 1.00
             0.1612778                   1

10 0
 s    6 1.00
             3047.5249  0.0018347001629433
             457.36951    0.01403730124668
             103.94869   0.068842606114048
             29.210155    0.23218442062076
              9.286663    0.46794134155879
              3.163927    0.36231203217765
 s    3 1.00
             7.8682724   -0.11933240861517
             1.8812885   -0.16085421161283
             0.5442493     1.1434564825515
 s    1 1.00
             0.1687144                   1
 p    3 1.00
             7.8682724   0.068999095584993
             1.8812885    0.31642397975315
             0.5442493    0.74430825237435
 p    1 1.00
             0.1687144                   1
 d    1 1.00
                   0.8                   1

11 0
 s    3 1.00
             18.731137    0.03349459952309
             2.8253937    0.23472694665786
             0.6401217    0.81375731841339
 s    1 1.00
             0.1612778                   1

12 0
 s    6 1.00
             3047.5249  0.0018347001629433
             457.36951    0.01403730124668
             103.94869   0.068842606114048
             29.210155    0.23218442062076
              9.286663    0.46794134155879
              3.163927    0.36231203217765
 s    3 1.00
             7.8682724   -0.11933240861517
             1.8812885   -0.16085421161283
             0.5442493     1.1434564825515
 s    1 1.00
             0.1687144                   1
 p    3 1.00
             7.8682724   0.068999095584993
             1.8812885    0.31642397975315
             0.5442493    0.74430825237435
 p    1 1.00
             0.1687144                   1
 d    1 1.00
                   0.8                   1

13 0
 s    3 1.00
             18.731137    0.03349459952309
             2.8253937    0.23472694665786
             0.6401217    0.81375731841339
 s    1 1.00
             0.1612778                   1

14 0
 s    3 1.00
             18.731137    0.03349459952309
             2.8253937    0.23472694665786
             0.6401217    0.81375731841339
 s    1 1.00
             0.1612778                   1

15 0
 s    6 1.00
             3047.5249  0.0018347001629433
             457.36951    0.01403730124668
             103.94869   0.068842606114048
             29.210155    0.23218442062076
              9.286663    0.46794134155879
              3.163927    0.36231203217765
 s    3 1.00
             7.8682724   -0.11933240861517
             1.8812885   -0.16085421161283
             0.5442493     1.1434564825515
 s    1 1.00
             0.1687144                   1
 p    3 1.00
             7.8682724   0.068999095584993
             1.8812885    0.31642397975315
             0.5442493    0.74430825237435
 p    1 1.00
             0.1687144                   1
 d    1 1.00
                   0.8                   1

16 0
 s    6 1.00
             3047.5249  0.0018347001629433
             457.36951    0.01403730124668
             103.94869   0.068842606114048
             29.210155    0.23218442062076
              9.286663    0.46794134155879
              3.163927    0.36231203217765
 s    3 1.00
             7.8682724   -0.11933240861517
             1.8812885   -0.16085421161283
             0.5442493     1.1434564825515
 s    1 1.00
             0.1687144                   1
 p    3 1.00
             7.8682724   0.068999095584993
             1.8812885    0.31642397975315
             0.5442493    0.74430825237435
 p    1 1.00
             0.1687144                   1
 d    1 1.00
                   0.8                   1

17 0
 s    6 1.00
             3047.5249  0.0018347001629433
             457.36951    0.01403730124668
             103.94869   0.068842606114048
             29.210155    0.23218442062076
              9.286663    0.46794134155879
              3.163927    0.36231203217765
 s    3 1.00
             7.8682724   -0.11933240861517
             1.8812885   -0.16085421161283
             0.5442493     1.1434564825515
 s    1 1.00
             0.1687144                   1
 p    3 1.00
             7.8682724   0.068999095584993
             1.8812885    0.31642397975315
             0.5442493    0.74430825237435
 p    1 1.00
             0.1687144                   1
 d    1 1.00
                   0.8                   1

18 0
 s    6 1.00
             3047.5249  0.0018347001629433
             457.36951    0.01403730124668
             103.94869   0.068842606114048
             29.210155    0.23218442062076
              9.286663    0.46794134155879
              3.163927    0.36231203217765
 s    3 1.00
             7.8682724   -0.11933240861517
             1.8812885   -0.16085421161283
             0.5442493     1.1434564825515
 s    1 1.00
             0.1687144                   1
 p    3 1.00
             7.8682724   0.068999095584993
             1.8812885    0.31642397975315
             0.5442493    0.74430825237435
 p    1 1.00
             0.1687144                   1
 d    1 1.00
                   0.8                   1

19 0
 s    6 1.00
             3047.5249  0.0018347001629433
             457.36951    0.01403730124668
             103.94869   0.068842606114048
             29.210155    0.23218442062076
              9.286663    0.46794134155879
              3.163927    0.36231203217765
 s    3 1.00
             7.8682724   -0.11933240861517
             1.8812885   -0.16085421161283
             0.5442493     1.1434564825515
 s    1 1.00
             0.1687144                   1
 p    3 1.00
             7.8682724   0.068999095584993
             1.8812885    0.31642397975315
             0.5442493    0.74430825237435
 p    1 1.00
             0.1687144                   1
 d    1 1.00
                   0.8                   1

20 0
 s    6 1.00
             3047.5249  0.0018347001629433
             457.36951    0.01403730124668
             103.94869   0.068842606114048
             29.210155    0.23218442062076
              9.286663    0.46794134155879
              3.163927    0.36231203217765
 s    3 1.00
             7.8682724   -0.11933240861517
             1.8812885   -0.16085421161283
             0.5442493     1.1434564825515
 s    1 1.00
             0.1687144                   1
 p    3 1.00
             7.8682724   0.068999095584993
             1.8812885    0.31642397975315
             0.5442493    0.74430825237435
 p    1 1.00
             0.1687144                   1
 d    1 1.00
                   0.8                   1

21 0
 s    6 1.00
             3047.5249  0.0018347001629433
             457.36951    0.01403730124668
             103.94869   0.068842606114048
             29.210155    0.23218442062076
              9.286663    0.46794134155879
              3.163927    0.36231203217765
 s    3 1.00
             7.8682724   -0.11933240861517
             1.8812885   -0.16085421161283
             0.5442493     1.1434564825515
 s    1 1.00
             0.1687144                   1
 p    3 1.00
             7.8682724   0.068999095584993
             1.8812885    0.31642397975315
             0.5442493    0.74430825237435
 p    1 1.00
             0.1687144                   1
 d    1 1.00
                   0.8                   1

22 0
 s    3 1.00
             18.731137    0.03349459952309
             2.8253937    0.23472694665786
             0.6401217    0.81375731841339
 s    1 1.00
             0.1612778                   1

23 0
 s    3 1.00
             18.731137    0.03349459952309
             2.8253937    0.23472694665786
             0.6401217    0.81375731841339
 s    1 1.00
             0.1612778                   1

24 0
 s    3 1.00
             18.731137    0.03349459952309
             2.8253937    0.23472694665786
             0.6401217    0.81375731841339
 s    1 1.00
             0.1612778                   1

25 0
 s    3 1.00
             18.731137    0.03349459952309
             2.8253937    0.23472694665786
             0.6401217    0.81375731841339
 s    1 1.00
             0.1612778                   1

26 0
 s    3 1.00
             18.731137    0.03349459952309
             2.8253937    0.23472694665786
             0.6401217    0.81375731841339
 s    1 1.00
             0.1612778                   1

27 0
 s    3 1.00
             18.731137    0.03349459952309
             2.8253937    0.23472694665786
             0.6401217    0.81375731841339
 s    1 1.00
             0.1612778                   1

28 0
 s    3 1.00
             18.731137    0.03349459952309
             2.8253937    0.23472694665786
             0.6401217    0.81375731841339
 s    1 1.00
             0.1612778                   1

29 0
 s    3 1.00
             18.731137    0.03349459952309
             2.8253937    0.23472694665786
             0.6401217    0.81375731841339
 s    1 1.00
             0.1612778                   1

30 0
 s    3 1.00
             18.731137    0.03349459952309
             2.8253937    0.23472694665786
             0.6401217    0.81375731841339
 s    1 1.00
             0.1612778                   1

31 0
 s    3 1.00
             18.731137    0.03349459952309
             2.8253937    0.23472694665786
             0.6401217    0.81375731841339
 s    1 1.00
             0.1612778                   1

32 0
 s    3 1.00
             18.731137    0.03349459952309
             2.8253937    0.23472694665786
             0.6401217    0.81375731841339
 s    1 1.00
             0.1612778                   1

33 0
 s    6 1.00
             3047.5249  0.0018347001629433
             457.36951    0.01403730124668
             103.94869   0.068842606114048
             29.210155    0.23218442062076
              9.286663    0.46794134155879
              3.163927    0.36231203217765
 s    3 1.00
             7.8682724   -0.11933240861517
             1.8812885   -0.16085421161283
             0.5442493     1.1434564825515
 s    1 1.00
             0.1687144                   1
 p    3 1.00
             7.8682724   0.068999095584993
             1.8812885    0.31642397975315
             0.5442493    0.74430825237435
 p    1 1.00
             0.1687144                   1
 d    1 1.00
                   0.8                   1

34 0
 s    6 1.00
             3047.5249  0.0018347001629433
             457.36951    0.01403730124668
             103.94869   0.068842606114048
             29.210155    0.23218442062076
              9.286663    0.46794134155879
              3.163927    0.36231203217765
 s    3 1.00
             7.8682724   -0.11933240861517
             1.8812885   -0.16085421161283
             0.5442493     1.1434564825515
 s    1 1.00
             0.1687144                   1
 p    3 1.00
             7.8682724   0.068999095584993
             1.8812885    0.31642397975315
             0.5442493    0.74430825237435
 p    1 1.00
             0.1687144                   1
 d    1 1.00
                   0.8                   1

35 0
 s    3 1.00
             18.731137    0.03349459952309
             2.8253937    0.23472694665786
             0.6401217    0.81375731841339
 s    1 1.00
             0.1612778                   1

36 0
 s    6 1.00
             3047.5249  0.0018347001629433
             457.36951    0.01403730124668
             103.94869   0.068842606114048
             29.210155    0.23218442062076
              9.286663    0.46794134155879
              3.163927    0.36231203217765
 s    3 1.00
             7.8682724   -0.11933240861517
             1.8812885   -0.16085421161283
             0.5442493     1.1434564825515
 s    1 1.00
             0.1687144                   1
 p    3 1.00
             7.8682724   0.068999095584993
             1.8812885    0.31642397975315
             0.5442493    0.74430825237435
 p    1 1.00
             0.1687144                   1
 d    1 1.00
                   0.8                   1

37 0
 s    3 1.00
             18.731137    0.03349459952309
             2.8253937    0.23472694665786
             0.6401217    0.81375731841339
 s    1 1.00
             0.1612778                   1

38 0
 s    3 1.00
             18.731137    0.03349459952309
             2.8253937    0.23472694665786
             0.6401217    0.81375731841339
 s    1 1.00
             0.1612778                   1

39 0
 s    6 1.00
             3047.5249  0.0018347001629433
             457.36951    0.01403730124668
             103.94869   0.068842606114048
             29.210155    0.23218442062076
              9.286663    0.46794134155879
              3.163927    0.36231203217765
 s    3 1.00
             7.8682724   -0.11933240861517
             1.8812885   -0.16085421161283
             0.5442493     1.1434564825515
 s    1 1.00
             0.1687144                   1
 p    3 1.00
             7.8682724   0.068999095584993
             1.8812885    0.31642397975315
             0.5442493    0.74430825237435
 p    1 1.00
             0.1687144                   1
 d    1 1.00
                   0.8                   1

40 0
 s    6 1.00
             3047.5249  0.0018347001629433
             457.36951    0.01403730124668
             103.94869   0.068842606114048
             29.210155    0.23218442062076
              9.286663    0.46794134155879
              3.163927    0.36231203217765
 s    3 1.00
             7.8682724   -0.11933240861517
             1.8812885   -0.16085421161283
             0.5442493     1.1434564825515
 s    1 1.00
             0.1687144                   1
 p    3 1.00
             7.8682724   0.068999095584993
             1.8812885    0.31642397975315
             0.5442493    0.74430825237435
 p    1 1.00
             0.1687144                   1
 d    1 1.00
                   0.8                   1

41 0
 s    3 1.00
             18.731137    0.03349459952309
             2.8253937    0.23472694665786
             0.6401217    0.81375731841339
 s    1 1.00
             0.1612778                   1

42 0
 s    6 1.00
             5484.6717   0.001831099805527
             825.23495   0.013950098518422
             188.04696    0.06844509273075
               52.9645    0.23271427528445
              16.89757    0.47019295006289
             5.7996353    0.35852086192309
 s    3 1.00
             15.539616   -0.11077750382508
             3.5999336   -0.14802630511126
             1.0137618     1.1307670390447
 s    1 1.00
             0.2700058                   1
 p    3 1.00
             15.539616   0.070874299543311
             3.5999336    0.33975279781076
             1.0137618    0.72715859531445
 p    1 1.00
             0.2700058                   1
 d    1 1.00
                   0.8                   1

43 0
 s    3 1.00
             18.731137    0.03349459952309
             2.8253937    0.23472694665786
             0.6401217    0.81375731841339
 s    1 1.00
             0.1612778                   1

[5d]
[7f]
[9g]

[MO]
 Sym= A
 Ene=               0
 Spin= Alpha
 Occup=    1.00000
   1    5.6356893274524e-07
   2    1.1855581587079e-05
   3    6.6367999151947e-07
   4    -2.6593441623056e-06
   5    1.6950134003254e-05
   6    -8.0719105535852e-06
   7    -2.5225605707686e-05
   8    -4.872666411281e-05
   9    0.00022268625022924
  10    -1.5112205868684e-07
  11    -6.3248076574698e-06
  12    1.2804300255803e-07
  13    -7.3719592761594e-06
  14    4.0295296031457e-06
  15    8.8530596193034e-06
  16    -5.8859573923759e-06
  17    -2.4757296334197e-06
  18    -0.00010212520030503
  19    -0.00025140898115968
  20    -3.4437721334795e-05
  21    -1.5655658797997e-05
  22    4.7435483076641e-05
  23    -0.00010097762555731
  24    5.0076846993816e-05
  25    0.00035231588083644
  26    -1.0571451176271e-05
  27    1.1536075471337e-05
  28    -4.6381439163542e-06
  29    -2.2775358055788e-05
  30    -3.6563546171544e-07
  31    8.5272446566912e-06
  32    -1.4411176630949e-05
  33    -5.5699533247389e-05
  34    -0.00015176643352048
  35    0.0025978736178051
  36    9.0888615721014e-05
  37    -6.3581729126184e-05
  38    -0.00013076621985974
  39    0.00034143477431259
  40    -0.001152114388255
  41    -0.00029717030460377
  42    9.7291044353012e-06
  43    -6.2237350916179e-05
  44    3.7450116886975e-05
  45    -1.6794223914257e-05
  46    -3.5124646227265e-05
  47    7.7327046871113e-06
  48    0.00015799405849841
  49    5.2634262145348e-05
  50    -0.00026349891992064
  51    -0.0021370270774229
  52    -0.00023844036091924
  53    0.00023881772801771
  54    0.00030883604368092
  55    0.0010232070701121
  56    -0.0013987086480413
  57    -0.0012443983776075
  58    1.6500890253596e-05
  59    -1.4678415418817e-05
  60    -0.00010005877650876
  61    -1.1047036603954e-05
  62    6.4315114379996e-05
  63    -0.00027932708599723
  64    -9.1520849105029e-05
  65    7.2221546818251e-08
  66    -9.5948273746778e-08
  67    -5.2978761677468e-09
  68    4.5601063219147e-07
  69    -1.6644022517344e-06
  70    1.3033828422726e-09
  71    1.0157449168246e-07
  72    -2.0863415255152e-07
  73    1.0403727303026e-07
  74    -1.2161396602909e-06
  75    2.4248617588713e-07
  76    2.7148983906899e-08
  77    5.0215997724506e-08
  78    -2.1302176466603e-08
  79    -4.3871522448642e-08
  80    5.186294441098e-08
  81    -4.605081465384e-08
  82    -2.5295573961359e-07
  83    -6.0716849376367e-08
  84    1.3542498255329e-07
  85    8.6304768977134e-06
  86    -6.5242284541754e-07
  87    -1.8842783613829e-07
  88    -6.7067283993989e-07
  89    -2.2291191332578e-06
  90    2.816419486351e-06
  91    -2.4170728202797e-06
  92    -5.8153599986484e-08
  93    1.017445623829e-07
  94    -2.8092952497524e-07
  95    -5.3618507847017e-08
  96    2.8884692146223e-08
  97    -8.2970408169904e-07
  98    -1.3065974225078e-06
  99    1.8425374537061e-07
 100    1.0373885396667e-06
 101    2.0371389731684e-07
 102    1.8758163870162e-07
 103    -9.1550864556176e-06
 104    1.2832509029636e-06
 105    2.1700172777807e-06
 106    5.3267564615959e-07
 107    1.2005997414474e-05
 108    -8.5300276544368e-06
 109    -1.8181186445021e-05
 110    3.4456228188117e-07
 111    3.355916164378e-07
 112    -1.4958402495389e-07
 113    -2.4659238106582e-07
 114    2.5299601264327e-07
 115    3.6452877298294e-07
 116    2.2556229978461e-06
 117    -2.1118642376199e-05
 118    5.4182473197663e-07
 119    -7.5015360572737e-07
 120    -6.0205067732288e-08
 121    4.721857432034e-06
 122    -3.9027424003731e-07
 123    -1.1339395048312e-06
 124    4.5227078505252e-08
 125    1.9396511083902e-07
 126    8.6420322592451e-08
 127    -1.3081659809422e-07
 128    1.3744918514727e-07
 129    5.2635531610188e-07
 130    5.138644474392e-06
 131    -3.0537178675709e-05
 132    -1.8270927924319e-07
 133     8.04353486652e-07
 134    -1.9496640136672e-06
 135    1.4659878344946e-05
 136    8.4750811046401e-07
 137    4.7273943323481e-05
 138    -1.361732888794e-06
 139    -9.8548998679061e-07
 140    1.1163262813049e-07
 141    -1.3414769858153e-07
 142    8.7964238472851e-08
 143    9.8145850316416e-08
 144    2.5737579562271e-06
 145    -1.0791805045818e-05
 146    2.6768293318187e-07
 147    -3.9528820953151e-07
 148    -8.8682539724274e-07
 149    -6.4887242753393e-06
 150    3.5760181589175e-06
 151    1.2170737142042e-06
 152    5.517972076601e-07
 153    1.8097060983429e-07
 154    7.7290045325818e-08
 155    -3.8707385932132e-07
 156    4.4023693929971e-07
 157    -1.4576950443667e-07
 158    -3.5286598845379e-07
 159    2.0042036407291e-07
 160    -4.6973006957116e-07
 161    5.6604494352277e-08
 162    -3.458531446877e-07
 163    3.3246378575636e-06
 164    7.049318763397e-08
 165    -6.3618527145014e-07
 166    -2.9503597856624e-07
 167    1.4862682727444e-07
 168    -2.5157491781298e-08
 169    7.0301966726985e-08
 170    -1.7458213748854e-07
 171    -2.7892651065597e-08
 172    2.4416551756908e-07
 173    1.139315216438e-06
 174    3.8160441758146e-07
 175    7.9219798940733e-08
 176    -3.650377288203e-07
 177    2.125823136436e-07
 178    -1.028679780872e-06
 179    1.1156595938938e-06
 180    -8.3233239104813e-08
 181    -1.5274210048343e-07
 182    -2.5129731166965e-08
 183    2.1687799792082e-07
 184    -1.1160383775302e-07
 185    2.1460670856736e-07
 186    1.6197562695261e-06
 187    -1.2046407478368e-06
 188    1.4258483703932e-07
 189    -6.5196588094683e-08
 190    -3.6528086504005e-07
 191    -1.1499459091645e-06
 192    -6.4524251162699e-07
 193    3.314856082768e-06
 194    -1.6609128579308e-07
 195    -1.902018376785e-08
 196    -1.0583001713175e-07
 197    -4.1550942680319e-08
 198    3.6832316069114e-08
 199    3.4967668838948e-07
 200    6.9842692185929e-07
 201    1.5687333724738e-07
 202    -1.4650106309103e-06
 203    1.306884132106e-06
 204    1.859254663445e-06
 205    -1.8653186446729e-07
 206    7.7140832057853e-07
 207    -6.7616219249691e-07
 208    6.9402039765442e-06
 209    -4.4047140340384e-07
 210    2.4485705677824e-06
 211    -2.1271170222077e-07
 212    -1.792788434811e-06
 213    -2.5350099437693e-08
 214    8.8142350467369e-07
 215    2.2760137315574e-07
 216    -5.6932975128252e-07
 217    -1.0785682510981e-07
 218    -3.9072255681158e-07
 219    -1.4672425715733e-07
 220    -7.6756231213545e-07
 221    5.2128482333797e-07
 222    4.7342169063964e-06
 223    1.2105923958591e-06
 224    7.8439322902568e-07
 225    -4.9475248032195e-06
 226    -2.8943893415847e-06
 227    -6.0896447321901e-06
 228    -2.170426060931e-05
 229    5.6346247776381e-05
 230    6.629893200688e-07
 231    2.3961327040731e-06
 232    1.297523702918e-06
 233    -9.9670315262058e-07
 234    -1.7478877723829e-06
 235    3.9325269371708e-07
 236    6.4515590472294e-06
 237    -6.0875720908023e-06
 238    8.0330824863917e-07
 239    -3.0255783824609e-06
 240    -3.5748259637529e-06
 241    1.0797239934922e-05
 242    8.4444502833246e-07
 243    4.9742451981516e-05
 244    -1.0642207856998e-06
 245    -3.6935460984726e-06
 246    -1.8620514348412e-06
 247    -1.6349912690488e-06
 248    -7.8125511106775e-07
 249    2.4075635557558e-06
 250    -5.9642508593871e-06
 251    2.6992889842915e-06
 252    1.7468655061693e-05
 253    -0.000157644135408
 254    -6.2491067885467e-06
 255    1.9377020129188e-05
 256    1.9218305431114e-07
 257    -7.0334648387117e-05
 258    -4.5518804559398e-05
 259    0.00014185971887409
 260    -1.5253711845604e-06
 261    7.4929359291749e-06
 262    2.3045515553759e-06
 263    -5.0267612550964e-06
 264    -2.8059726247477e-06
 265    2.8113498213012e-06
 266    -1.5886815049794e-05
 267    4.509046725674e-06
 268    -2.2306323689052e-05
 269    4.5966082137038e-05
 270    -7.3092355483142e-05
 271    -0.0019161818874581
 272    7.4480036141007e-05
 273    0.00015826620573641
 274    -0.00014087916386279
 275    -0.0011646532682809
 276    -0.00033492430767644
 277    0.0018127781029166
 278    -0.00013033919088644
 279    0.00013225781450825