[Molden Format]
made by pyscf v[2.0.1]
[Atoms] (AU)
C   1   6     0.69100024066471     0.64692934207205    -3.48223131169301
H   2   1     2.68052439830868     1.13355088658700    -3.25784032593313
C   3   6    -0.36286361513219     0.85440132524594    -5.97030179418974
H   4   1    -2.35448549047279     0.36322488579172    -6.17995817793143
C   5   6     0.93697958957450     1.61209284601821    -8.05828437677121
H   6   1     1.03927160684768     3.62047501567417    -8.50199621914587
C   7   6     2.20035018302409    -0.10258413888539    -9.73758817852609
H   8   1     2.08224949102462    -2.10886499715255    -9.26789512642378
H   9   1     1.55630230933075    -1.92953025305990    12.99630010416247
C   10   6     0.75233899775814    -2.21270439606481    11.10705728102219
H   11   1    -0.43433408177274    -3.90944857546550    11.22216085340412
C   12   6     2.86362581178706    -2.63237380607947     9.17926416456045
H   13   1     4.39038949912609    -1.24955421540245     9.49899813497433
H   14   1     3.74629220191363    -4.48798724300892     9.47414880959024
C   15   6     2.02478325613682    -2.42177285709634     6.44560829588644
C   16   6     3.88048732735477    -3.58795445234514     4.61402886975252
C   17   6    -0.18412382258602    -1.30464291234259     5.76021113872346
C   18   6    -2.10044360464350    -0.26837831858460     7.71610340967100
C   19   6    -3.08956938670431     2.35282328359417     6.88693925039594
C   20   6    -4.37372924086464    -2.09766595989678     7.93610724222001
C   21   6    -0.83850430601230     0.06372213486173    10.33002307638377
H   22   1     0.38411922151109     1.74281358582432    10.27380136542181
H   23   1    -2.30980003007874     0.45460143924521    11.73986301809809
H   24   1     4.58527064644668    -5.38706904487420     5.36778158031719
H   25   1     5.54944938085014    -2.37631462192748     4.35398898413318
H   26   1     3.06633019150423    -3.94118377050688     2.75255466040884
H   27   1    -4.17727778763735     2.26573369139522     5.12914900961283
H   28   1    -1.52662344944051     3.68001877445626     6.59540397144508
H   29   1    -4.32916174397830     3.13643051467482     8.35225460090378
H   30   1    -5.32329548508442    -2.36691813602939     6.11583672749896
H   31   1    -5.77989366602257    -1.33896741843465     9.25748940450990
H   32   1    -3.79310905208926    -3.96389819310853     8.61386170102686
C   33   6    -1.01100794811226    -1.06331657314144     3.11929490449947
C   34   6     0.37686231036534    -0.33275864505552     1.09165013605873
H   35   1    -3.01671213906703    -1.40297922279997     2.77827895090944
C   36   6    -0.64382707979370    -0.11591880174385    -1.42063131251064
H   37   1     2.35569259782137     0.17174499283897     1.33641070251401
H   38   1    -2.63317482980319    -0.60229203511219    -1.66119700387645
C   39   6     3.51308281939799     0.56451683374771   -11.83721740116087
C   40   6     4.73454985947753    -1.32827425009098   -13.42856361339847
H   41   1     3.70368628307445     2.52946227119814   -12.41204614817202
O   42   8     5.94050384923934    -0.86285538356078   -15.33903067176323
H   43   1     4.49094488416901    -3.31470750932465   -12.76908014850535
[GTO]
1 0
 s    6 1.00
             3047.5249  0.0018347001629433
             457.36951    0.01403730124668
             103.94869   0.068842606114048
             29.210155    0.23218442062076
              9.286663    0.46794134155879
              3.163927    0.36231203217765
 s    3 1.00
             7.8682724   -0.11933240861517
             1.8812885   -0.16085421161283
             0.5442493     1.1434564825515
 s    1 1.00
             0.1687144                   1
 p    3 1.00
             7.8682724   0.068999095584993
             1.8812885    0.31642397975315
             0.5442493    0.74430825237435
 p    1 1.00
             0.1687144                   1
 d    1 1.00
                   0.8                   1

2 0
 s    3 1.00
             18.731137    0.03349459952309
             2.8253937    0.23472694665786
             0.6401217    0.81375731841339
 s    1 1.00
             0.1612778                   1

3 0
 s    6 1.00
             3047.5249  0.0018347001629433
             457.36951    0.01403730124668
             103.94869   0.068842606114048
             29.210155    0.23218442062076
              9.286663    0.46794134155879
              3.163927    0.36231203217765
 s    3 1.00
             7.8682724   -0.11933240861517
             1.8812885   -0.16085421161283
             0.5442493     1.1434564825515
 s    1 1.00
             0.1687144                   1
 p    3 1.00
             7.8682724   0.068999095584993
             1.8812885    0.31642397975315
             0.5442493    0.74430825237435
 p    1 1.00
             0.1687144                   1
 d    1 1.00
                   0.8                   1

4 0
 s    3 1.00
             18.731137    0.03349459952309
             2.8253937    0.23472694665786
             0.6401217    0.81375731841339
 s    1 1.00
             0.1612778                   1

5 0
 s    6 1.00
             3047.5249  0.0018347001629433
             457.36951    0.01403730124668
             103.94869   0.068842606114048
             29.210155    0.23218442062076
              9.286663    0.46794134155879
              3.163927    0.36231203217765
 s    3 1.00
             7.8682724   -0.11933240861517
             1.8812885   -0.16085421161283
             0.5442493     1.1434564825515
 s    1 1.00
             0.1687144                   1
 p    3 1.00
             7.8682724   0.068999095584993
             1.8812885    0.31642397975315
             0.5442493    0.74430825237435
 p    1 1.00
             0.1687144                   1
 d    1 1.00
                   0.8                   1

6 0
 s    3 1.00
             18.731137    0.03349459952309
             2.8253937    0.23472694665786
             0.6401217    0.81375731841339
 s    1 1.00
             0.1612778                   1

7 0
 s    6 1.00
             3047.5249  0.0018347001629433
             457.36951    0.01403730124668
             103.94869   0.068842606114048
             29.210155    0.23218442062076
              9.286663    0.46794134155879
              3.163927    0.36231203217765
 s    3 1.00
             7.8682724   -0.11933240861517
             1.8812885   -0.16085421161283
             0.5442493     1.1434564825515
 s    1 1.00
             0.1687144                   1
 p    3 1.00
             7.8682724   0.068999095584993
             1.8812885    0.31642397975315
             0.5442493    0.74430825237435
 p    1 1.00
             0.1687144                   1
 d    1 1.00
                   0.8                   1

8 0
 s    3 1.00
             18.731137    0.03349459952309
             2.8253937    0.23472694665786
             0.6401217    0.81375731841339
 s    1 1.00
             0.1612778                   1

9 0
 s    3 1.00
             18.731137    0.03349459952309
             2.8253937    0.23472694665786
             0.6401217    0.81375731841339
 s    1 1.00
             0.1612778                   1

10 0
 s    6 1.00
             3047.5249  0.0018347001629433
             457.36951    0.01403730124668
             103.94869   0.068842606114048
             29.210155    0.23218442062076
              9.286663    0.46794134155879
              3.163927    0.36231203217765
 s    3 1.00
             7.8682724   -0.11933240861517
             1.8812885   -0.16085421161283
             0.5442493     1.1434564825515
 s    1 1.00
             0.1687144                   1
 p    3 1.00
             7.8682724   0.068999095584993
             1.8812885    0.31642397975315
             0.5442493    0.74430825237435
 p    1 1.00
             0.1687144                   1
 d    1 1.00
                   0.8                   1

11 0
 s    3 1.00
             18.731137    0.03349459952309
             2.8253937    0.23472694665786
             0.6401217    0.81375731841339
 s    1 1.00
             0.1612778                   1

12 0
 s    6 1.00
             3047.5249  0.0018347001629433
             457.36951    0.01403730124668
             103.94869   0.068842606114048
             29.210155    0.23218442062076
              9.286663    0.46794134155879
              3.163927    0.36231203217765
 s    3 1.00
             7.8682724   -0.11933240861517
             1.8812885   -0.16085421161283
             0.5442493     1.1434564825515
 s    1 1.00
             0.1687144                   1
 p    3 1.00
             7.8682724   0.068999095584993
             1.8812885    0.31642397975315
             0.5442493    0.74430825237435
 p    1 1.00
             0.1687144                   1
 d    1 1.00
                   0.8                   1

13 0
 s    3 1.00
             18.731137    0.03349459952309
             2.8253937    0.23472694665786
             0.6401217    0.81375731841339
 s    1 1.00
             0.1612778                   1

14 0
 s    3 1.00
             18.731137    0.03349459952309
             2.8253937    0.23472694665786
             0.6401217    0.81375731841339
 s    1 1.00
             0.1612778                   1

15 0
 s    6 1.00
             3047.5249  0.0018347001629433
             457.36951    0.01403730124668
             103.94869   0.068842606114048
             29.210155    0.23218442062076
              9.286663    0.46794134155879
              3.163927    0.36231203217765
 s    3 1.00
             7.8682724   -0.11933240861517
             1.8812885   -0.16085421161283
             0.5442493     1.1434564825515
 s    1 1.00
             0.1687144                   1
 p    3 1.00
             7.8682724   0.068999095584993
             1.8812885    0.31642397975315
             0.5442493    0.74430825237435
 p    1 1.00
             0.1687144                   1
 d    1 1.00
                   0.8                   1

16 0
 s    6 1.00
             3047.5249  0.0018347001629433
             457.36951    0.01403730124668
             103.94869   0.068842606114048
             29.210155    0.23218442062076
              9.286663    0.46794134155879
              3.163927    0.36231203217765
 s    3 1.00
             7.8682724   -0.11933240861517
             1.8812885   -0.16085421161283
             0.5442493     1.1434564825515
 s    1 1.00
             0.1687144                   1
 p    3 1.00
             7.8682724   0.068999095584993
             1.8812885    0.31642397975315
             0.5442493    0.74430825237435
 p    1 1.00
             0.1687144                   1
 d    1 1.00
                   0.8                   1

17 0
 s    6 1.00
             3047.5249  0.0018347001629433
             457.36951    0.01403730124668
             103.94869   0.068842606114048
             29.210155    0.23218442062076
              9.286663    0.46794134155879
              3.163927    0.36231203217765
 s    3 1.00
             7.8682724   -0.11933240861517
             1.8812885   -0.16085421161283
             0.5442493     1.1434564825515
 s    1 1.00
             0.1687144                   1
 p    3 1.00
             7.8682724   0.068999095584993
             1.8812885    0.31642397975315
             0.5442493    0.74430825237435
 p    1 1.00
             0.1687144                   1
 d    1 1.00
                   0.8                   1

18 0
 s    6 1.00
             3047.5249  0.0018347001629433
             457.36951    0.01403730124668
             103.94869   0.068842606114048
             29.210155    0.23218442062076
              9.286663    0.46794134155879
              3.163927    0.36231203217765
 s    3 1.00
             7.8682724   -0.11933240861517
             1.8812885   -0.16085421161283
             0.5442493     1.1434564825515
 s    1 1.00
             0.1687144                   1
 p    3 1.00
             7.8682724   0.068999095584993
             1.8812885    0.31642397975315
             0.5442493    0.74430825237435
 p    1 1.00
             0.1687144                   1
 d    1 1.00
                   0.8                   1

19 0
 s    6 1.00
             3047.5249  0.0018347001629433
             457.36951    0.01403730124668
             103.94869   0.068842606114048
             29.210155    0.23218442062076
              9.286663    0.46794134155879
              3.163927    0.36231203217765
 s    3 1.00
             7.8682724   -0.11933240861517
             1.8812885   -0.16085421161283
             0.5442493     1.1434564825515
 s    1 1.00
             0.1687144                   1
 p    3 1.00
             7.8682724   0.068999095584993
             1.8812885    0.31642397975315
             0.5442493    0.74430825237435
 p    1 1.00
             0.1687144                   1
 d    1 1.00
                   0.8                   1

20 0
 s    6 1.00
             3047.5249  0.0018347001629433
             457.36951    0.01403730124668
             103.94869   0.068842606114048
             29.210155    0.23218442062076
              9.286663    0.46794134155879
              3.163927    0.36231203217765
 s    3 1.00
             7.8682724   -0.11933240861517
             1.8812885   -0.16085421161283
             0.5442493     1.1434564825515
 s    1 1.00
             0.1687144                   1
 p    3 1.00
             7.8682724   0.068999095584993
             1.8812885    0.31642397975315
             0.5442493    0.74430825237435
 p    1 1.00
             0.1687144                   1
 d    1 1.00
                   0.8                   1

21 0
 s    6 1.00
             3047.5249  0.0018347001629433
             457.36951    0.01403730124668
             103.94869   0.068842606114048
             29.210155    0.23218442062076
              9.286663    0.46794134155879
              3.163927    0.36231203217765
 s    3 1.00
             7.8682724   -0.11933240861517
             1.8812885   -0.16085421161283
             0.5442493     1.1434564825515
 s    1 1.00
             0.1687144                   1
 p    3 1.00
             7.8682724   0.068999095584993
             1.8812885    0.31642397975315
             0.5442493    0.74430825237435
 p    1 1.00
             0.1687144                   1
 d    1 1.00
                   0.8                   1

22 0
 s    3 1.00
             18.731137    0.03349459952309
             2.8253937    0.23472694665786
             0.6401217    0.81375731841339
 s    1 1.00
             0.1612778                   1

23 0
 s    3 1.00
             18.731137    0.03349459952309
             2.8253937    0.23472694665786
             0.6401217    0.81375731841339
 s    1 1.00
             0.1612778                   1

24 0
 s    3 1.00
             18.731137    0.03349459952309
             2.8253937    0.23472694665786
             0.6401217    0.81375731841339
 s    1 1.00
             0.1612778                   1

25 0
 s    3 1.00
             18.731137    0.03349459952309
             2.8253937    0.23472694665786
             0.6401217    0.81375731841339
 s    1 1.00
             0.1612778                   1

26 0
 s    3 1.00
             18.731137    0.03349459952309
             2.8253937    0.23472694665786
             0.6401217    0.81375731841339
 s    1 1.00
             0.1612778                   1

27 0
 s    3 1.00
             18.731137    0.03349459952309
             2.8253937    0.23472694665786
             0.6401217    0.81375731841339
 s    1 1.00
             0.1612778                   1

28 0
 s    3 1.00
             18.731137    0.03349459952309
             2.8253937    0.23472694665786
             0.6401217    0.81375731841339
 s    1 1.00
             0.1612778                   1

29 0
 s    3 1.00
             18.731137    0.03349459952309
             2.8253937    0.23472694665786
             0.6401217    0.81375731841339
 s    1 1.00
             0.1612778                   1

30 0
 s    3 1.00
             18.731137    0.03349459952309
             2.8253937    0.23472694665786
             0.6401217    0.81375731841339
 s    1 1.00
             0.1612778                   1

31 0
 s    3 1.00
             18.731137    0.03349459952309
             2.8253937    0.23472694665786
             0.6401217    0.81375731841339
 s    1 1.00
             0.1612778                   1

32 0
 s    3 1.00
             18.731137    0.03349459952309
             2.8253937    0.23472694665786
             0.6401217    0.81375731841339
 s    1 1.00
             0.1612778                   1

33 0
 s    6 1.00
             3047.5249  0.0018347001629433
             457.36951    0.01403730124668
             103.94869   0.068842606114048
             29.210155    0.23218442062076
              9.286663    0.46794134155879
              3.163927    0.36231203217765
 s    3 1.00
             7.8682724   -0.11933240861517
             1.8812885   -0.16085421161283
             0.5442493     1.1434564825515
 s    1 1.00
             0.1687144                   1
 p    3 1.00
             7.8682724   0.068999095584993
             1.8812885    0.31642397975315
             0.5442493    0.74430825237435
 p    1 1.00
             0.1687144                   1
 d    1 1.00
                   0.8                   1

34 0
 s    6 1.00
             3047.5249  0.0018347001629433
             457.36951    0.01403730124668
             103.94869   0.068842606114048
             29.210155    0.23218442062076
              9.286663    0.46794134155879
              3.163927    0.36231203217765
 s    3 1.00
             7.8682724   -0.11933240861517
             1.8812885   -0.16085421161283
             0.5442493     1.1434564825515
 s    1 1.00
             0.1687144                   1
 p    3 1.00
             7.8682724   0.068999095584993
             1.8812885    0.31642397975315
             0.5442493    0.74430825237435
 p    1 1.00
             0.1687144                   1
 d    1 1.00
                   0.8                   1

35 0
 s    3 1.00
             18.731137    0.03349459952309
             2.8253937    0.23472694665786
             0.6401217    0.81375731841339
 s    1 1.00
             0.1612778                   1

36 0
 s    6 1.00
             3047.5249  0.0018347001629433
             457.36951    0.01403730124668
             103.94869   0.068842606114048
             29.210155    0.23218442062076
              9.286663    0.46794134155879
              3.163927    0.36231203217765
 s    3 1.00
             7.8682724   -0.11933240861517
             1.8812885   -0.16085421161283
             0.5442493     1.1434564825515
 s    1 1.00
             0.1687144                   1
 p    3 1.00
             7.8682724   0.068999095584993
             1.8812885    0.31642397975315
             0.5442493    0.74430825237435
 p    1 1.00
             0.1687144                   1
 d    1 1.00
                   0.8                   1

37 0
 s    3 1.00
             18.731137    0.03349459952309
             2.8253937    0.23472694665786
             0.6401217    0.81375731841339
 s    1 1.00
             0.1612778                   1

38 0
 s    3 1.00
             18.731137    0.03349459952309
             2.8253937    0.23472694665786
             0.6401217    0.81375731841339
 s    1 1.00
             0.1612778                   1

39 0
 s    6 1.00
             3047.5249  0.0018347001629433
             457.36951    0.01403730124668
             103.94869   0.068842606114048
             29.210155    0.23218442062076
              9.286663    0.46794134155879
              3.163927    0.36231203217765
 s    3 1.00
             7.8682724   -0.11933240861517
             1.8812885   -0.16085421161283
             0.5442493     1.1434564825515
 s    1 1.00
             0.1687144                   1
 p    3 1.00
             7.8682724   0.068999095584993
             1.8812885    0.31642397975315
             0.5442493    0.74430825237435
 p    1 1.00
             0.1687144                   1
 d    1 1.00
                   0.8                   1

40 0
 s    6 1.00
             3047.5249  0.0018347001629433
             457.36951    0.01403730124668
             103.94869   0.068842606114048
             29.210155    0.23218442062076
              9.286663    0.46794134155879
              3.163927    0.36231203217765
 s    3 1.00
             7.8682724   -0.11933240861517
             1.8812885   -0.16085421161283
             0.5442493     1.1434564825515
 s    1 1.00
             0.1687144                   1
 p    3 1.00
             7.8682724   0.068999095584993
             1.8812885    0.31642397975315
             0.5442493    0.74430825237435
 p    1 1.00
             0.1687144                   1
 d    1 1.00
                   0.8                   1

41 0
 s    3 1.00
             18.731137    0.03349459952309
             2.8253937    0.23472694665786
             0.6401217    0.81375731841339
 s    1 1.00
             0.1612778                   1

42 0
 s    6 1.00
             5484.6717   0.001831099805527
             825.23495   0.013950098518422
             188.04696    0.06844509273075
               52.9645    0.23271427528445
              16.89757    0.47019295006289
             5.7996353    0.35852086192309
 s    3 1.00
             15.539616   -0.11077750382508
             3.5999336   -0.14802630511126
             1.0137618     1.1307670390447
 s    1 1.00
             0.2700058                   1
 p    3 1.00
             15.539616   0.070874299543311
             3.5999336    0.33975279781076
             1.0137618    0.72715859531445
 p    1 1.00
             0.2700058                   1
 d    1 1.00
                   0.8                   1

43 0
 s    3 1.00
             18.731137    0.03349459952309
             2.8253937    0.23472694665786
             0.6401217    0.81375731841339
 s    1 1.00
             0.1612778                   1

[5d]
[7f]
[9g]

[MO]
 Sym= A
 Ene=               0
 Spin= Alpha
 Occup=    1.00000
   1    1.955793684463e-07
   2    -1.3975513215243e-05
   3    1.3915507382266e-06
   4    1.1588657088091e-06
   5    -1.105776564327e-05
   6    1.2877109842661e-05
   7    2.1055946611995e-05
   8    4.9376337671949e-05
   9    -0.00022077264353058
  10    4.2364794906076e-07
  11    6.0614420412302e-06
  12    7.5043265709842e-07
  13     7.63355611902e-06
  14    -4.1399746308826e-06
  15    -9.019909651355e-06
  16    8.6094072037345e-06
  17    2.7369426497619e-06
  18    0.0001008225222065
  19    0.0002473049792527
  20    3.5488166328451e-05
  21    5.3452517804938e-06
  22    -4.913881300215e-05
  23    9.6730739870972e-05
  24    -5.856100064358e-05
  25    -0.00035992070528392
  26    1.0050142631847e-05
  27    -1.216422563102e-05
  28    4.6567797370263e-06
  29    2.3484891365542e-05
  30    -2.2228319757921e-07
  31    -5.8002555514761e-06
  32    1.8978604357864e-05
  33    5.5168323816705e-05
  34    0.00014927621225383
  35    -0.0025861259077498
  36    -7.7996957210438e-05
  37    6.6537992467791e-05
  38    0.00014198571224328
  39    -0.00028755803041081
  40    0.0011491298513838
  41    0.00032609772749297
  42    -1.2382886448152e-05
  43    6.188052206284e-05
  44    -4.0373804875459e-05
  45    1.797633727661e-05
  46    3.2796880038678e-05
  47    -5.0353126645966e-06
  48    -0.00015147024698971
  49    -5.2349960884816e-05
  50    0.00026123194707128
  51    0.0021241119565989
  52    0.00022333581919529
  53    -0.00024202829230434
  54    -0.00031920599572287
  55    -0.00097365135283712
  56    0.0013967192654955
  57    0.0012724498180503
  58    -1.1863656223004e-05
  59    1.6742462171897e-05
  60    0.00010045667978637
  61    8.8459552484026e-06
  62    -6.3630248086599e-05
  63    0.00027805296325514
  64    8.8244885456466e-05
  65    -1.0697134490741e-07
  66    -8.8044702793056e-08
  67    -1.3197630330828e-08
  68    -3.7910968167855e-07
  69    1.6495972388524e-06
  70    8.7092423053923e-08
  71    -1.6587518620749e-07
  72    1.2879668580949e-07
  73    6.833280031345e-08
  74    1.0000926832188e-06
  75    -4.5271700651783e-08
  76    -2.7857373194513e-08
  77    -6.2100939977418e-08
  78    2.582197063042e-08
  79     4.26338583532e-08
  80    -5.5297152344066e-08
  81    5.181575850882e-08
  82    1.4399872579275e-07
  83    2.6852905200838e-08
  84    -9.867233747587e-08
  85    -7.9221708707829e-06
  86    4.7977626495514e-07
  87    1.1405872380936e-07
  88    5.4942286421149e-07
  89    2.067991813447e-06
  90    -2.7453532923377e-06
  91    1.9746380602305e-06
  92    8.3422132092348e-08
  93    -1.4137737167334e-07
  94    2.2878730722447e-07
  95    3.1319626388281e-08
  96    -6.8799477879394e-08
  97    5.4446036307489e-07
  98    7.1553423771395e-07
  99    -7.3077507878898e-08
 100    -7.3279376841081e-07
 101    -9.0123803796224e-08
 102    -4.4347536067343e-07
 103    8.6708621875994e-06
 104    -3.8576786470689e-07
 105    -1.1087824894901e-06
 106    -4.0814224089128e-07
 107    -1.1451560336067e-05
 108    9.7834675630753e-06
 109    1.7447089785699e-05
 110    -3.3329605082363e-07
 111    -3.0670207052428e-07
 112    1.4371481619821e-07
 113    2.3557683659173e-07
 114    -2.755423680035e-07
 115    -3.2097275593666e-07
 116    -2.4214940752977e-06
 117    2.0905414571021e-05
 118    -4.5353474411718e-07
 119    6.9113288229061e-07
 120    2.4645673547003e-07
 121    -4.7312175610601e-06
 122    4.1585340205563e-07
 123    1.3584937445255e-06
 124    -3.6893421047129e-08
 125    -1.4479716802955e-07
 126    -8.0756993421627e-08
 127    7.9482081786397e-08
 128    -1.7613459408387e-07
 129    -4.9821951083476e-07
 130    -5.106005274724e-06
 131    2.9219672288291e-05
 132    1.1733581534051e-07
 133    -6.6575709814718e-07
 134    2.0506039697058e-06
 135    -1.4757646012258e-05
 136    -1.202653105228e-07
 137    -4.6168111843257e-05
 138    1.3994500874393e-06
 139    9.0516528493795e-07
 140    7.7318636647329e-08
 141    1.9362788603023e-07
 142    1.7585660880276e-08
 143    -1.9904074738891e-07
 144    -2.2371687302316e-06
 145    1.0737583468448e-05
 146    3.8721661215243e-08
 147    3.4876276591047e-07
 148    4.4566982736613e-07
 149    6.591590303019e-06
 150    -3.5025236189495e-06
 151    -1.5352099306048e-06
 152    -5.8103771464378e-07
 153    -1.9143147599794e-07
 154    -7.3499760283396e-08
 155    3.9151936982748e-07
 156    -4.3443258412642e-07
 157    7.3799358830741e-08
 158    5.0110937781421e-07
 159    1.8574225293507e-07
 160    4.525566588815e-07
 161    -1.036745497387e-07
 162    1.0259101368577e-07
 163    -3.5363572617829e-06
 164    7.913357079684e-08
 165    5.6673991163848e-07
 166    2.6385383497957e-07
 167     -1.0378652252e-07
 168    9.4622055000216e-09
 169    -6.4855913679076e-08
 170    1.6783704157224e-07
 171    2.9105208392082e-08
 172    -2.5973472141544e-07
 173    -1.009437200563e-06
 174    -4.0325190084916e-07
 175    -9.7201862208157e-08
 176    4.178249868854e-07
 177    -1.3078783304368e-07
 178    9.3448062994733e-07
 179    -1.0699467265847e-06
 180    8.1491324127438e-08
 181    1.3327047371375e-07
 182    1.4423564556668e-08
 183    -2.0987263151675e-07
 184    1.0921992223869e-07
 185    -1.8071579929385e-07
 186    -1.709199912414e-06
 187    1.2863345334837e-06
 188    -1.202983251274e-07
 189    7.2819049856802e-08
 190    5.4645549163075e-07
 191    1.3098803096184e-06
 192    5.0761001808809e-07
 193    -3.2458344539824e-06
 194    1.8531645038384e-07
 195    -5.0998883708541e-09
 196    1.0554518543238e-07
 197    3.998716130769e-08
 198    -4.4866448623552e-08
 199    -4.0953414934262e-07
 200    -7.2944484825688e-07
 201    -3.0652117393831e-08
 202    1.7941451541655e-06
 203    -1.1157780409673e-06
 204    -1.3926651284019e-06
 205    -2.3072255489533e-08
 206    -1.1673184975117e-06
 207    7.5774204177867e-07
 208    -6.8485532613844e-06
 209    5.5770826117327e-07
 210    -2.4401950902108e-06
 211    2.5565250712244e-07
 212    1.6756469766365e-06
 213    -8.807854893409e-08
 214    -1.2191637179706e-06
 215    -2.8882768935907e-07
 216    5.1524010096453e-07
 217    1.6751746364645e-07
 218    5.2846180586909e-07
 219    1.3969771348252e-07
 220    6.5116547870303e-07
 221    -5.4220395617908e-07
 222    -4.6368493243701e-06
 223    -6.6064295247443e-07
 224    2.0425690221883e-08
 225    1.5288390604259e-06
 226    2.1574989566916e-06
 227    7.3869051549149e-06
 228    1.7359629556885e-05
 229    -5.580006535645e-05
 230    -6.6297801997322e-07
 231    -2.3655771837207e-06
 232    -1.2836002004805e-06
 233    1.0194955588243e-06
 234    1.702685638237e-06
 235    -4.1435254255798e-07
 236    -6.7383407464196e-06
 237    7.6324416135732e-06
 238    -7.9823182659774e-07
 239    3.2005000960064e-06
 240    3.6046849994517e-06
 241    -1.1001260642214e-05
 242    -2.0940970144655e-06
 243    -5.0364836581891e-05
 244    1.0306405841969e-06
 245    3.7944824393757e-06
 246    1.3941081073545e-06
 247    1.5107820065425e-06
 248    8.2518010851416e-07
 249    -2.3080608460753e-06
 250    6.0433561591889e-06
 251    -2.7567875321062e-06
 252    -1.6155714246421e-05
 253    0.00015369036382798
 254    4.9335029531506e-06
 255    -9.8328740858761e-06
 256    6.973243127568e-07
 257    6.7914455232057e-05
 258    5.6437620233147e-05
 259    -0.00013945202674185
 260    1.2402509576275e-06
 261    -7.2897477847277e-06
 262    -2.7081887558935e-06
 263    4.7145050404803e-06
 264    3.2491802826092e-06
 265    -2.9444258522341e-06
 266    1.5723874521393e-05
 267    -4.5429283422734e-06
 268    2.3633667409243e-05
 269    -4.59916984484e-05
 270    7.8661205041062e-05
 271    0.0019258438790635
 272    -0.00010158215630117
 273    -0.00016268956581147
 274    0.00012889124046923
 275    0.0011341069458982
 276    0.00032825434396998
 277    -0.0018295066454748
 278    0.00013467983058124
 279    -0.00013023935117581
 280    8.1238692426408e-05