[Molden Format]
made by pyscf v[2.0.1]
[Atoms] (AU)
C   1   6     0.69100024066471     0.64692934207205    -3.48223131169301
H   2   1     2.68052439830868     1.13355088658700    -3.25784032593313
C   3   6    -0.36286361513219     0.85440132524594    -5.97030179418974
H   4   1    -2.35448549047279     0.36322488579172    -6.17995817793143
C   5   6     0.93697958957450     1.61209284601821    -8.05828437677121
H   6   1     0.88481995546627     3.59633991549139    -8.60690604548455
C   7   6     2.39466048338875    -0.07229584893402    -9.60563204708460
H   8   1     2.43004158789144    -2.05446799383120    -9.03164251308345
H   9   1     1.55630230933075    -1.92953025305990    12.99630010416247
C   10   6     0.75233899775814    -2.21270439606481    11.10705728102219
H   11   1    -0.43433408177274    -3.90944857546550    11.22216085340412
C   12   6     2.86362581178706    -2.63237380607947     9.17926416456045
H   13   1     4.39038949912609    -1.24955421540245     9.49899813497433
H   14   1     3.74629220191363    -4.48798724300892     9.47414880959024
C   15   6     2.02478325613682    -2.42177285709634     6.44560829588644
C   16   6     3.88048732735477    -3.58795445234514     4.61402886975252
C   17   6    -0.18412382258602    -1.30464291234259     5.76021113872346
C   18   6    -2.10044360464350    -0.26837831858460     7.71610340967100
C   19   6    -3.08956938670431     2.35282328359417     6.88693925039594
C   20   6    -4.37372924086464    -2.09766595989678     7.93610724222001
C   21   6    -0.83850430601230     0.06372213486173    10.33002307638377
H   22   1     0.38411922151109     1.74281358582432    10.27380136542181
H   23   1    -2.30980003007874     0.45460143924521    11.73986301809809
H   24   1     4.58527064644668    -5.38706904487420     5.36778158031719
H   25   1     5.54944938085014    -2.37631462192748     4.35398898413318
H   26   1     3.06633019150423    -3.94118377050688     2.75255466040884
H   27   1    -4.17727778763735     2.26573369139522     5.12914900961283
H   28   1    -1.52662344944051     3.68001877445626     6.59540397144508
H   29   1    -4.32916174397830     3.13643051467482     8.35225460090378
H   30   1    -5.32329548508442    -2.36691813602939     6.11583672749896
H   31   1    -5.77989366602257    -1.33896741843465     9.25748940450990
H   32   1    -3.79310905208926    -3.96389819310853     8.61386170102686
C   33   6    -1.01100794811226    -1.06331657314144     3.11929490449947
C   34   6     0.37686231036534    -0.33275864505552     1.09165013605873
H   35   1    -3.01671213906703    -1.40297922279997     2.77827895090944
C   36   6    -0.64382707979370    -0.11591880174385    -1.42063131251064
H   37   1     2.35569259782137     0.17174499283897     1.33641070251401
H   38   1    -2.63317482980319    -0.60229203511219    -1.66119700387645
C   39   6     3.71533383510959     0.59576232705089   -11.69997054074953
C   40   6     5.14333780052268    -1.26490852400141   -13.15108433486960
H   41   1     3.75910290759049     2.53760054456126   -12.37459410036833
O   42   8     6.36836167706676    -0.79692659131490   -15.04874962161569
H   43   1     5.04579305514285    -3.22830651971947   -12.39231411193817
[GTO]
1 0
 s    6 1.00
             3047.5249  0.0018347001629433
             457.36951    0.01403730124668
             103.94869   0.068842606114048
             29.210155    0.23218442062076
              9.286663    0.46794134155879
              3.163927    0.36231203217765
 s    3 1.00
             7.8682724   -0.11933240861517
             1.8812885   -0.16085421161283
             0.5442493     1.1434564825515
 s    1 1.00
             0.1687144                   1
 p    3 1.00
             7.8682724   0.068999095584993
             1.8812885    0.31642397975315
             0.5442493    0.74430825237435
 p    1 1.00
             0.1687144                   1
 d    1 1.00
                   0.8                   1

2 0
 s    3 1.00
             18.731137    0.03349459952309
             2.8253937    0.23472694665786
             0.6401217    0.81375731841339
 s    1 1.00
             0.1612778                   1

3 0
 s    6 1.00
             3047.5249  0.0018347001629433
             457.36951    0.01403730124668
             103.94869   0.068842606114048
             29.210155    0.23218442062076
              9.286663    0.46794134155879
              3.163927    0.36231203217765
 s    3 1.00
             7.8682724   -0.11933240861517
             1.8812885   -0.16085421161283
             0.5442493     1.1434564825515
 s    1 1.00
             0.1687144                   1
 p    3 1.00
             7.8682724   0.068999095584993
             1.8812885    0.31642397975315
             0.5442493    0.74430825237435
 p    1 1.00
             0.1687144                   1
 d    1 1.00
                   0.8                   1

4 0
 s    3 1.00
             18.731137    0.03349459952309
             2.8253937    0.23472694665786
             0.6401217    0.81375731841339
 s    1 1.00
             0.1612778                   1

5 0
 s    6 1.00
             3047.5249  0.0018347001629433
             457.36951    0.01403730124668
             103.94869   0.068842606114048
             29.210155    0.23218442062076
              9.286663    0.46794134155879
              3.163927    0.36231203217765
 s    3 1.00
             7.8682724   -0.11933240861517
             1.8812885   -0.16085421161283
             0.5442493     1.1434564825515
 s    1 1.00
             0.1687144                   1
 p    3 1.00
             7.8682724   0.068999095584993
             1.8812885    0.31642397975315
             0.5442493    0.74430825237435
 p    1 1.00
             0.1687144                   1
 d    1 1.00
                   0.8                   1

6 0
 s    3 1.00
             18.731137    0.03349459952309
             2.8253937    0.23472694665786
             0.6401217    0.81375731841339
 s    1 1.00
             0.1612778                   1

7 0
 s    6 1.00
             3047.5249  0.0018347001629433
             457.36951    0.01403730124668
             103.94869   0.068842606114048
             29.210155    0.23218442062076
              9.286663    0.46794134155879
              3.163927    0.36231203217765
 s    3 1.00
             7.8682724   -0.11933240861517
             1.8812885   -0.16085421161283
             0.5442493     1.1434564825515
 s    1 1.00
             0.1687144                   1
 p    3 1.00
             7.8682724   0.068999095584993
             1.8812885    0.31642397975315
             0.5442493    0.74430825237435
 p    1 1.00
             0.1687144                   1
 d    1 1.00
                   0.8                   1

8 0
 s    3 1.00
             18.731137    0.03349459952309
             2.8253937    0.23472694665786
             0.6401217    0.81375731841339
 s    1 1.00
             0.1612778                   1

9 0
 s    3 1.00
             18.731137    0.03349459952309
             2.8253937    0.23472694665786
             0.6401217    0.81375731841339
 s    1 1.00
             0.1612778                   1

10 0
 s    6 1.00
             3047.5249  0.0018347001629433
             457.36951    0.01403730124668
             103.94869   0.068842606114048
             29.210155    0.23218442062076
              9.286663    0.46794134155879
              3.163927    0.36231203217765
 s    3 1.00
             7.8682724   -0.11933240861517
             1.8812885   -0.16085421161283
             0.5442493     1.1434564825515
 s    1 1.00
             0.1687144                   1
 p    3 1.00
             7.8682724   0.068999095584993
             1.8812885    0.31642397975315
             0.5442493    0.74430825237435
 p    1 1.00
             0.1687144                   1
 d    1 1.00
                   0.8                   1

11 0
 s    3 1.00
             18.731137    0.03349459952309
             2.8253937    0.23472694665786
             0.6401217    0.81375731841339
 s    1 1.00
             0.1612778                   1

12 0
 s    6 1.00
             3047.5249  0.0018347001629433
             457.36951    0.01403730124668
             103.94869   0.068842606114048
             29.210155    0.23218442062076
              9.286663    0.46794134155879
              3.163927    0.36231203217765
 s    3 1.00
             7.8682724   -0.11933240861517
             1.8812885   -0.16085421161283
             0.5442493     1.1434564825515
 s    1 1.00
             0.1687144                   1
 p    3 1.00
             7.8682724   0.068999095584993
             1.8812885    0.31642397975315
             0.5442493    0.74430825237435
 p    1 1.00
             0.1687144                   1
 d    1 1.00
                   0.8                   1

13 0
 s    3 1.00
             18.731137    0.03349459952309
             2.8253937    0.23472694665786
             0.6401217    0.81375731841339
 s    1 1.00
             0.1612778                   1

14 0
 s    3 1.00
             18.731137    0.03349459952309
             2.8253937    0.23472694665786
             0.6401217    0.81375731841339
 s    1 1.00
             0.1612778                   1

15 0
 s    6 1.00
             3047.5249  0.0018347001629433
             457.36951    0.01403730124668
             103.94869   0.068842606114048
             29.210155    0.23218442062076
              9.286663    0.46794134155879
              3.163927    0.36231203217765
 s    3 1.00
             7.8682724   -0.11933240861517
             1.8812885   -0.16085421161283
             0.5442493     1.1434564825515
 s    1 1.00
             0.1687144                   1
 p    3 1.00
             7.8682724   0.068999095584993
             1.8812885    0.31642397975315
             0.5442493    0.74430825237435
 p    1 1.00
             0.1687144                   1
 d    1 1.00
                   0.8                   1

16 0
 s    6 1.00
             3047.5249  0.0018347001629433
             457.36951    0.01403730124668
             103.94869   0.068842606114048
             29.210155    0.23218442062076
              9.286663    0.46794134155879
              3.163927    0.36231203217765
 s    3 1.00
             7.8682724   -0.11933240861517
             1.8812885   -0.16085421161283
             0.5442493     1.1434564825515
 s    1 1.00
             0.1687144                   1
 p    3 1.00
             7.8682724   0.068999095584993
             1.8812885    0.31642397975315
             0.5442493    0.74430825237435
 p    1 1.00
             0.1687144                   1
 d    1 1.00
                   0.8                   1

17 0
 s    6 1.00
             3047.5249  0.0018347001629433
             457.36951    0.01403730124668
             103.94869   0.068842606114048
             29.210155    0.23218442062076
              9.286663    0.46794134155879
              3.163927    0.36231203217765
 s    3 1.00
             7.8682724   -0.11933240861517
             1.8812885   -0.16085421161283
             0.5442493     1.1434564825515
 s    1 1.00
             0.1687144                   1
 p    3 1.00
             7.8682724   0.068999095584993
             1.8812885    0.31642397975315
             0.5442493    0.74430825237435
 p    1 1.00
             0.1687144                   1
 d    1 1.00
                   0.8                   1

18 0
 s    6 1.00
             3047.5249  0.0018347001629433
             457.36951    0.01403730124668
             103.94869   0.068842606114048
             29.210155    0.23218442062076
              9.286663    0.46794134155879
              3.163927    0.36231203217765
 s    3 1.00
             7.8682724   -0.11933240861517
             1.8812885   -0.16085421161283
             0.5442493     1.1434564825515
 s    1 1.00
             0.1687144                   1
 p    3 1.00
             7.8682724   0.068999095584993
             1.8812885    0.31642397975315
             0.5442493    0.74430825237435
 p    1 1.00
             0.1687144                   1
 d    1 1.00
                   0.8                   1

19 0
 s    6 1.00
             3047.5249  0.0018347001629433
             457.36951    0.01403730124668
             103.94869   0.068842606114048
             29.210155    0.23218442062076
              9.286663    0.46794134155879
              3.163927    0.36231203217765
 s    3 1.00
             7.8682724   -0.11933240861517
             1.8812885   -0.16085421161283
             0.5442493     1.1434564825515
 s    1 1.00
             0.1687144                   1
 p    3 1.00
             7.8682724   0.068999095584993
             1.8812885    0.31642397975315
             0.5442493    0.74430825237435
 p    1 1.00
             0.1687144                   1
 d    1 1.00
                   0.8                   1

20 0
 s    6 1.00
             3047.5249  0.0018347001629433
             457.36951    0.01403730124668
             103.94869   0.068842606114048
             29.210155    0.23218442062076
              9.286663    0.46794134155879
              3.163927    0.36231203217765
 s    3 1.00
             7.8682724   -0.11933240861517
             1.8812885   -0.16085421161283
             0.5442493     1.1434564825515
 s    1 1.00
             0.1687144                   1
 p    3 1.00
             7.8682724   0.068999095584993
             1.8812885    0.31642397975315
             0.5442493    0.74430825237435
 p    1 1.00
             0.1687144                   1
 d    1 1.00
                   0.8                   1

21 0
 s    6 1.00
             3047.5249  0.0018347001629433
             457.36951    0.01403730124668
             103.94869   0.068842606114048
             29.210155    0.23218442062076
              9.286663    0.46794134155879
              3.163927    0.36231203217765
 s    3 1.00
             7.8682724   -0.11933240861517
             1.8812885   -0.16085421161283
             0.5442493     1.1434564825515
 s    1 1.00
             0.1687144                   1
 p    3 1.00
             7.8682724   0.068999095584993
             1.8812885    0.31642397975315
             0.5442493    0.74430825237435
 p    1 1.00
             0.1687144                   1
 d    1 1.00
                   0.8                   1

22 0
 s    3 1.00
             18.731137    0.03349459952309
             2.8253937    0.23472694665786
             0.6401217    0.81375731841339
 s    1 1.00
             0.1612778                   1

23 0
 s    3 1.00
             18.731137    0.03349459952309
             2.8253937    0.23472694665786
             0.6401217    0.81375731841339
 s    1 1.00
             0.1612778                   1

24 0
 s    3 1.00
             18.731137    0.03349459952309
             2.8253937    0.23472694665786
             0.6401217    0.81375731841339
 s    1 1.00
             0.1612778                   1

25 0
 s    3 1.00
             18.731137    0.03349459952309
             2.8253937    0.23472694665786
             0.6401217    0.81375731841339
 s    1 1.00
             0.1612778                   1

26 0
 s    3 1.00
             18.731137    0.03349459952309
             2.8253937    0.23472694665786
             0.6401217    0.81375731841339
 s    1 1.00
             0.1612778                   1

27 0
 s    3 1.00
             18.731137    0.03349459952309
             2.8253937    0.23472694665786
             0.6401217    0.81375731841339
 s    1 1.00
             0.1612778                   1

28 0
 s    3 1.00
             18.731137    0.03349459952309
             2.8253937    0.23472694665786
             0.6401217    0.81375731841339
 s    1 1.00
             0.1612778                   1

29 0
 s    3 1.00
             18.731137    0.03349459952309
             2.8253937    0.23472694665786
             0.6401217    0.81375731841339
 s    1 1.00
             0.1612778                   1

30 0
 s    3 1.00
             18.731137    0.03349459952309
             2.8253937    0.23472694665786
             0.6401217    0.81375731841339
 s    1 1.00
             0.1612778                   1

31 0
 s    3 1.00
             18.731137    0.03349459952309
             2.8253937    0.23472694665786
             0.6401217    0.81375731841339
 s    1 1.00
             0.1612778                   1

32 0
 s    3 1.00
             18.731137    0.03349459952309
             2.8253937    0.23472694665786
             0.6401217    0.81375731841339
 s    1 1.00
             0.1612778                   1

33 0
 s    6 1.00
             3047.5249  0.0018347001629433
             457.36951    0.01403730124668
             103.94869   0.068842606114048
             29.210155    0.23218442062076
              9.286663    0.46794134155879
              3.163927    0.36231203217765
 s    3 1.00
             7.8682724   -0.11933240861517
             1.8812885   -0.16085421161283
             0.5442493     1.1434564825515
 s    1 1.00
             0.1687144                   1
 p    3 1.00
             7.8682724   0.068999095584993
             1.8812885    0.31642397975315
             0.5442493    0.74430825237435
 p    1 1.00
             0.1687144                   1
 d    1 1.00
                   0.8                   1

34 0
 s    6 1.00
             3047.5249  0.0018347001629433
             457.36951    0.01403730124668
             103.94869   0.068842606114048
             29.210155    0.23218442062076
              9.286663    0.46794134155879
              3.163927    0.36231203217765
 s    3 1.00
             7.8682724   -0.11933240861517
             1.8812885   -0.16085421161283
             0.5442493     1.1434564825515
 s    1 1.00
             0.1687144                   1
 p    3 1.00
             7.8682724   0.068999095584993
             1.8812885    0.31642397975315
             0.5442493    0.74430825237435
 p    1 1.00
             0.1687144                   1
 d    1 1.00
                   0.8                   1

35 0
 s    3 1.00
             18.731137    0.03349459952309
             2.8253937    0.23472694665786
             0.6401217    0.81375731841339
 s    1 1.00
             0.1612778                   1

36 0
 s    6 1.00
             3047.5249  0.0018347001629433
             457.36951    0.01403730124668
             103.94869   0.068842606114048
             29.210155    0.23218442062076
              9.286663    0.46794134155879
              3.163927    0.36231203217765
 s    3 1.00
             7.8682724   -0.11933240861517
             1.8812885   -0.16085421161283
             0.5442493     1.1434564825515
 s    1 1.00
             0.1687144                   1
 p    3 1.00
             7.8682724   0.068999095584993
             1.8812885    0.31642397975315
             0.5442493    0.74430825237435
 p    1 1.00
             0.1687144                   1
 d    1 1.00
                   0.8                   1

37 0
 s    3 1.00
             18.731137    0.03349459952309
             2.8253937    0.23472694665786
             0.6401217    0.81375731841339
 s    1 1.00
             0.1612778                   1

38 0
 s    3 1.00
             18.731137    0.03349459952309
             2.8253937    0.23472694665786
             0.6401217    0.81375731841339
 s    1 1.00
             0.1612778                   1

39 0
 s    6 1.00
             3047.5249  0.0018347001629433
             457.36951    0.01403730124668
             103.94869   0.068842606114048
             29.210155    0.23218442062076
              9.286663    0.46794134155879
              3.163927    0.36231203217765
 s    3 1.00
             7.8682724   -0.11933240861517
             1.8812885   -0.16085421161283
             0.5442493     1.1434564825515
 s    1 1.00
             0.1687144                   1
 p    3 1.00
             7.8682724   0.068999095584993
             1.8812885    0.31642397975315
             0.5442493    0.74430825237435
 p    1 1.00
             0.1687144                   1
 d    1 1.00
                   0.8                   1

40 0
 s    6 1.00
             3047.5249  0.0018347001629433
             457.36951    0.01403730124668
             103.94869   0.068842606114048
             29.210155    0.23218442062076
              9.286663    0.46794134155879
              3.163927    0.36231203217765
 s    3 1.00
             7.8682724   -0.11933240861517
             1.8812885   -0.16085421161283
             0.5442493     1.1434564825515
 s    1 1.00
             0.1687144                   1
 p    3 1.00
             7.8682724   0.068999095584993
             1.8812885    0.31642397975315
             0.5442493    0.74430825237435
 p    1 1.00
             0.1687144                   1
 d    1 1.00
                   0.8                   1

41 0
 s    3 1.00
             18.731137    0.03349459952309
             2.8253937    0.23472694665786
             0.6401217    0.81375731841339
 s    1 1.00
             0.1612778                   1

42 0
 s    6 1.00
             5484.6717   0.001831099805527
             825.23495   0.013950098518422
             188.04696    0.06844509273075
               52.9645    0.23271427528445
              16.89757    0.47019295006289
             5.7996353    0.35852086192309
 s    3 1.00
             15.539616   -0.11077750382508
             3.5999336   -0.14802630511126
             1.0137618     1.1307670390447
 s    1 1.00
             0.2700058                   1
 p    3 1.00
             15.539616   0.070874299543311
             3.5999336    0.33975279781076
             1.0137618    0.72715859531445
 p    1 1.00
             0.2700058                   1
 d    1 1.00
                   0.8                   1

43 0
 s    3 1.00
             18.731137    0.03349459952309
             2.8253937    0.23472694665786
             0.6401217    0.81375731841339
 s    1 1.00
             0.1612778                   1

[5d]
[7f]
[9g]

[MO]
 Sym= A
 Ene=               0
 Spin= Alpha
 Occup=    1.00000
   1    -1.3032005831128e-06
   2    -8.4794286588407e-06
   3    -1.4858698847096e-05
   4    7.9807881073463e-07
   5    -1.1905026671583e-05
   6    4.992727478267e-06
   7    2.7959073783856e-05
   8    6.5440161977046e-05
   9    -0.00021609498237175
  10    2.1319290068922e-07
  11    5.8035215395422e-06
  12    4.2909729021301e-07
  13    7.6986713050965e-06
  14    -4.2824684780385e-06
  15    -8.3352452986179e-06
  16    3.5160981240045e-06
  17    2.4474576193322e-06
  18    9.9339897417866e-05
  19    0.00026058113080284
  20    3.7796174496164e-05
  21    5.9896993275526e-06
  22    -4.7431252948031e-05
  23    0.00011883743297678
  24    -6.6307373151694e-05
  25    -0.00033698636120323
  26    1.1872893620185e-05
  27    -1.1643664599541e-05
  28    6.2052150184275e-06
  29    2.2036978370361e-05
  30    1.8133202562384e-06
  31    -1.1962231052503e-05
  32    1.0901656336522e-05
  33    5.5139264588806e-05
  34    0.00014946106310312
  35    -0.002583949350365
  36    -0.00011064836446546
  37    6.1447762416283e-05
  38    0.00012024040715831
  39    -0.0004268779819184
  40    0.0011317831206281
  41    0.00023530087703224
  42    -6.1220751800315e-06
  43    6.393664621729e-05
  44    -3.3681371707625e-05
  45    1.1632016856747e-05
  46    4.0694149380825e-05
  47    -5.2956035347482e-06
  48    -0.00015236277161166
  49    -5.2403867368068e-05
  50    0.00026106440580591
  51    0.0021277638034624
  52    0.00026450642614789
  53    -0.00023575402757738
  54    -0.00029077815478919
  55    -0.0011194980263912
  56    0.0013751233335372
  57     0.001174219379601
  58    -2.3368455074265e-05
  59    1.1314753515406e-05
  60    9.7942054290294e-05
  61    1.6178441903918e-05
  62    -6.3917752582242e-05
  63    0.00027802660010182
  64    8.7877211419698e-05
  65    -1.0582535220614e-07
  66    -1.3151981600386e-07
  67    -1.8184837467653e-08
  68    -3.5379493883581e-07
  69    1.5838045170505e-06
  70    9.5769819907646e-08
  71    -1.725860508603e-07
  72    1.1989396382338e-07
  73    1.2547419861985e-07
  74    9.6798878889767e-07
  75    -3.142774786686e-08
  76    -3.1568637431287e-08
  77    -6.5661922098739e-08
  78    2.3674753592681e-08
  79    3.811249355132e-08
  80    -5.933095142786e-08
  81    5.7805705920254e-08
  82    1.3494846354947e-07
  83    1.3987518995374e-08
  84    -1.3978710517387e-07
  85    -8.1610603890249e-06
  86    4.7120770465165e-07
  87    7.2132186229563e-08
  88     5.38298339163e-07
  89    1.9971065901467e-06
  90    -2.6744420278545e-06
  91    2.0669412210981e-06
  92    9.3819847278247e-08
  93    -1.5080471964586e-07
  94     2.21683137671e-07
  95    3.6635322507095e-08
  96    -8.3142781222809e-08
  97    4.833689519055e-07
  98    5.5968327531324e-07
  99    -2.5670600808182e-08
 100    -6.5335426889727e-07
 101    -5.1053755175716e-08
 102    -3.8017219625858e-07
 103    7.0875349261655e-06
 104    -1.3599839610616e-07
 105    -8.9246717234141e-07
 106    -4.2590170996146e-07
 107    -1.1269651596445e-05
 108    1.0260355039779e-05
 109    1.8784737573026e-05
 110    -3.4828392013043e-07
 111    -3.2532068336718e-07
 112    1.4674145647617e-07
 113    1.8709677685184e-07
 114    -2.7845593958364e-07
 115    -3.0890463109333e-07
 116    -2.4775832462949e-06
 117    2.1277391605473e-05
 118    -4.4278737960194e-07
 119    6.2927829318667e-07
 120    3.2100860353935e-07
 121    -5.1332720488537e-06
 122    9.2047946663672e-07
 123    1.7753496460191e-06
 124    -5.1386097538007e-08
 125    -1.6274040243366e-07
 126    -5.5460767568852e-08
 127    9.8695815161597e-08
 128    -2.0909512808349e-07
 129    -5.4296422218395e-07
 130    -5.1012575390301e-06
 131    3.1503807548442e-05
 132    2.1484384125794e-08
 133    -4.8759835614247e-07
 134    1.9714686828552e-06
 135    -1.3988373523013e-05
 136    -1.1684116318898e-06
 137    -4.892950010533e-05
 138    1.4557833680804e-06
 139    9.7063101035909e-07
 140    9.798835929461e-08
 141    2.2510084565829e-07
 142    3.7155873124185e-09
 143    -2.5196286395027e-07
 144    -2.5422237747381e-06
 145    1.2924548336368e-05
 146    4.5619194380189e-08
 147    2.858964585655e-07
 148    3.6820075358344e-07
 149    7.5445327469251e-06
 150    -3.2068913989299e-06
 151    -2.1638720159891e-06
 152    -5.7139530166107e-07
 153    -2.214417447568e-07
 154    -7.344904068317e-08
 155    4.0755152152176e-07
 156    -4.7666761673952e-07
 157    6.8504636446703e-08
 158    5.4418301724185e-07
 159    -2.0312312864883e-07
 160    4.2649658473419e-07
 161    -7.3615894005754e-08
 162    1.6874235004312e-08
 163    -3.8311866571777e-06
 164    3.1366752613059e-07
 165    5.6109822188319e-07
 166    2.8962841489729e-07
 167    -1.3149804013212e-07
 168    1.3608551167107e-08
 169    -6.4850107715356e-08
 170    1.9025680474327e-07
 171    2.6428481337578e-08
 172    -2.8390300019223e-07
 173    -7.1053837158528e-07
 174    -3.961500080165e-07
 175    -1.1251334929063e-07
 176    4.2215720510321e-07
 177    -1.7085196056685e-07
 178    1.0372284214198e-06
 179    -9.7829815752359e-07
 180    7.6338354115906e-08
 181    1.2925368446553e-07
 182    3.3491493495879e-08
 183    -2.1766570776351e-07
 184    1.0792350486571e-07
 185    -1.7797639242518e-07
 186    -1.7320796011275e-06
 187    1.0439417373194e-06
 188    -1.1008518931788e-07
 189    7.8225076068147e-08
 190    6.1634451577446e-07
 191    1.2560532237203e-06
 192    3.6468203576713e-07
 193    -3.0995420145072e-06
 194    1.6350855830366e-07
 195    -1.3200050642387e-08
 196    1.254269484564e-07
 197    5.5361386547645e-08
 198    -5.2733794176519e-08
 199    -3.9968309041998e-07
 200    -6.559594858061e-07
 201    -1.732579634205e-08
 202    1.8514866466632e-06
 203    -1.0418849950005e-06
 204    -1.0772366609468e-06
 205    -1.0016446326367e-07
 206    -1.3005568544926e-06
 207    6.0348717800762e-07
 208    -6.0793259058353e-06
 209     6.20101889794e-07
 210    -2.5359736868376e-06
 211    3.0482461029012e-07
 212    1.6967769259509e-06
 213    -1.2254211562501e-07
 214    -1.2930888608245e-06
 215    -2.706257930445e-07
 216    4.1699032164617e-07
 217    1.5387759831307e-07
 218    4.8360615548488e-07
 219    1.5640006886558e-07
 220    6.3817934978298e-07
 221    -4.4587325116725e-07
 222    -4.6916531500255e-06
 223    -4.7633550845265e-06
 224    1.5484393532195e-07
 225    5.5077395763521e-07
 226    2.3336911529371e-06
 227    5.7440255164918e-06
 228    1.7157833437661e-05
 229    -5.7638037740619e-05
 230    -6.6712794830388e-07
 231    -2.4569571978121e-06
 232    -1.2238543700036e-06
 233    1.0442476989754e-06
 234    1.6541736894936e-06
 235    -4.0672401361205e-07
 236    -6.1194346953542e-06
 237    7.5544210369363e-06
 238    -8.9014821020485e-07
 239    3.1676788113651e-06
 240    3.3072523811313e-06
 241    -1.1836775339601e-05
 242    -1.5216861067022e-06
 243    -4.8236419950743e-05
 244    6.5603804189759e-07
 245    3.8591173979461e-06
 246    1.094914865851e-06
 247    1.5710138578644e-06
 248    5.883592309995e-07
 249    -2.662195319807e-06
 250    6.1288249987498e-06
 251    -2.6141730130366e-06
 252    -1.9233540544082e-05
 253    0.00016211121429787
 254    1.8151709771933e-06
 255    -8.3376149093165e-06
 256    3.298679670225e-06
 257    6.7506337485005e-05
 258    5.1896722095359e-05
 259    -0.00014285892045966
 260    1.7308717133261e-06
 261    -7.4249589221552e-06
 262    -2.4106030212731e-06
 263    4.9740954731841e-06
 264    2.6284043583455e-06
 265    -2.4647896297425e-06
 266    1.6155259982834e-05
 267    -4.6817380850992e-06
 268    2.0410706839055e-05
 269    -4.5968958680281e-05
 270    7.9177850618274e-05
 271    0.0019254348597661
 272    -4.8243334772317e-05
 273    -0.00015442227625951
 274    0.00016551199334742
 275     0.001203971092925
 276    0.00033821134376016
 277    -0.0017826693316165
 278    0.00012085772365248
 279    -0.00013773213014867
 280    8.693616885048e-05