[Molden Format]
made by pyscf v[2.0.1]
[Atoms] (AU)
C   1   6     0.69100024066471     0.64692934207205    -3.48223131169301
H   2   1     2.68052439830868     1.13355088658700    -3.25784032593313
C   3   6    -0.36286361513219     0.85440132524594    -5.97030179418974
H   4   1    -2.35448549047279     0.36322488579172    -6.17995817793143
C   5   6     0.93697958957450     1.61209284601821    -8.05828437677121
H   6   1     2.28684852848462     3.15852966115860    -7.89296704602693
C   7   6     0.63106041134958     0.47904579632082   -10.50346361691732
H   8   1    -0.72718870892227    -1.06897620367389   -10.63951300078030
H   9   1     1.55630230933075    -1.92953025305990    12.99630010416247
C   10   6     0.75233899775814    -2.21270439606481    11.10705728102219
H   11   1    -0.43433408177274    -3.90944857546550    11.22216085340412
C   12   6     2.86362581178706    -2.63237380607947     9.17926416456045
H   13   1     4.39038949912609    -1.24955421540245     9.49899813497433
H   14   1     3.74629220191363    -4.48798724300892     9.47414880959024
C   15   6     2.02478325613682    -2.42177285709634     6.44560829588644
C   16   6     3.88048732735477    -3.58795445234514     4.61402886975252
C   17   6    -0.18412382258602    -1.30464291234259     5.76021113872346
C   18   6    -2.10044360464350    -0.26837831858460     7.71610340967100
C   19   6    -3.08956938670431     2.35282328359417     6.88693925039594
C   20   6    -4.37372924086464    -2.09766595989678     7.93610724222001
C   21   6    -0.83850430601230     0.06372213486173    10.33002307638377
H   22   1     0.38411922151109     1.74281358582432    10.27380136542181
H   23   1    -2.30980003007874     0.45460143924521    11.73986301809809
H   24   1     4.58527064644668    -5.38706904487420     5.36778158031719
H   25   1     5.54944938085014    -2.37631462192748     4.35398898413318
H   26   1     3.06633019150423    -3.94118377050688     2.75255466040884
H   27   1    -4.17727778763735     2.26573369139522     5.12914900961283
H   28   1    -1.52662344944051     3.68001877445626     6.59540397144508
H   29   1    -4.32916174397830     3.13643051467482     8.35225460090378
H   30   1    -5.32329548508442    -2.36691813602939     6.11583672749896
H   31   1    -5.77989366602257    -1.33896741843465     9.25748940450990
H   32   1    -3.79310905208926    -3.96389819310853     8.61386170102686
C   33   6    -1.01100794811226    -1.06331657314144     3.11929490449947
C   34   6     0.37686231036534    -0.33275864505552     1.09165013605873
H   35   1    -3.01671213906703    -1.40297922279997     2.77827895090944
C   36   6    -0.64382707979370    -0.11591880174385    -1.42063131251064
H   37   1     2.35569259782137     0.17174499283897     1.33641070251401
H   38   1    -2.63317482980319    -0.60229203511219    -1.66119700387645
C   39   6     1.88057107480096     1.17167710004378   -12.63318625924474
C   40   6     1.43424299107759    -0.10242214041261   -15.03828188134704
H   41   1     3.25774949416826     2.69847908646217   -12.62832443574420
O   42   8     2.48751113017790     0.42264932688836   -17.02215443525925
H   43   1     0.01015752982003    -1.65333508727432   -14.95564685399208
[GTO]
1 0
 s    6 1.00
             3047.5249  0.0018347001629433
             457.36951    0.01403730124668
             103.94869   0.068842606114048
             29.210155    0.23218442062076
              9.286663    0.46794134155879
              3.163927    0.36231203217765
 s    3 1.00
             7.8682724   -0.11933240861517
             1.8812885   -0.16085421161283
             0.5442493     1.1434564825515
 s    1 1.00
             0.1687144                   1
 p    3 1.00
             7.8682724   0.068999095584993
             1.8812885    0.31642397975315
             0.5442493    0.74430825237435
 p    1 1.00
             0.1687144                   1
 d    1 1.00
                   0.8                   1

2 0
 s    3 1.00
             18.731137    0.03349459952309
             2.8253937    0.23472694665786
             0.6401217    0.81375731841339
 s    1 1.00
             0.1612778                   1

3 0
 s    6 1.00
             3047.5249  0.0018347001629433
             457.36951    0.01403730124668
             103.94869   0.068842606114048
             29.210155    0.23218442062076
              9.286663    0.46794134155879
              3.163927    0.36231203217765
 s    3 1.00
             7.8682724   -0.11933240861517
             1.8812885   -0.16085421161283
             0.5442493     1.1434564825515
 s    1 1.00
             0.1687144                   1
 p    3 1.00
             7.8682724   0.068999095584993
             1.8812885    0.31642397975315
             0.5442493    0.74430825237435
 p    1 1.00
             0.1687144                   1
 d    1 1.00
                   0.8                   1

4 0
 s    3 1.00
             18.731137    0.03349459952309
             2.8253937    0.23472694665786
             0.6401217    0.81375731841339
 s    1 1.00
             0.1612778                   1

5 0
 s    6 1.00
             3047.5249  0.0018347001629433
             457.36951    0.01403730124668
             103.94869   0.068842606114048
             29.210155    0.23218442062076
              9.286663    0.46794134155879
              3.163927    0.36231203217765
 s    3 1.00
             7.8682724   -0.11933240861517
             1.8812885   -0.16085421161283
             0.5442493     1.1434564825515
 s    1 1.00
             0.1687144                   1
 p    3 1.00
             7.8682724   0.068999095584993
             1.8812885    0.31642397975315
             0.5442493    0.74430825237435
 p    1 1.00
             0.1687144                   1
 d    1 1.00
                   0.8                   1

6 0
 s    3 1.00
             18.731137    0.03349459952309
             2.8253937    0.23472694665786
             0.6401217    0.81375731841339
 s    1 1.00
             0.1612778                   1

7 0
 s    6 1.00
             3047.5249  0.0018347001629433
             457.36951    0.01403730124668
             103.94869   0.068842606114048
             29.210155    0.23218442062076
              9.286663    0.46794134155879
              3.163927    0.36231203217765
 s    3 1.00
             7.8682724   -0.11933240861517
             1.8812885   -0.16085421161283
             0.5442493     1.1434564825515
 s    1 1.00
             0.1687144                   1
 p    3 1.00
             7.8682724   0.068999095584993
             1.8812885    0.31642397975315
             0.5442493    0.74430825237435
 p    1 1.00
             0.1687144                   1
 d    1 1.00
                   0.8                   1

8 0
 s    3 1.00
             18.731137    0.03349459952309
             2.8253937    0.23472694665786
             0.6401217    0.81375731841339
 s    1 1.00
             0.1612778                   1

9 0
 s    3 1.00
             18.731137    0.03349459952309
             2.8253937    0.23472694665786
             0.6401217    0.81375731841339
 s    1 1.00
             0.1612778                   1

10 0
 s    6 1.00
             3047.5249  0.0018347001629433
             457.36951    0.01403730124668
             103.94869   0.068842606114048
             29.210155    0.23218442062076
              9.286663    0.46794134155879
              3.163927    0.36231203217765
 s    3 1.00
             7.8682724   -0.11933240861517
             1.8812885   -0.16085421161283
             0.5442493     1.1434564825515
 s    1 1.00
             0.1687144                   1
 p    3 1.00
             7.8682724   0.068999095584993
             1.8812885    0.31642397975315
             0.5442493    0.74430825237435
 p    1 1.00
             0.1687144                   1
 d    1 1.00
                   0.8                   1

11 0
 s    3 1.00
             18.731137    0.03349459952309
             2.8253937    0.23472694665786
             0.6401217    0.81375731841339
 s    1 1.00
             0.1612778                   1

12 0
 s    6 1.00
             3047.5249  0.0018347001629433
             457.36951    0.01403730124668
             103.94869   0.068842606114048
             29.210155    0.23218442062076
              9.286663    0.46794134155879
              3.163927    0.36231203217765
 s    3 1.00
             7.8682724   -0.11933240861517
             1.8812885   -0.16085421161283
             0.5442493     1.1434564825515
 s    1 1.00
             0.1687144                   1
 p    3 1.00
             7.8682724   0.068999095584993
             1.8812885    0.31642397975315
             0.5442493    0.74430825237435
 p    1 1.00
             0.1687144                   1
 d    1 1.00
                   0.8                   1

13 0
 s    3 1.00
             18.731137    0.03349459952309
             2.8253937    0.23472694665786
             0.6401217    0.81375731841339
 s    1 1.00
             0.1612778                   1

14 0
 s    3 1.00
             18.731137    0.03349459952309
             2.8253937    0.23472694665786
             0.6401217    0.81375731841339
 s    1 1.00
             0.1612778                   1

15 0
 s    6 1.00
             3047.5249  0.0018347001629433
             457.36951    0.01403730124668
             103.94869   0.068842606114048
             29.210155    0.23218442062076
              9.286663    0.46794134155879
              3.163927    0.36231203217765
 s    3 1.00
             7.8682724   -0.11933240861517
             1.8812885   -0.16085421161283
             0.5442493     1.1434564825515
 s    1 1.00
             0.1687144                   1
 p    3 1.00
             7.8682724   0.068999095584993
             1.8812885    0.31642397975315
             0.5442493    0.74430825237435
 p    1 1.00
             0.1687144                   1
 d    1 1.00
                   0.8                   1

16 0
 s    6 1.00
             3047.5249  0.0018347001629433
             457.36951    0.01403730124668
             103.94869   0.068842606114048
             29.210155    0.23218442062076
              9.286663    0.46794134155879
              3.163927    0.36231203217765
 s    3 1.00
             7.8682724   -0.11933240861517
             1.8812885   -0.16085421161283
             0.5442493     1.1434564825515
 s    1 1.00
             0.1687144                   1
 p    3 1.00
             7.8682724   0.068999095584993
             1.8812885    0.31642397975315
             0.5442493    0.74430825237435
 p    1 1.00
             0.1687144                   1
 d    1 1.00
                   0.8                   1

17 0
 s    6 1.00
             3047.5249  0.0018347001629433
             457.36951    0.01403730124668
             103.94869   0.068842606114048
             29.210155    0.23218442062076
              9.286663    0.46794134155879
              3.163927    0.36231203217765
 s    3 1.00
             7.8682724   -0.11933240861517
             1.8812885   -0.16085421161283
             0.5442493     1.1434564825515
 s    1 1.00
             0.1687144                   1
 p    3 1.00
             7.8682724   0.068999095584993
             1.8812885    0.31642397975315
             0.5442493    0.74430825237435
 p    1 1.00
             0.1687144                   1
 d    1 1.00
                   0.8                   1

18 0
 s    6 1.00
             3047.5249  0.0018347001629433
             457.36951    0.01403730124668
             103.94869   0.068842606114048
             29.210155    0.23218442062076
              9.286663    0.46794134155879
              3.163927    0.36231203217765
 s    3 1.00
             7.8682724   -0.11933240861517
             1.8812885   -0.16085421161283
             0.5442493     1.1434564825515
 s    1 1.00
             0.1687144                   1
 p    3 1.00
             7.8682724   0.068999095584993
             1.8812885    0.31642397975315
             0.5442493    0.74430825237435
 p    1 1.00
             0.1687144                   1
 d    1 1.00
                   0.8                   1

19 0
 s    6 1.00
             3047.5249  0.0018347001629433
             457.36951    0.01403730124668
             103.94869   0.068842606114048
             29.210155    0.23218442062076
              9.286663    0.46794134155879
              3.163927    0.36231203217765
 s    3 1.00
             7.8682724   -0.11933240861517
             1.8812885   -0.16085421161283
             0.5442493     1.1434564825515
 s    1 1.00
             0.1687144                   1
 p    3 1.00
             7.8682724   0.068999095584993
             1.8812885    0.31642397975315
             0.5442493    0.74430825237435
 p    1 1.00
             0.1687144                   1
 d    1 1.00
                   0.8                   1

20 0
 s    6 1.00
             3047.5249  0.0018347001629433
             457.36951    0.01403730124668
             103.94869   0.068842606114048
             29.210155    0.23218442062076
              9.286663    0.46794134155879
              3.163927    0.36231203217765
 s    3 1.00
             7.8682724   -0.11933240861517
             1.8812885   -0.16085421161283
             0.5442493     1.1434564825515
 s    1 1.00
             0.1687144                   1
 p    3 1.00
             7.8682724   0.068999095584993
             1.8812885    0.31642397975315
             0.5442493    0.74430825237435
 p    1 1.00
             0.1687144                   1
 d    1 1.00
                   0.8                   1

21 0
 s    6 1.00
             3047.5249  0.0018347001629433
             457.36951    0.01403730124668
             103.94869   0.068842606114048
             29.210155    0.23218442062076
              9.286663    0.46794134155879
              3.163927    0.36231203217765
 s    3 1.00
             7.8682724   -0.11933240861517
             1.8812885   -0.16085421161283
             0.5442493     1.1434564825515
 s    1 1.00
             0.1687144                   1
 p    3 1.00
             7.8682724   0.068999095584993
             1.8812885    0.31642397975315
             0.5442493    0.74430825237435
 p    1 1.00
             0.1687144                   1
 d    1 1.00
                   0.8                   1

22 0
 s    3 1.00
             18.731137    0.03349459952309
             2.8253937    0.23472694665786
             0.6401217    0.81375731841339
 s    1 1.00
             0.1612778                   1

23 0
 s    3 1.00
             18.731137    0.03349459952309
             2.8253937    0.23472694665786
             0.6401217    0.81375731841339
 s    1 1.00
             0.1612778                   1

24 0
 s    3 1.00
             18.731137    0.03349459952309
             2.8253937    0.23472694665786
             0.6401217    0.81375731841339
 s    1 1.00
             0.1612778                   1

25 0
 s    3 1.00
             18.731137    0.03349459952309
             2.8253937    0.23472694665786
             0.6401217    0.81375731841339
 s    1 1.00
             0.1612778                   1

26 0
 s    3 1.00
             18.731137    0.03349459952309
             2.8253937    0.23472694665786
             0.6401217    0.81375731841339
 s    1 1.00
             0.1612778                   1

27 0
 s    3 1.00
             18.731137    0.03349459952309
             2.8253937    0.23472694665786
             0.6401217    0.81375731841339
 s    1 1.00
             0.1612778                   1

28 0
 s    3 1.00
             18.731137    0.03349459952309
             2.8253937    0.23472694665786
             0.6401217    0.81375731841339
 s    1 1.00
             0.1612778                   1

29 0
 s    3 1.00
             18.731137    0.03349459952309
             2.8253937    0.23472694665786
             0.6401217    0.81375731841339
 s    1 1.00
             0.1612778                   1

30 0
 s    3 1.00
             18.731137    0.03349459952309
             2.8253937    0.23472694665786
             0.6401217    0.81375731841339
 s    1 1.00
             0.1612778                   1

31 0
 s    3 1.00
             18.731137    0.03349459952309
             2.8253937    0.23472694665786
             0.6401217    0.81375731841339
 s    1 1.00
             0.1612778                   1

32 0
 s    3 1.00
             18.731137    0.03349459952309
             2.8253937    0.23472694665786
             0.6401217    0.81375731841339
 s    1 1.00
             0.1612778                   1

33 0
 s    6 1.00
             3047.5249  0.0018347001629433
             457.36951    0.01403730124668
             103.94869   0.068842606114048
             29.210155    0.23218442062076
              9.286663    0.46794134155879
              3.163927    0.36231203217765
 s    3 1.00
             7.8682724   -0.11933240861517
             1.8812885   -0.16085421161283
             0.5442493     1.1434564825515
 s    1 1.00
             0.1687144                   1
 p    3 1.00
             7.8682724   0.068999095584993
             1.8812885    0.31642397975315
             0.5442493    0.74430825237435
 p    1 1.00
             0.1687144                   1
 d    1 1.00
                   0.8                   1

34 0
 s    6 1.00
             3047.5249  0.0018347001629433
             457.36951    0.01403730124668
             103.94869   0.068842606114048
             29.210155    0.23218442062076
              9.286663    0.46794134155879
              3.163927    0.36231203217765
 s    3 1.00
             7.8682724   -0.11933240861517
             1.8812885   -0.16085421161283
             0.5442493     1.1434564825515
 s    1 1.00
             0.1687144                   1
 p    3 1.00
             7.8682724   0.068999095584993
             1.8812885    0.31642397975315
             0.5442493    0.74430825237435
 p    1 1.00
             0.1687144                   1
 d    1 1.00
                   0.8                   1

35 0
 s    3 1.00
             18.731137    0.03349459952309
             2.8253937    0.23472694665786
             0.6401217    0.81375731841339
 s    1 1.00
             0.1612778                   1

36 0
 s    6 1.00
             3047.5249  0.0018347001629433
             457.36951    0.01403730124668
             103.94869   0.068842606114048
             29.210155    0.23218442062076
              9.286663    0.46794134155879
              3.163927    0.36231203217765
 s    3 1.00
             7.8682724   -0.11933240861517
             1.8812885   -0.16085421161283
             0.5442493     1.1434564825515
 s    1 1.00
             0.1687144                   1
 p    3 1.00
             7.8682724   0.068999095584993
             1.8812885    0.31642397975315
             0.5442493    0.74430825237435
 p    1 1.00
             0.1687144                   1
 d    1 1.00
                   0.8                   1

37 0
 s    3 1.00
             18.731137    0.03349459952309
             2.8253937    0.23472694665786
             0.6401217    0.81375731841339
 s    1 1.00
             0.1612778                   1

38 0
 s    3 1.00
             18.731137    0.03349459952309
             2.8253937    0.23472694665786
             0.6401217    0.81375731841339
 s    1 1.00
             0.1612778                   1

39 0
 s    6 1.00
             3047.5249  0.0018347001629433
             457.36951    0.01403730124668
             103.94869   0.068842606114048
             29.210155    0.23218442062076
              9.286663    0.46794134155879
              3.163927    0.36231203217765
 s    3 1.00
             7.8682724   -0.11933240861517
             1.8812885   -0.16085421161283
             0.5442493     1.1434564825515
 s    1 1.00
             0.1687144                   1
 p    3 1.00
             7.8682724   0.068999095584993
             1.8812885    0.31642397975315
             0.5442493    0.74430825237435
 p    1 1.00
             0.1687144                   1
 d    1 1.00
                   0.8                   1

40 0
 s    6 1.00
             3047.5249  0.0018347001629433
             457.36951    0.01403730124668
             103.94869   0.068842606114048
             29.210155    0.23218442062076
              9.286663    0.46794134155879
              3.163927    0.36231203217765
 s    3 1.00
             7.8682724   -0.11933240861517
             1.8812885   -0.16085421161283
             0.5442493     1.1434564825515
 s    1 1.00
             0.1687144                   1
 p    3 1.00
             7.8682724   0.068999095584993
             1.8812885    0.31642397975315
             0.5442493    0.74430825237435
 p    1 1.00
             0.1687144                   1
 d    1 1.00
                   0.8                   1

41 0
 s    3 1.00
             18.731137    0.03349459952309
             2.8253937    0.23472694665786
             0.6401217    0.81375731841339
 s    1 1.00
             0.1612778                   1

42 0
 s    6 1.00
             5484.6717   0.001831099805527
             825.23495   0.013950098518422
             188.04696    0.06844509273075
               52.9645    0.23271427528445
              16.89757    0.47019295006289
             5.7996353    0.35852086192309
 s    3 1.00
             15.539616   -0.11077750382508
             3.5999336   -0.14802630511126
             1.0137618     1.1307670390447
 s    1 1.00
             0.2700058                   1
 p    3 1.00
             15.539616   0.070874299543311
             3.5999336    0.33975279781076
             1.0137618    0.72715859531445
 p    1 1.00
             0.2700058                   1
 d    1 1.00
                   0.8                   1

43 0
 s    3 1.00
             18.731137    0.03349459952309
             2.8253937    0.23472694665786
             0.6401217    0.81375731841339
 s    1 1.00
             0.1612778                   1

[5d]
[7f]
[9g]

[MO]
 Sym= A
 Ene=               0
 Spin= Alpha
 Occup=    1.00000
   1    -3.8024280506533e-06
   2    -2.5327767381979e-07
   3    -6.6372243327475e-05
   4    -5.0312822947519e-06
   5    -1.480048920451e-05
   6    -2.7080195002422e-06
   7    9.3486125888382e-05
   8    0.0001174197566434
   9    -0.00021465242302848
  10    6.7782636095627e-06
  11    7.3862026386896e-06
  12    -5.0302258637828e-07
  13    -1.1671842919677e-06
  14    1.2208087038713e-06
  15    -1.1505808657229e-05
  16    -1.8578163298862e-05
  17    5.4443070046476e-06
  18    -1.3954047852643e-05
  19    -0.00078087434027817
  20    -1.9522940361718e-05
  21    2.7801530383244e-06
  22    4.6535757690811e-05
  23    -0.00017623699255383
  24    -4.6439881079509e-05
  25    0.00041645184009437
  26    -2.0817455450704e-05
  27    1.1122888120709e-05
  28    1.0351760443505e-05
  29    -1.6815734425719e-05
  30    1.6891622294976e-05
  31    -9.8963789241911e-07
  32    1.6973133797442e-05
  33    -5.5598210753952e-05
  34    -0.00013639658605854
  35    0.0028303791616433
  36    1.1610090518733e-05
  37    -3.654523544382e-05
  38    -0.00015439607480981
  39    -0.00063591484063051
  40    -0.00087826012047283
  41    -0.00072599406851484
  42    7.4440534211905e-05
  43    -6.6852370799395e-06
  44    4.9324877915365e-05
  45    -9.4733003459103e-06
  46    2.5439572330003e-05
  47     9.78761816064e-06
  48    0.00016601868230926
  49    5.3776533997848e-05
  50    -0.00025068710495274
  51    -0.0022560402189648
  52    1.3476213127419e-05
  53    0.00015386534028605
  54    0.00042924066375252
  55    -0.00029616342296093
  56    -0.00098219493259059
  57    -0.0019133662448545
  58    -4.4123926348924e-05
  59    -6.2974631286436e-05
  60    -8.0751735112497e-05
  61    1.8874076785446e-05
  62    4.9085133766863e-05
  63    -0.00027803685644222
  64    -9.3182399110661e-05
  65    2.0875431939035e-08
  66    6.1726172315817e-07
  67    -3.0737562555005e-08
  68    -2.6478079976584e-07
  69    -9.141451242998e-07
  70    1.9018107625802e-07
  71    -2.1625861502636e-07
  72    1.082672382696e-07
  73    6.925650759832e-07
  74    -1.571736638805e-07
  75    -8.5756017916301e-07
  76    8.1033801967063e-08
  77    4.9602640065689e-08
  78    3.0007789774667e-08
  79    9.9640754700402e-09
  80    4.148087044103e-08
  81    4.0916617362345e-08
  82    1.9791042480412e-07
  83    6.5677522741517e-08
  84    5.2110950862297e-07
  85    -1.1532247144759e-06
  86    2.5554476416714e-08
  87    -6.1683932375528e-08
  88    6.1799601624394e-08
  89    7.6835713867924e-07
  90    -1.4915684145413e-06
  91    -1.6904991644556e-07
  92    -5.5350416229508e-08
  93    -9.9244943294364e-08
  94    2.1015568675195e-07
  95    -9.0492102848144e-08
  96    1.3622376721893e-08
  97    2.4322852630913e-07
  98    -9.0450972404817e-08
  99    -3.0345498240336e-08
 100    -1.8540277275661e-07
 101    -1.2304481104089e-07
 102    -3.1220362379991e-07
 103    1.8358833687689e-05
 104    -8.1005936647881e-08
 105    3.7578961776945e-07
 106    -6.3893990641694e-07
 107    -6.1416230933668e-06
 108    7.3538315496496e-06
 109    -4.3765031649599e-06
 110    2.9103108389801e-07
 111    4.1828706003463e-07
 112    -1.9236530532963e-07
 113    -3.6297064490296e-07
 114    -4.0212862938333e-07
 115    2.1910047626906e-07
 116    2.1307820748909e-06
 117    -8.7740598378691e-06
 118    1.6096851804178e-08
 119    1.3414477645497e-07
 120    -4.5813503277373e-07
 121    1.8581898414189e-06
 122    -2.1751497313983e-06
 123    5.4887167890154e-06
 124    1.4686724823912e-07
 125    -2.0871629012489e-07
 126    -1.1428313881713e-07
 127    1.5688943411737e-08
 128    -4.0309421914805e-08
 129    2.2037188464223e-07
 130    2.7277227319127e-06
 131    8.6358069307863e-06
 132    1.5301219114464e-06
 133    9.9413036007523e-07
 134    -1.9710534565542e-06
 135    -2.6714409416445e-05
 136    1.3913076206149e-07
 137    2.8847791719004e-07
 138    -8.3122898812735e-08
 139    1.3903385893666e-07
 140    7.102847928962e-07
 141    -1.443280196138e-07
 142    4.6652525985027e-07
 143    -2.0272854529527e-08
 144    -6.7375788501893e-07
 145    -9.4080250277489e-06
 146    -1.9702929773683e-07
 147    -6.470400800344e-07
 148    1.4244056397092e-06
 149    -3.7038297831359e-06
 150    1.2882681644649e-05
 151    -6.3844358842943e-06
 152    -5.1441637088276e-08
 153    5.1621371152028e-08
 154    -5.9571314289219e-07
 155    -1.5310061575568e-07
 156    -2.5379049587996e-07
 157    1.8506872773145e-07
 158    1.4422364598284e-06
 159    -1.0627731335552e-05
 160    -8.4007391682418e-08
 161    3.7168687371373e-07
 162    -4.2228150249872e-07
 163    -2.458926326831e-06
 164    4.0925600054919e-06
 165    5.0050897165664e-07
 166    3.0798553365149e-07
 167    -1.4435067979055e-07
 168    7.0998462180343e-08
 169    1.690011663967e-07
 170    2.3188645308229e-07
 171    1.5032563504337e-09
 172    1.218156192157e-07
 173    1.9226988048511e-06
 174    9.9009022989541e-08
 175    -6.1641810099849e-08
 176    2.9420682157751e-07
 177    3.7023021931286e-06
 178    1.1705879847206e-06
 179    2.2568452548935e-06
 180    -1.431346355026e-07
 181    3.8367766683782e-07
 182    5.2240649832155e-08
 183    2.8428083474379e-07
 184    2.8245617785392e-07
 185    -1.5111069369796e-07
 186    -1.2051892740013e-06
 187    7.5697602072702e-06
 188    -2.766340534495e-07
 189    -4.4726137468388e-08
 190    -1.7020375801154e-07
 191    -8.3699242287371e-07
 192    -3.3861698666934e-06
 193    -2.5893815822144e-06
 194    5.4605832278675e-08
 195    2.4131179534381e-07
 196    4.6901290627592e-07
 197    -1.2168202980768e-07
 198    1.1217061227837e-07
 199    -3.4235853054656e-07
 200    8.7608059952147e-07
 201    -1.4751169708528e-07
 202    -1.5803978494379e-07
 203    1.8624088203186e-07
 204    -1.0103287924014e-06
 205    8.5043603614149e-07
 206    4.8822139945018e-07
 207    -8.0690503813327e-07
 208    9.3855621182361e-06
 209    5.9121788378025e-07
 210    7.6158862336782e-07
 211    5.8743320819949e-07
 212    5.1258100491618e-07
 213    1.6553669150543e-07
 214    -6.2579571047708e-07
 215    -6.9443261938379e-07
 216    5.0916450068361e-06
 217    1.2613714782068e-07
 218    -2.1583446488574e-07
 219    2.1552627303018e-07
 220    -9.1042445820812e-07
 221    -8.1012514111845e-07
 222    -4.900476829242e-06
 223    6.8289926149964e-05
 224    2.0906307098365e-06
 225    -9.4820994509261e-07
 226    -2.1380362744801e-07
 227    5.7924256122494e-06
 228    1.1002950499032e-05
 229    -6.6469317575371e-05
 230    1.9738189987015e-06
 231    -2.1471551666057e-06
 232    -1.3040740723947e-06
 233    7.122845186328e-07
 234    3.3657186414074e-08
 235    2.410152687038e-06
 236    1.6523436851834e-05
 237    -0.00022721137979315
 238    -9.7571496306233e-07
 239    -3.2794740816179e-06
 240    3.8912962674699e-06
 241    7.0571517109566e-05
 242    2.0998394411643e-05
 243    5.5534215645313e-05
 244    -7.0244742988369e-06
 245    -2.9844205387756e-07
 246    6.5103398625933e-07
 247    -7.667098467188e-07
 248    -2.0599568276671e-06
 249    -3.0610910188263e-06
 250    -8.8002426035525e-06
 251    -1.3185949835222e-06
 252    -1.2731997302607e-05
 253    0.00030042632733558
 254    -7.7439717600088e-06
 255    8.6075415669218e-06
 256    -9.1845724238869e-06
 257    0.00013204079430414
 258    -1.4872032560941e-05
 259    6.5824513782779e-05
 260    6.5600788289241e-06
 261    2.2847832071231e-07
 262    4.1188874505483e-08
 263    1.439896572985e-06
 264    -2.4030194003583e-06
 265    -7.7840711448159e-07
 266    -7.2824613889235e-06
 267    9.545525334919e-06
 268    1.1436809550524e-05
 269    4.5418132759799e-05
 270    -8.6371248366533e-05
 271    -0.0018943335296437
 272    0.00016246794521374
 273    0.00012452267410259
 274    -0.00010823563285935
 275    -0.00093680942131177
 276    -0.00040787189939074
 277    0.0019759344167855
 278    -0.00020896244418391
 279    7.7192224324687e-05