[Molden Format]
made by pyscf v[2.0.1]
[Atoms] (AU)
C   1   6     0.69100024066471     0.64692934207205    -3.48223131169301
H   2   1     2.68052439830868     1.13355088658700    -3.25784032593313
C   3   6    -0.36286361513219     0.85440132524594    -5.97030179418974
H   4   1    -2.35448549047279     0.36322488579172    -6.17995817793143
C   5   6     0.93697958957450     1.61209284601821    -8.05828437677121
H   6   1     1.06549067678056     3.62267689696451    -8.48487489511106
C   7   6     2.16736557798100    -0.10534186648568    -9.75912299477448
H   8   1     2.02320928491733    -2.11383137749881    -9.30645195914250
H   9   1     1.55630230933075    -1.92953025305990    12.99630010416247
C   10   6     0.75233899775814    -2.21270439606481    11.10705728102219
H   11   1    -0.43433408177274    -3.90944857546550    11.22216085340412
C   12   6     2.86362581178706    -2.63237380607947     9.17926416456045
H   13   1     4.39038949912609    -1.24955421540245     9.49899813497433
H   14   1     3.74629220191363    -4.48798724300892     9.47414880959024
C   15   6     2.02478325613682    -2.42177285709634     6.44560829588644
C   16   6     3.88048732735477    -3.58795445234514     4.61402886975252
C   17   6    -0.18412382258602    -1.30464291234259     5.76021113872346
C   18   6    -2.10044360464350    -0.26837831858460     7.71610340967100
C   19   6    -3.08956938670431     2.35282328359417     6.88693925039594
C   20   6    -4.37372924086464    -2.09766595989678     7.93610724222001
C   21   6    -0.83850430601230     0.06372213486173    10.33002307638377
H   22   1     0.38411922151109     1.74281358582432    10.27380136542181
H   23   1    -2.30980003007874     0.45460143924521    11.73986301809809
H   24   1     4.58527064644668    -5.38706904487420     5.36778158031719
H   25   1     5.54944938085014    -2.37631462192748     4.35398898413318
H   26   1     3.06633019150423    -3.94118377050688     2.75255466040884
H   27   1    -4.17727778763735     2.26573369139522     5.12914900961283
H   28   1    -1.52662344944051     3.68001877445626     6.59540397144508
H   29   1    -4.32916174397830     3.13643051467482     8.35225460090378
H   30   1    -5.32329548508442    -2.36691813602939     6.11583672749896
H   31   1    -5.77989366602257    -1.33896741843465     9.25748940450990
H   32   1    -3.79310905208926    -3.96389819310853     8.61386170102686
C   33   6    -1.01100794811226    -1.06331657314144     3.11929490449947
C   34   6     0.37686231036534    -0.33275864505552     1.09165013605873
H   35   1    -3.01671213906703    -1.40297922279997     2.77827895090944
C   36   6    -0.64382707979370    -0.11591880174385    -1.42063131251064
H   37   1     2.35569259782137     0.17174499283897     1.33641070251401
H   38   1    -2.63317482980319    -0.60229203511219    -1.66119700387645
C   39   6     3.47875288242203     0.56169257871714   -11.85961387583028
C   40   6     4.66516051155728    -1.33401759756945   -13.47384510134906
H   41   1     3.69428385946791     2.52875803282145   -12.41815504578381
O   42   8     5.86788117255002    -0.86880199432758   -15.38639878207248
H   43   1     4.39675898316744    -3.32256790318547   -12.83056660829343
[GTO]
1 0
 s    6 1.00
             3047.5249  0.0018347001629433
             457.36951    0.01403730124668
             103.94869   0.068842606114048
             29.210155    0.23218442062076
              9.286663    0.46794134155879
              3.163927    0.36231203217765
 s    3 1.00
             7.8682724   -0.11933240861517
             1.8812885   -0.16085421161283
             0.5442493     1.1434564825515
 s    1 1.00
             0.1687144                   1
 p    3 1.00
             7.8682724   0.068999095584993
             1.8812885    0.31642397975315
             0.5442493    0.74430825237435
 p    1 1.00
             0.1687144                   1
 d    1 1.00
                   0.8                   1

2 0
 s    3 1.00
             18.731137    0.03349459952309
             2.8253937    0.23472694665786
             0.6401217    0.81375731841339
 s    1 1.00
             0.1612778                   1

3 0
 s    6 1.00
             3047.5249  0.0018347001629433
             457.36951    0.01403730124668
             103.94869   0.068842606114048
             29.210155    0.23218442062076
              9.286663    0.46794134155879
              3.163927    0.36231203217765
 s    3 1.00
             7.8682724   -0.11933240861517
             1.8812885   -0.16085421161283
             0.5442493     1.1434564825515
 s    1 1.00
             0.1687144                   1
 p    3 1.00
             7.8682724   0.068999095584993
             1.8812885    0.31642397975315
             0.5442493    0.74430825237435
 p    1 1.00
             0.1687144                   1
 d    1 1.00
                   0.8                   1

4 0
 s    3 1.00
             18.731137    0.03349459952309
             2.8253937    0.23472694665786
             0.6401217    0.81375731841339
 s    1 1.00
             0.1612778                   1

5 0
 s    6 1.00
             3047.5249  0.0018347001629433
             457.36951    0.01403730124668
             103.94869   0.068842606114048
             29.210155    0.23218442062076
              9.286663    0.46794134155879
              3.163927    0.36231203217765
 s    3 1.00
             7.8682724   -0.11933240861517
             1.8812885   -0.16085421161283
             0.5442493     1.1434564825515
 s    1 1.00
             0.1687144                   1
 p    3 1.00
             7.8682724   0.068999095584993
             1.8812885    0.31642397975315
             0.5442493    0.74430825237435
 p    1 1.00
             0.1687144                   1
 d    1 1.00
                   0.8                   1

6 0
 s    3 1.00
             18.731137    0.03349459952309
             2.8253937    0.23472694665786
             0.6401217    0.81375731841339
 s    1 1.00
             0.1612778                   1

7 0
 s    6 1.00
             3047.5249  0.0018347001629433
             457.36951    0.01403730124668
             103.94869   0.068842606114048
             29.210155    0.23218442062076
              9.286663    0.46794134155879
              3.163927    0.36231203217765
 s    3 1.00
             7.8682724   -0.11933240861517
             1.8812885   -0.16085421161283
             0.5442493     1.1434564825515
 s    1 1.00
             0.1687144                   1
 p    3 1.00
             7.8682724   0.068999095584993
             1.8812885    0.31642397975315
             0.5442493    0.74430825237435
 p    1 1.00
             0.1687144                   1
 d    1 1.00
                   0.8                   1

8 0
 s    3 1.00
             18.731137    0.03349459952309
             2.8253937    0.23472694665786
             0.6401217    0.81375731841339
 s    1 1.00
             0.1612778                   1

9 0
 s    3 1.00
             18.731137    0.03349459952309
             2.8253937    0.23472694665786
             0.6401217    0.81375731841339
 s    1 1.00
             0.1612778                   1

10 0
 s    6 1.00
             3047.5249  0.0018347001629433
             457.36951    0.01403730124668
             103.94869   0.068842606114048
             29.210155    0.23218442062076
              9.286663    0.46794134155879
              3.163927    0.36231203217765
 s    3 1.00
             7.8682724   -0.11933240861517
             1.8812885   -0.16085421161283
             0.5442493     1.1434564825515
 s    1 1.00
             0.1687144                   1
 p    3 1.00
             7.8682724   0.068999095584993
             1.8812885    0.31642397975315
             0.5442493    0.74430825237435
 p    1 1.00
             0.1687144                   1
 d    1 1.00
                   0.8                   1

11 0
 s    3 1.00
             18.731137    0.03349459952309
             2.8253937    0.23472694665786
             0.6401217    0.81375731841339
 s    1 1.00
             0.1612778                   1

12 0
 s    6 1.00
             3047.5249  0.0018347001629433
             457.36951    0.01403730124668
             103.94869   0.068842606114048
             29.210155    0.23218442062076
              9.286663    0.46794134155879
              3.163927    0.36231203217765
 s    3 1.00
             7.8682724   -0.11933240861517
             1.8812885   -0.16085421161283
             0.5442493     1.1434564825515
 s    1 1.00
             0.1687144                   1
 p    3 1.00
             7.8682724   0.068999095584993
             1.8812885    0.31642397975315
             0.5442493    0.74430825237435
 p    1 1.00
             0.1687144                   1
 d    1 1.00
                   0.8                   1

13 0
 s    3 1.00
             18.731137    0.03349459952309
             2.8253937    0.23472694665786
             0.6401217    0.81375731841339
 s    1 1.00
             0.1612778                   1

14 0
 s    3 1.00
             18.731137    0.03349459952309
             2.8253937    0.23472694665786
             0.6401217    0.81375731841339
 s    1 1.00
             0.1612778                   1

15 0
 s    6 1.00
             3047.5249  0.0018347001629433
             457.36951    0.01403730124668
             103.94869   0.068842606114048
             29.210155    0.23218442062076
              9.286663    0.46794134155879
              3.163927    0.36231203217765
 s    3 1.00
             7.8682724   -0.11933240861517
             1.8812885   -0.16085421161283
             0.5442493     1.1434564825515
 s    1 1.00
             0.1687144                   1
 p    3 1.00
             7.8682724   0.068999095584993
             1.8812885    0.31642397975315
             0.5442493    0.74430825237435
 p    1 1.00
             0.1687144                   1
 d    1 1.00
                   0.8                   1

16 0
 s    6 1.00
             3047.5249  0.0018347001629433
             457.36951    0.01403730124668
             103.94869   0.068842606114048
             29.210155    0.23218442062076
              9.286663    0.46794134155879
              3.163927    0.36231203217765
 s    3 1.00
             7.8682724   -0.11933240861517
             1.8812885   -0.16085421161283
             0.5442493     1.1434564825515
 s    1 1.00
             0.1687144                   1
 p    3 1.00
             7.8682724   0.068999095584993
             1.8812885    0.31642397975315
             0.5442493    0.74430825237435
 p    1 1.00
             0.1687144                   1
 d    1 1.00
                   0.8                   1

17 0
 s    6 1.00
             3047.5249  0.0018347001629433
             457.36951    0.01403730124668
             103.94869   0.068842606114048
             29.210155    0.23218442062076
              9.286663    0.46794134155879
              3.163927    0.36231203217765
 s    3 1.00
             7.8682724   -0.11933240861517
             1.8812885   -0.16085421161283
             0.5442493     1.1434564825515
 s    1 1.00
             0.1687144                   1
 p    3 1.00
             7.8682724   0.068999095584993
             1.8812885    0.31642397975315
             0.5442493    0.74430825237435
 p    1 1.00
             0.1687144                   1
 d    1 1.00
                   0.8                   1

18 0
 s    6 1.00
             3047.5249  0.0018347001629433
             457.36951    0.01403730124668
             103.94869   0.068842606114048
             29.210155    0.23218442062076
              9.286663    0.46794134155879
              3.163927    0.36231203217765
 s    3 1.00
             7.8682724   -0.11933240861517
             1.8812885   -0.16085421161283
             0.5442493     1.1434564825515
 s    1 1.00
             0.1687144                   1
 p    3 1.00
             7.8682724   0.068999095584993
             1.8812885    0.31642397975315
             0.5442493    0.74430825237435
 p    1 1.00
             0.1687144                   1
 d    1 1.00
                   0.8                   1

19 0
 s    6 1.00
             3047.5249  0.0018347001629433
             457.36951    0.01403730124668
             103.94869   0.068842606114048
             29.210155    0.23218442062076
              9.286663    0.46794134155879
              3.163927    0.36231203217765
 s    3 1.00
             7.8682724   -0.11933240861517
             1.8812885   -0.16085421161283
             0.5442493     1.1434564825515
 s    1 1.00
             0.1687144                   1
 p    3 1.00
             7.8682724   0.068999095584993
             1.8812885    0.31642397975315
             0.5442493    0.74430825237435
 p    1 1.00
             0.1687144                   1
 d    1 1.00
                   0.8                   1

20 0
 s    6 1.00
             3047.5249  0.0018347001629433
             457.36951    0.01403730124668
             103.94869   0.068842606114048
             29.210155    0.23218442062076
              9.286663    0.46794134155879
              3.163927    0.36231203217765
 s    3 1.00
             7.8682724   -0.11933240861517
             1.8812885   -0.16085421161283
             0.5442493     1.1434564825515
 s    1 1.00
             0.1687144                   1
 p    3 1.00
             7.8682724   0.068999095584993
             1.8812885    0.31642397975315
             0.5442493    0.74430825237435
 p    1 1.00
             0.1687144                   1
 d    1 1.00
                   0.8                   1

21 0
 s    6 1.00
             3047.5249  0.0018347001629433
             457.36951    0.01403730124668
             103.94869   0.068842606114048
             29.210155    0.23218442062076
              9.286663    0.46794134155879
              3.163927    0.36231203217765
 s    3 1.00
             7.8682724   -0.11933240861517
             1.8812885   -0.16085421161283
             0.5442493     1.1434564825515
 s    1 1.00
             0.1687144                   1
 p    3 1.00
             7.8682724   0.068999095584993
             1.8812885    0.31642397975315
             0.5442493    0.74430825237435
 p    1 1.00
             0.1687144                   1
 d    1 1.00
                   0.8                   1

22 0
 s    3 1.00
             18.731137    0.03349459952309
             2.8253937    0.23472694665786
             0.6401217    0.81375731841339
 s    1 1.00
             0.1612778                   1

23 0
 s    3 1.00
             18.731137    0.03349459952309
             2.8253937    0.23472694665786
             0.6401217    0.81375731841339
 s    1 1.00
             0.1612778                   1

24 0
 s    3 1.00
             18.731137    0.03349459952309
             2.8253937    0.23472694665786
             0.6401217    0.81375731841339
 s    1 1.00
             0.1612778                   1

25 0
 s    3 1.00
             18.731137    0.03349459952309
             2.8253937    0.23472694665786
             0.6401217    0.81375731841339
 s    1 1.00
             0.1612778                   1

26 0
 s    3 1.00
             18.731137    0.03349459952309
             2.8253937    0.23472694665786
             0.6401217    0.81375731841339
 s    1 1.00
             0.1612778                   1

27 0
 s    3 1.00
             18.731137    0.03349459952309
             2.8253937    0.23472694665786
             0.6401217    0.81375731841339
 s    1 1.00
             0.1612778                   1

28 0
 s    3 1.00
             18.731137    0.03349459952309
             2.8253937    0.23472694665786
             0.6401217    0.81375731841339
 s    1 1.00
             0.1612778                   1

29 0
 s    3 1.00
             18.731137    0.03349459952309
             2.8253937    0.23472694665786
             0.6401217    0.81375731841339
 s    1 1.00
             0.1612778                   1

30 0
 s    3 1.00
             18.731137    0.03349459952309
             2.8253937    0.23472694665786
             0.6401217    0.81375731841339
 s    1 1.00
             0.1612778                   1

31 0
 s    3 1.00
             18.731137    0.03349459952309
             2.8253937    0.23472694665786
             0.6401217    0.81375731841339
 s    1 1.00
             0.1612778                   1

32 0
 s    3 1.00
             18.731137    0.03349459952309
             2.8253937    0.23472694665786
             0.6401217    0.81375731841339
 s    1 1.00
             0.1612778                   1

33 0
 s    6 1.00
             3047.5249  0.0018347001629433
             457.36951    0.01403730124668
             103.94869   0.068842606114048
             29.210155    0.23218442062076
              9.286663    0.46794134155879
              3.163927    0.36231203217765
 s    3 1.00
             7.8682724   -0.11933240861517
             1.8812885   -0.16085421161283
             0.5442493     1.1434564825515
 s    1 1.00
             0.1687144                   1
 p    3 1.00
             7.8682724   0.068999095584993
             1.8812885    0.31642397975315
             0.5442493    0.74430825237435
 p    1 1.00
             0.1687144                   1
 d    1 1.00
                   0.8                   1

34 0
 s    6 1.00
             3047.5249  0.0018347001629433
             457.36951    0.01403730124668
             103.94869   0.068842606114048
             29.210155    0.23218442062076
              9.286663    0.46794134155879
              3.163927    0.36231203217765
 s    3 1.00
             7.8682724   -0.11933240861517
             1.8812885   -0.16085421161283
             0.5442493     1.1434564825515
 s    1 1.00
             0.1687144                   1
 p    3 1.00
             7.8682724   0.068999095584993
             1.8812885    0.31642397975315
             0.5442493    0.74430825237435
 p    1 1.00
             0.1687144                   1
 d    1 1.00
                   0.8                   1

35 0
 s    3 1.00
             18.731137    0.03349459952309
             2.8253937    0.23472694665786
             0.6401217    0.81375731841339
 s    1 1.00
             0.1612778                   1

36 0
 s    6 1.00
             3047.5249  0.0018347001629433
             457.36951    0.01403730124668
             103.94869   0.068842606114048
             29.210155    0.23218442062076
              9.286663    0.46794134155879
              3.163927    0.36231203217765
 s    3 1.00
             7.8682724   -0.11933240861517
             1.8812885   -0.16085421161283
             0.5442493     1.1434564825515
 s    1 1.00
             0.1687144                   1
 p    3 1.00
             7.8682724   0.068999095584993
             1.8812885    0.31642397975315
             0.5442493    0.74430825237435
 p    1 1.00
             0.1687144                   1
 d    1 1.00
                   0.8                   1

37 0
 s    3 1.00
             18.731137    0.03349459952309
             2.8253937    0.23472694665786
             0.6401217    0.81375731841339
 s    1 1.00
             0.1612778                   1

38 0
 s    3 1.00
             18.731137    0.03349459952309
             2.8253937    0.23472694665786
             0.6401217    0.81375731841339
 s    1 1.00
             0.1612778                   1

39 0
 s    6 1.00
             3047.5249  0.0018347001629433
             457.36951    0.01403730124668
             103.94869   0.068842606114048
             29.210155    0.23218442062076
              9.286663    0.46794134155879
              3.163927    0.36231203217765
 s    3 1.00
             7.8682724   -0.11933240861517
             1.8812885   -0.16085421161283
             0.5442493     1.1434564825515
 s    1 1.00
             0.1687144                   1
 p    3 1.00
             7.8682724   0.068999095584993
             1.8812885    0.31642397975315
             0.5442493    0.74430825237435
 p    1 1.00
             0.1687144                   1
 d    1 1.00
                   0.8                   1

40 0
 s    6 1.00
             3047.5249  0.0018347001629433
             457.36951    0.01403730124668
             103.94869   0.068842606114048
             29.210155    0.23218442062076
              9.286663    0.46794134155879
              3.163927    0.36231203217765
 s    3 1.00
             7.8682724   -0.11933240861517
             1.8812885   -0.16085421161283
             0.5442493     1.1434564825515
 s    1 1.00
             0.1687144                   1
 p    3 1.00
             7.8682724   0.068999095584993
             1.8812885    0.31642397975315
             0.5442493    0.74430825237435
 p    1 1.00
             0.1687144                   1
 d    1 1.00
                   0.8                   1

41 0
 s    3 1.00
             18.731137    0.03349459952309
             2.8253937    0.23472694665786
             0.6401217    0.81375731841339
 s    1 1.00
             0.1612778                   1

42 0
 s    6 1.00
             5484.6717   0.001831099805527
             825.23495   0.013950098518422
             188.04696    0.06844509273075
               52.9645    0.23271427528445
              16.89757    0.47019295006289
             5.7996353    0.35852086192309
 s    3 1.00
             15.539616   -0.11077750382508
             3.5999336   -0.14802630511126
             1.0137618     1.1307670390447
 s    1 1.00
             0.2700058                   1
 p    3 1.00
             15.539616   0.070874299543311
             3.5999336    0.33975279781076
             1.0137618    0.72715859531445
 p    1 1.00
             0.2700058                   1
 d    1 1.00
                   0.8                   1

43 0
 s    3 1.00
             18.731137    0.03349459952309
             2.8253937    0.23472694665786
             0.6401217    0.81375731841339
 s    1 1.00
             0.1612778                   1

[5d]
[7f]
[9g]

[MO]
 Sym= A
 Ene=               0
 Spin= Alpha
 Occup=    1.00000
   1    2.1514028254224e-07
   2    -1.4370213994958e-05
   3    5.8117272879333e-06
   4    9.7810546612261e-07
   5    -1.0125928176283e-05
   6    1.3177690451248e-05
   7    1.9060794706203e-05
   8    4.6797339029971e-05
   9    -0.00021986554274633
  10    4.2939317512109e-07
  11    6.0870059580809e-06
  12    8.890767205443e-07
  13    7.6353975868847e-06
  14    -4.1263651429659e-06
  15    -8.996096101442e-06
  16    9.1697025883287e-06
  17    2.7454719432688e-06
  18    0.00010061184987292
  19    0.00024754997192373
  20    3.5352852298935e-05
  21    4.5090214972917e-06
  22    -4.9266271796329e-05
  23    9.4607981043756e-05
  24    -5.7488424058192e-05
  25    -0.0003635452517016
  26    1.0073923879927e-05
  27    -1.2153893409792e-05
  28    4.3656429825099e-06
  29    2.3595606674467e-05
  30    -7.3818757431188e-07
  31    -5.6253776171309e-06
  32    1.8571842082991e-05
  33    5.511541675205e-05
  34    0.00014891495030884
  35    -0.0025859933084799
  36    -7.6324761904295e-05
  37    6.6604448696689e-05
  38    0.00014309810215033
  39    -0.00026822181899774
  40    0.0011491795875424
  41    0.00033694978227622
  42    -1.3557429936241e-05
  43    6.1432638609025e-05
  44    -4.1461778853597e-05
  45    1.8800022739902e-05
  46    3.144328593611e-05
  47    -4.782667677909e-06
  48    -0.00015095897276889
  49    -5.2328976671125e-05
  50    0.00026108609085551
  51    0.0021228229155551
  52    0.00021819530524328
  53    -0.00024244775926014
  54    -0.00032252016220967
  55    -0.00094671386475859
  56    0.0013982783301949
  57    0.0012890441940665
  58    -1.0477999666263e-05
  59    1.7504662023724e-05
  60    0.00010058434028403
  61    8.0588632180507e-06
  62    -6.3491994306183e-05
  63    0.00027796999934653
  64    8.797137863904e-05
  65    -1.0985567011681e-07
  66    -9.9025747077032e-08
  67    -1.4134559921528e-08
  68    -3.736619432455e-07
  69    1.655730580592e-06
  70    9.2050661721597e-08
  71    -1.6855727257066e-07
  72    1.2199030593244e-07
  73     7.48037179761e-08
  74    9.888440276428e-07
  75    -2.8548415498945e-08
  76    -2.760490491418e-08
  77    -6.2593643165259e-08
  78    2.6276833937717e-08
  79    4.3012643897869e-08
  80    -5.4991509978638e-08
  81    5.1167557936024e-08
  82    1.3826825168583e-07
  83    2.5500201373931e-08
  84    -9.1354592340697e-08
  85    -7.7978305946643e-06
  86    4.6487857782546e-07
  87    1.1305042192497e-07
  88    5.3946494597386e-07
  89    2.0554798978264e-06
  90    -2.7431060270281e-06
  91    1.9173233178041e-06
  92    8.4058885714381e-08
  93    -1.4271468698031e-07
  94    2.2459373490493e-07
  95    2.8954507395037e-08
  96    -6.9843197179542e-08
  97    5.2723004635096e-07
  98    6.8915992007798e-07
  99    -7.065661919246e-08
 100    -7.2154011728486e-07
 101    -8.6409784328427e-08
 102    -4.7123741946594e-07
 103    8.8029809524684e-06
 104    -3.4615945876996e-07
 105    -1.0500783505962e-06
 106    -3.9532625106308e-07
 107    -1.1387469433397e-05
 108    9.7754985751508e-06
 109    1.7147394427817e-05
 110    -3.3052443394665e-07
 111    -3.0139301616858e-07
 112    1.4200793335415e-07
 113    2.4096425290085e-07
 114    -2.750230643874e-07
 115    -3.1752221870631e-07
 116    -2.4282187313566e-06
 117    2.0780423034667e-05
 118    -4.4541284962527e-07
 119    6.8854703118201e-07
 120    2.5488071777222e-07
 121    -4.6636337220767e-06
 122    3.5732528386109e-07
 123    1.2981005114524e-06
 124    -3.4535473646551e-08
 125    -1.3755821333451e-07
 126    -8.317765149701e-08
 127    7.2223062896242e-08
 128    -1.7443392021819e-07
 129    -4.9299419533616e-07
 130    -5.0812812762714e-06
 131    2.8699364667997e-05
 132    1.1524676024893e-07
 133    -6.7192277285621e-07
 134    2.0533222491329e-06
 135    -1.4791652403398e-05
 136    9.4581562461153e-08
 137    -4.555180876124e-05
 138     1.38824444009e-06
 139    8.8797085582137e-07
 140    8.7518480440054e-08
 141    1.9437684009096e-07
 142    2.6146639000741e-08
 143    -1.9759575203761e-07
 144    -2.164994516257e-06
 145    1.0397679715328e-05
 146    5.8054627459513e-08
 147    3.5517422487678e-07
 148    4.1884590936046e-07
 149    6.4346150201901e-06
 150    -3.5499436199708e-06
 151    -1.4514644362403e-06
 152    -5.8170785547084e-07
 153    -1.8820323493997e-07
 154    -7.1422084252064e-08
 155    3.8899100806778e-07
 156    -4.2576174760762e-07
 157    6.9150631870386e-08
 158    4.998452616724e-07
 159    2.8249227448016e-07
 160    4.5210655461721e-07
 161    -1.0951611429992e-07
 162    9.5650875890115e-08
 163    -3.4914688170908e-06
 164    5.2645066024922e-08
 165    5.5645082470964e-07
 166    2.5669252176636e-07
 167    -9.6094247081068e-08
 168    7.6426680342948e-09
 169    -6.4683229082851e-08
 170    1.6327490707945e-07
 171    2.9210806797482e-08
 172    -2.5682609704244e-07
 173    -1.0379658671598e-06
 174    -4.0444497532077e-07
 175    -9.6078144811475e-08
 176    4.1913409102079e-07
 177    -1.3312705031719e-07
 178    9.0368793626715e-07
 179    -1.0813464299412e-06
 180    8.2273209629907e-08
 181    1.3117935129709e-07
 182    1.1170939701278e-08
 183    -2.0861970624535e-07
 184    1.0786061921513e-07
 185    -1.7830137952535e-07
 186    -1.7038663169595e-06
 187    1.317796130196e-06
 188    -1.2033304382811e-07
 189    7.2544143853612e-08
 190    5.4858049012285e-07
 191    1.3195878527943e-06
 192    5.1982975900817e-07
 193    -3.2518649188484e-06
 194    1.887813443803e-07
 195    -6.264363245528e-09
 196    1.0127105363867e-07
 197    3.814918541977e-08
 198    -4.4616263032663e-08
 199    -4.1289950682282e-07
 200    -7.3858359450396e-07
 201    -2.2965701990582e-08
 202    1.7993321472099e-06
 203    -1.1050653031845e-06
 204    -1.3819268811197e-06
 205    -3.4891326524998e-08
 206    -1.1794956730854e-06
 207    7.826524791195e-07
 208    -6.9471417222703e-06
 209    5.5500627087938e-07
 210    -2.4162108434319e-06
 211    2.4996682060437e-07
 212    1.6565225137444e-06
 213    -9.1576416148202e-08
 214    -1.225763135721e-06
 215    -2.9135565255685e-07
 216    5.0003895302761e-07
 217    1.7224314130082e-07
 218    5.3945406436891e-07
 219    1.3639843683079e-07
 220    6.4327415051432e-07
 221    -5.4275095454924e-07
 222    -4.6299441907168e-06
 223    -2.2302589741466e-07
 224     3.70499960454e-08
 225    1.3861768342232e-06
 226    2.0916644279869e-06
 227    7.7320000894552e-06
 228    1.6992790139571e-05
 229    -5.5157174187826e-05
 230    -6.5810822297723e-07
 231    -2.3380775751677e-06
 232    -1.2821974876466e-06
 233    1.0123409230468e-06
 234    1.6961286722999e-06
 235    -4.2669767658276e-07
 236    -6.8322779061623e-06
 237    8.4080174955628e-06
 238    -8.0525618047424e-07
 239    3.1711623563068e-06
 240    3.5872413517428e-06
 241    -1.0930309686451e-05
 242    -2.2886469071964e-06
 243    -5.0878212103847e-05
 244    1.0767490356444e-06
 245    3.7932514722955e-06
 246    1.398149526716e-06
 247    1.4942852472117e-06
 248    8.6388447980118e-07
 249    -2.2516133991791e-06
 250    6.0802310047244e-06
 251    -2.7312685407306e-06
 252    -1.5893082875415e-05
 253    0.0001499311319968
 254    4.8819327896735e-06
 255    -9.454217582281e-06
 256    7.809942613364e-07
 257    6.6437665640619e-05
 258    5.7398729839395e-05
 259    -0.0001379721298091
 260    1.1432361341462e-06
 261    -7.215018678418e-06
 262    -2.7728079345083e-06
 263     4.61598681465e-06
 264    3.3573869215065e-06
 265    -2.9776349156245e-06
 266    1.5641437116418e-05
 267    -4.5406147777306e-06
 268    2.3641743146767e-05
 269    -4.599606240413e-05
 270    7.9033761878499e-05
 271    0.0019263512421897
 272    -0.00010346265238143
 273    -0.00016249902034917
 274    0.00012822256397434
 275    0.0011291806431692
 276    0.00032815449941662
 277    -0.0018326003013223
 278    0.00013705003211673
 279    -0.00012892318176044
 280    7.9976997413385e-05