[Molden Format]
made by pyscf v[2.0.1]
[Atoms] (AU)
C   1   6     0.69100024066471     0.64692934207205    -3.48223131169301
H   2   1     2.68052439830868     1.13355088658700    -3.25784032593313
C   3   6    -0.36286361513219     0.85440132524594    -5.97030179418974
H   4   1    -2.35448549047279     0.36322488579172    -6.17995817793143
C   5   6     0.93697958957450     1.61209284601821    -8.05828437677121
H   6   1     0.01358296644616     2.85086245433209    -9.41980240085128
C   7   6     3.49095983212942     0.86501358647737    -8.58301400036413
H   8   1     4.39173101664678    -0.37544723242066    -7.20113468241566
H   9   1     1.55630230933075    -1.92953025305990    12.99630010416247
C   10   6     0.75233899775814    -2.21270439606481    11.10705728102219
H   11   1    -0.43433408177274    -3.90944857546550    11.22216085340412
C   12   6     2.86362581178706    -2.63237380607947     9.17926416456045
H   13   1     4.39038949912609    -1.24955421540245     9.49899813497433
H   14   1     3.74629220191363    -4.48798724300892     9.47414880959024
C   15   6     2.02478325613682    -2.42177285709634     6.44560829588644
C   16   6     3.88048732735477    -3.58795445234514     4.61402886975252
C   17   6    -0.18412382258602    -1.30464291234259     5.76021113872346
C   18   6    -2.10044360464350    -0.26837831858460     7.71610340967100
C   19   6    -3.08956938670431     2.35282328359417     6.88693925039594
C   20   6    -4.37372924086464    -2.09766595989678     7.93610724222001
C   21   6    -0.83850430601230     0.06372213486173    10.33002307638377
H   22   1     0.38411922151109     1.74281358582432    10.27380136542181
H   23   1    -2.30980003007874     0.45460143924521    11.73986301809809
H   24   1     4.58527064644668    -5.38706904487420     5.36778158031719
H   25   1     5.54944938085014    -2.37631462192748     4.35398898413318
H   26   1     3.06633019150423    -3.94118377050688     2.75255466040884
H   27   1    -4.17727778763735     2.26573369139522     5.12914900961283
H   28   1    -1.52662344944051     3.68001877445626     6.59540397144508
H   29   1    -4.32916174397830     3.13643051467482     8.35225460090378
H   30   1    -5.32329548508442    -2.36691813602939     6.11583672749896
H   31   1    -5.77989366602257    -1.33896741843465     9.25748940450990
H   32   1    -3.79310905208926    -3.96389819310853     8.61386170102686
C   33   6    -1.01100794811226    -1.06331657314144     3.11929490449947
C   34   6     0.37686231036534    -0.33275864505552     1.09165013605873
H   35   1    -3.01671213906703    -1.40297922279997     2.77827895090944
C   36   6    -0.64382707979370    -0.11591880174385    -1.42063131251064
H   37   1     2.35569259782137     0.17174499283897     1.33641070251401
H   38   1    -2.63317482980319    -0.60229203511219    -1.66119700387645
C   39   6     4.85727779250226     1.56932506344372   -10.63578143211247
C   40   6     7.45078580641309     0.70440198785573   -10.99998857146552
H   41   1     4.07326566832422     2.80126406203857   -12.08333786763668
O   42   8     8.78463246786107     1.26137953491899   -12.79761289932761
H   43   1     8.17650804893433    -0.55247504818230    -9.47232163774676
[GTO]
1 0
 s    6 1.00
             3047.5249  0.0018347001629433
             457.36951    0.01403730124668
             103.94869   0.068842606114048
             29.210155    0.23218442062076
              9.286663    0.46794134155879
              3.163927    0.36231203217765
 s    3 1.00
             7.8682724   -0.11933240861517
             1.8812885   -0.16085421161283
             0.5442493     1.1434564825515
 s    1 1.00
             0.1687144                   1
 p    3 1.00
             7.8682724   0.068999095584993
             1.8812885    0.31642397975315
             0.5442493    0.74430825237435
 p    1 1.00
             0.1687144                   1
 d    1 1.00
                   0.8                   1

2 0
 s    3 1.00
             18.731137    0.03349459952309
             2.8253937    0.23472694665786
             0.6401217    0.81375731841339
 s    1 1.00
             0.1612778                   1

3 0
 s    6 1.00
             3047.5249  0.0018347001629433
             457.36951    0.01403730124668
             103.94869   0.068842606114048
             29.210155    0.23218442062076
              9.286663    0.46794134155879
              3.163927    0.36231203217765
 s    3 1.00
             7.8682724   -0.11933240861517
             1.8812885   -0.16085421161283
             0.5442493     1.1434564825515
 s    1 1.00
             0.1687144                   1
 p    3 1.00
             7.8682724   0.068999095584993
             1.8812885    0.31642397975315
             0.5442493    0.74430825237435
 p    1 1.00
             0.1687144                   1
 d    1 1.00
                   0.8                   1

4 0
 s    3 1.00
             18.731137    0.03349459952309
             2.8253937    0.23472694665786
             0.6401217    0.81375731841339
 s    1 1.00
             0.1612778                   1

5 0
 s    6 1.00
             3047.5249  0.0018347001629433
             457.36951    0.01403730124668
             103.94869   0.068842606114048
             29.210155    0.23218442062076
              9.286663    0.46794134155879
              3.163927    0.36231203217765
 s    3 1.00
             7.8682724   -0.11933240861517
             1.8812885   -0.16085421161283
             0.5442493     1.1434564825515
 s    1 1.00
             0.1687144                   1
 p    3 1.00
             7.8682724   0.068999095584993
             1.8812885    0.31642397975315
             0.5442493    0.74430825237435
 p    1 1.00
             0.1687144                   1
 d    1 1.00
                   0.8                   1

6 0
 s    3 1.00
             18.731137    0.03349459952309
             2.8253937    0.23472694665786
             0.6401217    0.81375731841339
 s    1 1.00
             0.1612778                   1

7 0
 s    6 1.00
             3047.5249  0.0018347001629433
             457.36951    0.01403730124668
             103.94869   0.068842606114048
             29.210155    0.23218442062076
              9.286663    0.46794134155879
              3.163927    0.36231203217765
 s    3 1.00
             7.8682724   -0.11933240861517
             1.8812885   -0.16085421161283
             0.5442493     1.1434564825515
 s    1 1.00
             0.1687144                   1
 p    3 1.00
             7.8682724   0.068999095584993
             1.8812885    0.31642397975315
             0.5442493    0.74430825237435
 p    1 1.00
             0.1687144                   1
 d    1 1.00
                   0.8                   1

8 0
 s    3 1.00
             18.731137    0.03349459952309
             2.8253937    0.23472694665786
             0.6401217    0.81375731841339
 s    1 1.00
             0.1612778                   1

9 0
 s    3 1.00
             18.731137    0.03349459952309
             2.8253937    0.23472694665786
             0.6401217    0.81375731841339
 s    1 1.00
             0.1612778                   1

10 0
 s    6 1.00
             3047.5249  0.0018347001629433
             457.36951    0.01403730124668
             103.94869   0.068842606114048
             29.210155    0.23218442062076
              9.286663    0.46794134155879
              3.163927    0.36231203217765
 s    3 1.00
             7.8682724   -0.11933240861517
             1.8812885   -0.16085421161283
             0.5442493     1.1434564825515
 s    1 1.00
             0.1687144                   1
 p    3 1.00
             7.8682724   0.068999095584993
             1.8812885    0.31642397975315
             0.5442493    0.74430825237435
 p    1 1.00
             0.1687144                   1
 d    1 1.00
                   0.8                   1

11 0
 s    3 1.00
             18.731137    0.03349459952309
             2.8253937    0.23472694665786
             0.6401217    0.81375731841339
 s    1 1.00
             0.1612778                   1

12 0
 s    6 1.00
             3047.5249  0.0018347001629433
             457.36951    0.01403730124668
             103.94869   0.068842606114048
             29.210155    0.23218442062076
              9.286663    0.46794134155879
              3.163927    0.36231203217765
 s    3 1.00
             7.8682724   -0.11933240861517
             1.8812885   -0.16085421161283
             0.5442493     1.1434564825515
 s    1 1.00
             0.1687144                   1
 p    3 1.00
             7.8682724   0.068999095584993
             1.8812885    0.31642397975315
             0.5442493    0.74430825237435
 p    1 1.00
             0.1687144                   1
 d    1 1.00
                   0.8                   1

13 0
 s    3 1.00
             18.731137    0.03349459952309
             2.8253937    0.23472694665786
             0.6401217    0.81375731841339
 s    1 1.00
             0.1612778                   1

14 0
 s    3 1.00
             18.731137    0.03349459952309
             2.8253937    0.23472694665786
             0.6401217    0.81375731841339
 s    1 1.00
             0.1612778                   1

15 0
 s    6 1.00
             3047.5249  0.0018347001629433
             457.36951    0.01403730124668
             103.94869   0.068842606114048
             29.210155    0.23218442062076
              9.286663    0.46794134155879
              3.163927    0.36231203217765
 s    3 1.00
             7.8682724   -0.11933240861517
             1.8812885   -0.16085421161283
             0.5442493     1.1434564825515
 s    1 1.00
             0.1687144                   1
 p    3 1.00
             7.8682724   0.068999095584993
             1.8812885    0.31642397975315
             0.5442493    0.74430825237435
 p    1 1.00
             0.1687144                   1
 d    1 1.00
                   0.8                   1

16 0
 s    6 1.00
             3047.5249  0.0018347001629433
             457.36951    0.01403730124668
             103.94869   0.068842606114048
             29.210155    0.23218442062076
              9.286663    0.46794134155879
              3.163927    0.36231203217765
 s    3 1.00
             7.8682724   -0.11933240861517
             1.8812885   -0.16085421161283
             0.5442493     1.1434564825515
 s    1 1.00
             0.1687144                   1
 p    3 1.00
             7.8682724   0.068999095584993
             1.8812885    0.31642397975315
             0.5442493    0.74430825237435
 p    1 1.00
             0.1687144                   1
 d    1 1.00
                   0.8                   1

17 0
 s    6 1.00
             3047.5249  0.0018347001629433
             457.36951    0.01403730124668
             103.94869   0.068842606114048
             29.210155    0.23218442062076
              9.286663    0.46794134155879
              3.163927    0.36231203217765
 s    3 1.00
             7.8682724   -0.11933240861517
             1.8812885   -0.16085421161283
             0.5442493     1.1434564825515
 s    1 1.00
             0.1687144                   1
 p    3 1.00
             7.8682724   0.068999095584993
             1.8812885    0.31642397975315
             0.5442493    0.74430825237435
 p    1 1.00
             0.1687144                   1
 d    1 1.00
                   0.8                   1

18 0
 s    6 1.00
             3047.5249  0.0018347001629433
             457.36951    0.01403730124668
             103.94869   0.068842606114048
             29.210155    0.23218442062076
              9.286663    0.46794134155879
              3.163927    0.36231203217765
 s    3 1.00
             7.8682724   -0.11933240861517
             1.8812885   -0.16085421161283
             0.5442493     1.1434564825515
 s    1 1.00
             0.1687144                   1
 p    3 1.00
             7.8682724   0.068999095584993
             1.8812885    0.31642397975315
             0.5442493    0.74430825237435
 p    1 1.00
             0.1687144                   1
 d    1 1.00
                   0.8                   1

19 0
 s    6 1.00
             3047.5249  0.0018347001629433
             457.36951    0.01403730124668
             103.94869   0.068842606114048
             29.210155    0.23218442062076
              9.286663    0.46794134155879
              3.163927    0.36231203217765
 s    3 1.00
             7.8682724   -0.11933240861517
             1.8812885   -0.16085421161283
             0.5442493     1.1434564825515
 s    1 1.00
             0.1687144                   1
 p    3 1.00
             7.8682724   0.068999095584993
             1.8812885    0.31642397975315
             0.5442493    0.74430825237435
 p    1 1.00
             0.1687144                   1
 d    1 1.00
                   0.8                   1

20 0
 s    6 1.00
             3047.5249  0.0018347001629433
             457.36951    0.01403730124668
             103.94869   0.068842606114048
             29.210155    0.23218442062076
              9.286663    0.46794134155879
              3.163927    0.36231203217765
 s    3 1.00
             7.8682724   -0.11933240861517
             1.8812885   -0.16085421161283
             0.5442493     1.1434564825515
 s    1 1.00
             0.1687144                   1
 p    3 1.00
             7.8682724   0.068999095584993
             1.8812885    0.31642397975315
             0.5442493    0.74430825237435
 p    1 1.00
             0.1687144                   1
 d    1 1.00
                   0.8                   1

21 0
 s    6 1.00
             3047.5249  0.0018347001629433
             457.36951    0.01403730124668
             103.94869   0.068842606114048
             29.210155    0.23218442062076
              9.286663    0.46794134155879
              3.163927    0.36231203217765
 s    3 1.00
             7.8682724   -0.11933240861517
             1.8812885   -0.16085421161283
             0.5442493     1.1434564825515
 s    1 1.00
             0.1687144                   1
 p    3 1.00
             7.8682724   0.068999095584993
             1.8812885    0.31642397975315
             0.5442493    0.74430825237435
 p    1 1.00
             0.1687144                   1
 d    1 1.00
                   0.8                   1

22 0
 s    3 1.00
             18.731137    0.03349459952309
             2.8253937    0.23472694665786
             0.6401217    0.81375731841339
 s    1 1.00
             0.1612778                   1

23 0
 s    3 1.00
             18.731137    0.03349459952309
             2.8253937    0.23472694665786
             0.6401217    0.81375731841339
 s    1 1.00
             0.1612778                   1

24 0
 s    3 1.00
             18.731137    0.03349459952309
             2.8253937    0.23472694665786
             0.6401217    0.81375731841339
 s    1 1.00
             0.1612778                   1

25 0
 s    3 1.00
             18.731137    0.03349459952309
             2.8253937    0.23472694665786
             0.6401217    0.81375731841339
 s    1 1.00
             0.1612778                   1

26 0
 s    3 1.00
             18.731137    0.03349459952309
             2.8253937    0.23472694665786
             0.6401217    0.81375731841339
 s    1 1.00
             0.1612778                   1

27 0
 s    3 1.00
             18.731137    0.03349459952309
             2.8253937    0.23472694665786
             0.6401217    0.81375731841339
 s    1 1.00
             0.1612778                   1

28 0
 s    3 1.00
             18.731137    0.03349459952309
             2.8253937    0.23472694665786
             0.6401217    0.81375731841339
 s    1 1.00
             0.1612778                   1

29 0
 s    3 1.00
             18.731137    0.03349459952309
             2.8253937    0.23472694665786
             0.6401217    0.81375731841339
 s    1 1.00
             0.1612778                   1

30 0
 s    3 1.00
             18.731137    0.03349459952309
             2.8253937    0.23472694665786
             0.6401217    0.81375731841339
 s    1 1.00
             0.1612778                   1

31 0
 s    3 1.00
             18.731137    0.03349459952309
             2.8253937    0.23472694665786
             0.6401217    0.81375731841339
 s    1 1.00
             0.1612778                   1

32 0
 s    3 1.00
             18.731137    0.03349459952309
             2.8253937    0.23472694665786
             0.6401217    0.81375731841339
 s    1 1.00
             0.1612778                   1

33 0
 s    6 1.00
             3047.5249  0.0018347001629433
             457.36951    0.01403730124668
             103.94869   0.068842606114048
             29.210155    0.23218442062076
              9.286663    0.46794134155879
              3.163927    0.36231203217765
 s    3 1.00
             7.8682724   -0.11933240861517
             1.8812885   -0.16085421161283
             0.5442493     1.1434564825515
 s    1 1.00
             0.1687144                   1
 p    3 1.00
             7.8682724   0.068999095584993
             1.8812885    0.31642397975315
             0.5442493    0.74430825237435
 p    1 1.00
             0.1687144                   1
 d    1 1.00
                   0.8                   1

34 0
 s    6 1.00
             3047.5249  0.0018347001629433
             457.36951    0.01403730124668
             103.94869   0.068842606114048
             29.210155    0.23218442062076
              9.286663    0.46794134155879
              3.163927    0.36231203217765
 s    3 1.00
             7.8682724   -0.11933240861517
             1.8812885   -0.16085421161283
             0.5442493     1.1434564825515
 s    1 1.00
             0.1687144                   1
 p    3 1.00
             7.8682724   0.068999095584993
             1.8812885    0.31642397975315
             0.5442493    0.74430825237435
 p    1 1.00
             0.1687144                   1
 d    1 1.00
                   0.8                   1

35 0
 s    3 1.00
             18.731137    0.03349459952309
             2.8253937    0.23472694665786
             0.6401217    0.81375731841339
 s    1 1.00
             0.1612778                   1

36 0
 s    6 1.00
             3047.5249  0.0018347001629433
             457.36951    0.01403730124668
             103.94869   0.068842606114048
             29.210155    0.23218442062076
              9.286663    0.46794134155879
              3.163927    0.36231203217765
 s    3 1.00
             7.8682724   -0.11933240861517
             1.8812885   -0.16085421161283
             0.5442493     1.1434564825515
 s    1 1.00
             0.1687144                   1
 p    3 1.00
             7.8682724   0.068999095584993
             1.8812885    0.31642397975315
             0.5442493    0.74430825237435
 p    1 1.00
             0.1687144                   1
 d    1 1.00
                   0.8                   1

37 0
 s    3 1.00
             18.731137    0.03349459952309
             2.8253937    0.23472694665786
             0.6401217    0.81375731841339
 s    1 1.00
             0.1612778                   1

38 0
 s    3 1.00
             18.731137    0.03349459952309
             2.8253937    0.23472694665786
             0.6401217    0.81375731841339
 s    1 1.00
             0.1612778                   1

39 0
 s    6 1.00
             3047.5249  0.0018347001629433
             457.36951    0.01403730124668
             103.94869   0.068842606114048
             29.210155    0.23218442062076
              9.286663    0.46794134155879
              3.163927    0.36231203217765
 s    3 1.00
             7.8682724   -0.11933240861517
             1.8812885   -0.16085421161283
             0.5442493     1.1434564825515
 s    1 1.00
             0.1687144                   1
 p    3 1.00
             7.8682724   0.068999095584993
             1.8812885    0.31642397975315
             0.5442493    0.74430825237435
 p    1 1.00
             0.1687144                   1
 d    1 1.00
                   0.8                   1

40 0
 s    6 1.00
             3047.5249  0.0018347001629433
             457.36951    0.01403730124668
             103.94869   0.068842606114048
             29.210155    0.23218442062076
              9.286663    0.46794134155879
              3.163927    0.36231203217765
 s    3 1.00
             7.8682724   -0.11933240861517
             1.8812885   -0.16085421161283
             0.5442493     1.1434564825515
 s    1 1.00
             0.1687144                   1
 p    3 1.00
             7.8682724   0.068999095584993
             1.8812885    0.31642397975315
             0.5442493    0.74430825237435
 p    1 1.00
             0.1687144                   1
 d    1 1.00
                   0.8                   1

41 0
 s    3 1.00
             18.731137    0.03349459952309
             2.8253937    0.23472694665786
             0.6401217    0.81375731841339
 s    1 1.00
             0.1612778                   1

42 0
 s    6 1.00
             5484.6717   0.001831099805527
             825.23495   0.013950098518422
             188.04696    0.06844509273075
               52.9645    0.23271427528445
              16.89757    0.47019295006289
             5.7996353    0.35852086192309
 s    3 1.00
             15.539616   -0.11077750382508
             3.5999336   -0.14802630511126
             1.0137618     1.1307670390447
 s    1 1.00
             0.2700058                   1
 p    3 1.00
             15.539616   0.070874299543311
             3.5999336    0.33975279781076
             1.0137618    0.72715859531445
 p    1 1.00
             0.2700058                   1
 d    1 1.00
                   0.8                   1

43 0
 s    3 1.00
             18.731137    0.03349459952309
             2.8253937    0.23472694665786
             0.6401217    0.81375731841339
 s    1 1.00
             0.1612778                   1

[5d]
[7f]
[9g]

[MO]
 Sym= A
 Ene=               0
 Spin= Alpha
 Occup=    1.00000
   1    -4.0821497378895e-06
   2    -3.4837924663668e-05
   3    0.00046927736865035
   4    -1.2341377702122e-05
   5    1.5378324833367e-05
   6    6.4637070393686e-06
   7    -2.7461556768757e-05
   8    -4.1656969349625e-05
   9    -0.00029543222260468
  10    1.2569988829655e-05
  11    9.9848598671217e-06
  12    3.7952990347957e-06
  13    -1.0587673406979e-06
  14    1.979331003786e-06
  15    -6.2050065835682e-06
  16    -1.5095588092105e-05
  17    8.5317026727507e-06
  18    8.0384632508657e-06
  19    -0.00093693477407149
  20    -2.8024197449753e-05
  21    -1.1601523590008e-05
  22    4.4627487094252e-05
  23    -0.00059496290031764
  24    1.7044970665534e-05
  25    -2.7092866326955e-05
  26    -2.1129702056556e-05
  27    1.3587360664339e-05
  28    -7.6479875854728e-06
  29    -1.3888152573403e-05
  30    -1.4587671991148e-05
  31    -8.8524609996421e-06
  32    -0.00010474071625384
  33    -5.6582966637198e-05
  34    -0.00014687335398154
  35     0.002826658370868
  36    0.00014963689323746
  37    -1.251775208566e-05
  38    -6.3239787431219e-05
  39    0.0011982165347323
  40    -0.00069612165734176
  41    0.00042442276242528
  42    -1.5937821168315e-05
  43    -4.296475636217e-05
  44    -1.4816172125677e-05
  45    6.4326501619843e-05
  46    -4.2489802038183e-05
  47    1.3546101393253e-05
  48    0.00021077424808155
  49    5.363620438068e-05
  50    -0.00025240662059667
  51    -0.0023076212255984
  52    -0.00042666417814572
  53    9.7387694788422e-05
  54    0.00013451443468271
  55    0.0021134185594949
  56    -0.00070010750248561
  57    -0.00036056017336218
  58    8.280199541648e-05
  59    -5.4170598499861e-06
  60    -6.8795576242889e-05
  61    -5.2675274675541e-05
  62    3.8114981498416e-05
  63    -0.00027325195797961
  64    -0.00013096569777332
  65    -8.3932508466744e-08
  66    5.0775567642296e-07
  67    -1.4518216371387e-08
  68    -1.3553117743262e-07
  69    -8.4152751598313e-07
  70    1.5927228960045e-07
  71    -2.1916164208176e-07
  72    -5.1374808345062e-08
  73    7.364394735376e-07
  74    4.3554604114841e-07
  75    -1.5415526079941e-07
  76    1.1958836540831e-07
  77    9.5775657839537e-08
  78    2.3869003036443e-08
  79    4.555663139589e-08
  80    9.9271129098894e-08
  81    5.9087699527391e-08
  82    5.6493916534668e-07
  83    9.9906474418047e-08
  84    9.7182270871419e-07
  85    5.7445761640741e-06
  86    -2.9310273264765e-07
  87    3.4953661557478e-07
  88    -2.4604824175901e-07
  89    1.1827768395593e-07
  90    -2.5054833707907e-06
  91    -2.8855960234582e-06
  92    -9.508509782177e-08
  93    -6.6150365760833e-09
  94    1.4813941930261e-07
  95    -1.8136008321872e-07
  96    9.7565652924679e-08
  97    2.9274291755749e-07
  98    7.3454272534689e-07
  99    -4.3386186997524e-07
 100    -8.3176022580812e-07
 101    -2.8886642533872e-07
 102    -1.2356584971923e-06
 103    2.8420294683677e-05
 104    -1.1007977791308e-06
 105    -1.9090393721939e-08
 106    -5.7496556779371e-08
 107    -2.7080022110558e-06
 108    2.7183049183477e-06
 109    -2.4504796096222e-05
 110    3.5037481483556e-07
 111    7.1247391063531e-07
 112    -2.966591785532e-07
 113    5.7987340942892e-08
 114    -2.3040850599099e-07
 115    2.1397897236569e-07
 116    1.9616747129164e-06
 117    -1.5360071342011e-05
 118    2.1322617103497e-07
 119    3.0404883558451e-07
 120    -7.9465927578595e-07
 121    6.7642129852993e-06
 122    -6.9016038580096e-06
 123    -2.6365871108205e-07
 124    3.0345832109665e-07
 125    8.5425324358444e-08
 126    -4.0484800612387e-07
 127    -2.8899550361506e-07
 128    2.1571959025724e-07
 129    6.0205391089723e-07
 130    3.9565589870011e-06
 131    -3.1498681181967e-05
 132    1.4858061352064e-06
 133    -7.396115309859e-07
 134    -1.522477344809e-06
 135    -2.8511413991504e-05
 136    9.6625707888798e-06
 137    4.6890958407969e-05
 138    -1.4330692758185e-06
 139    -6.4953973945413e-07
 140    7.7258655647321e-07
 141    -2.2089165037538e-07
 142    8.8981303088977e-07
 143    4.3058786430327e-07
 144    2.9188269547204e-06
 145    -3.3234247179066e-05
 146    1.6906630509889e-07
 147    1.1794394867084e-07
 148    1.5474721143822e-06
 149    -1.6653646466238e-05
 150    1.1402252185734e-05
 151    -2.9484345596702e-06
 152    8.4336474452154e-08
 153    2.0328282354135e-07
 154    -5.3233727782504e-07
 155    -4.110874753383e-07
 156    3.2253823614554e-07
 157    1.7792110586447e-07
 158    1.4582237600344e-06
 159    -8.2684626745817e-06
 160    1.2866180914962e-07
 161    6.0676603078872e-08
 162    -6.0302755151497e-08
 163    5.5979199805785e-07
 164    3.1162895807142e-06
 165    9.7525476356744e-07
 166    -2.6682108893808e-09
 167    1.6852809296705e-07
 168    -3.2403265330669e-08
 169    2.7109217793644e-07
 170    -7.8945267496723e-08
 171    -9.6087695544251e-09
 172    -9.5625757138093e-08
 173    -1.4685576169089e-07
 174    -1.8665641376024e-07
 175    6.2024395973536e-08
 176    4.5750915628717e-07
 177    4.6858751016619e-06
 178    -1.1006021764659e-06
 179    9.2113182609915e-07
 180    -6.4675063596936e-08
 181     4.33998947093e-07
 182    -1.1863346816014e-07
 183    4.3227200788078e-07
 184    2.7817483401083e-07
 185    -1.3631172716651e-07
 186    -6.6464466108092e-07
 187    1.172586512315e-05
 188    -3.5526768432134e-07
 189    -1.4537567657558e-07
 190    -8.737051581158e-07
 191    -1.6260247602207e-06
 192    -2.4214969306689e-06
 193    -4.1375561121076e-06
 194    2.4605025009405e-07
 195    3.3516808576394e-07
 196    2.333348928513e-07
 197    -2.6002404412677e-07
 198    2.1458068417631e-07
 199    -4.0067238141147e-07
 200    4.9468670604779e-07
 201    -2.1434506642352e-07
 202    -1.2335090252708e-06
 203    -8.2582727060665e-08
 204    -2.3528133855509e-06
 205    1.0962898187139e-06
 206    3.4817515833903e-07
 207    1.1480472214301e-06
 208    6.3820640741158e-07
 209    2.5393898895655e-07
 210    2.5086269518356e-06
 211    2.0616450828278e-07
 212    -3.6223915989184e-08
 213    3.5695012682173e-07
 214    -5.4031332736524e-07
 215    -9.5808971832338e-07
 216    4.9860354073138e-06
 217    3.455981227674e-07
 218    8.9914963726789e-07
 219    -9.6513876347791e-08
 220    -1.548104580444e-06
 221    -1.3667664757175e-06
 222    -7.8292003026301e-06
 223     0.000140998880533
 224    1.6872262851862e-07
 225    3.1931516220848e-06
 226    -3.0465233848443e-06
 227    4.3969230502599e-05
 228    8.3685718550995e-06
 229    -2.9290255343126e-05
 230    2.8119719514313e-06
 231    -9.1296279074382e-07
 232    -1.9260681413638e-06
 233    5.8812153290449e-07
 234    3.8317885646746e-07
 235    1.5191066595636e-06
 236    8.8220330006091e-06
 237    -0.00019400949684474
 238    -2.2243707153445e-06
 239    -3.9125842059312e-06
 240    5.5524945509104e-06
 241    8.2015922728913e-05
 242    2.381807810831e-05
 243    -1.5013871951309e-05
 244    -3.0638188570325e-06
 245    7.1550220849257e-07
 246    2.8414806953643e-06
 247    -9.172402856004e-07
 248    3.2574210475747e-07
 249    1.0542136374161e-06
 250    -3.5386186215009e-06
 251    6.6608308020902e-07
 252    6.5589550274521e-06
 253    5.8125550897529e-05
 254    -1.4178626773181e-06
 255    -2.2061036002254e-06
 256    -1.0275438451948e-05
 257    5.3234629876379e-05
 258    1.436477271251e-05
 259    0.00014546477697473
 260    -4.4435844682034e-07
 261    4.3866686582617e-06
 262    -1.5963080472789e-06
 263    -3.2269987357732e-06
 264    3.0953506882707e-06
 265    -5.9744527783364e-06
 266    -5.7761122631121e-06
 267    9.3744400930747e-06
 268    2.1378135521071e-05
 269    4.5839077545142e-05
 270    -8.3418496292005e-05
 271    -0.0019228868167598
 272    1.7866871550613e-05
 273    0.00010345329267041
 274    -0.00020605226685771
 275    -0.0014064120141848
 276    -0.0004431661859368
 277    0.0016523901984043
 278    1.4808488506228e-05
 279    0.00019782905822665