[Molden Format]
made by pyscf v[2.0.1]
[Atoms] (AU)
C   1   6    -0.00491185910195    -0.00302299034612    -6.30478139015019
O   2   8    -0.00302499062123    -0.00226824280266    -4.17507277885027
[GTO]
1 0
 s    5 1.00
          1238.4016938  0.0055173650481097
          186.29004992   0.041088828555946
          42.251176346     0.1822538212649
          11.676557932    0.46828459437429
          3.5930506482    0.44575817336002
 s    1 1.00
         0.40245147363                   1
 s    1 1.00
         0.13090182668                   1
 p    3 1.00
          9.4680970621   0.056888332011037
          2.0103545142    0.31294059336471
         0.54771004707    0.76065016509135
 p    1 1.00
         0.15268613795                   1
 d    1 1.00
                   0.8                   1

2 0
 s    5 1.00
          2266.1767785  -0.0053893503921743
          340.87010191   -0.04023472138896
          77.363135167   -0.18008184205526
           21.47964494   -0.46828857657651
          6.6589433124   -0.44692617160187
 s    1 1.00
         0.80975975668                   1
 s    1 1.00
         0.25530772234                   1
 p    3 1.00
          17.721504317   0.062630248763161
           3.863550544    0.33331138482352
          1.0480920883    0.74148638308122
 p    1 1.00
         0.27641544411                   1
 d    1 1.00
                   1.2                   1

[5d]
[7f]
[9g]

[MO]
 Sym= A
 Ene=               0
 Spin= Alpha
 Occup=    1.00000
   1      0.10118112894681
   2     -0.24023105142242
   3    -0.048453319710692
   4    -6.8328308933638e-05
   5    -2.7331329238018e-05
   6    -0.077119528345001
   7    1.8851216896393e-05
   8    7.5404882700269e-06
   9     0.021277499964298
  10    0.0035578316607336
  11    5.4584362726605e-06
  12    2.1833748636878e-06
  13    2.0097863703551e-09
  14    1.9407507311051e-09
  15      0.25064318749878
  16       0.4773631288572
  17      0.42069319931169
  18    0.00037118419772832
  19    0.00014847370930184
  20      0.41894888085915
  21    0.00019737034558675
  22    7.894815416994e-05
  23      0.22276920333225
  24    -0.017549837061803
  25    -2.6933216822248e-05
  26    -1.0773288955725e-05
  27    -1.0008986915029e-08
  28    -9.5515536769461e-09
 Sym= A
 Ene=               1
 Spin= Alpha
 Occup=    1.00000
   1    -6.1760131659834e-09
   2    1.5351077178425e-08
   3    3.0964653242556e-09
   4      0.33604061894776
   5    -0.0071295626124391
   6    -0.00029520800469858
   7      0.13207817577581
   8    -0.0028022196329932
   9    -0.00011602901611833
  10    -6.6740451289583e-05
  11     0.043861257639925
  12    -0.00093059112983675
  13    3.9192347561002e-05
  14    1.4719158290308e-05
  15    -2.3015964648363e-09
  16    -3.1950037051328e-09
  17    1.4180955844976e-10
  18      0.55931178925647
  19    -0.011866566613157
  20    -0.00049132734246718
  21      0.32913193671557
  22    -0.0069829853938857
  23    -0.0002891282395761
  24    4.0031478818771e-05
  25    -0.026311368889764
  26    0.00055824038622317
  27    -2.3510857282499e-05
  28    -8.8286385379206e-06
 Sym= A
 Ene=               2
 Spin= Alpha
 Occup=    1.00000
   1    2.6237060180746e-09
   2    -6.5216716534062e-09
   3    -1.3152897215596e-09
   4    -0.0071294546671982
   5     -0.33604072741763
   6    0.00012541071549207
   7    -0.0028021772314101
   8     -0.13207821847817
   9    4.9291624024314e-05
  10    2.8352780369419e-05
  11    -0.00093054885398798
  12    -0.043861300063233
  13    1.4720513987545e-05
  14    -3.9188792251455e-05
  15    9.7795024146047e-10
  16    1.3575283815563e-09
  17    -5.9682295692999e-11
  18    -0.011866387138211
  19     -0.55931196984541
  20    0.00020872643279365
  21    -0.0069828797717672
  22     -0.32913204316568
  23    0.00012282790073651
  24    -1.7006233851461e-05
  25    0.00055821507788756
  26     0.026311394429834
  27    -8.8305987773453e-06
  28    2.3505670150324e-05
 Sym= A
 Ene=               3
 Spin= Alpha
 Occup=    1.00000
   1     -0.23381284709351
   2      0.44904963715473
   3       0.5102481286804
   4    -0.00036446566141416
   5    -0.00014578629388137
   6     -0.41137687150486
   7    -0.00012200702469754
   8    -4.8802819673499e-05
   9     -0.13770277720438
  10    -0.030245860027807
  11    -4.6409220026918e-05
  12    -1.8563691721207e-05
  13    -1.7284270173242e-08
  14    -1.6433912054101e-08
  15    -0.016662272869585
  16    -0.046751857747699
  17    -0.026820141416795
  18    0.00017879531058736
  19    7.1518138900272e-05
  20      0.20182483248243
  21    9.2893828877935e-05
  22    3.7157539170259e-05
  23      0.10486212454146
  24    -0.001296097876343
  25    -1.9883307964771e-06
  26    -7.953325241641e-07
  27    -7.2988187006339e-10
  28    -7.1033191334894e-10
