[Molden Format]
made by pyscf v[2.0.1]
[Atoms] (AU)
O   1   8     0.00000000000000     0.00000000000000    10.18586013564153
H   2   1     0.00000000000000     0.00000000000000     8.36245831374057
H   3   1    -0.05031916615174     1.78353065140343    10.56173183210820
O   4   8     0.00000000000000     0.00000000000000     2.31533471513237
C   5   6     0.00000000000000     0.00000000000000     0.00000000000000
C   6   6     2.01118073026938    -1.40227222164369    -1.50774939176400
C   7   6    -2.01249334291722     1.41331050329955    -1.50315905028694
H   8   1     3.32037363730244    -2.26721897153159    -0.13599698591495
C   9   6     3.45899267434009     0.28739631745591    -3.37437943254505
H   10   1     1.07662969841332    -2.94725144642667    -2.56541439481080
H   11   1    -2.67503415753480     0.18421555839588    -3.06194479365997
H   12   1    -1.07974048864772     3.03851734677796    -2.43674295017013
C   13   6    -4.21607110578555     2.32938802552922     0.11994162256091
H   14   1     4.24440173074564     1.93368664142019    -2.34976285512790
H   15   1     2.15020713235517     1.04714335134846    -4.81494497423699
C   16   6     5.60746363007797    -1.12419643481196    -4.70268606082550
H   17   1    -3.46838323670267     3.50951302338067     1.66946842715333
H   18   1    -5.11873485366228     0.68575958301209     1.04047743976495
C   19   6    -6.18314754751344     3.80909592987882    -1.39656589068747
H   20   1     6.93011263717176    -1.87550812453645    -3.26656317360070
C   21   6     7.06356622236532     0.52877932406334    -6.57829775293605
H   22   1     4.82318879258361    -2.78573437948532    -5.70504560381835
H   23   1    -6.91582688743803     2.61304780074712    -2.95074552451969
H   24   1    -5.26532430573853     5.45420349051338    -2.31005832200284
C   25   6    -8.39941882261433     4.73263980500213     0.21800571437956
H   26   1     7.83338371486801     2.19084139882824    -5.57093109900697
H   27   1     5.73544244039420     1.27376866537418    -8.01071492370229
C   28   6     9.21124858443101    -0.89699110072176    -7.88926949186242
H   29   1    -7.66272760055236     5.92277078003992     1.77035591474408
H   30   1    -9.31497248082589     3.08753015622020     1.12614408368786
C   31   6   -10.35481709231879     6.21833079391143    -1.30905206253246
H   32   1    10.58815905329501    -1.61074586756696    -6.49512691622620
H   33   1    10.23506248045667     0.32468009384095    -9.23072870921204
H   34   1     8.47665842847139    -2.53598436989925    -8.94921964622535
H   35   1    -9.48948872868064     7.90013588951020    -2.18823918416067
H   36   1   -11.93332513000955     6.86460487874102    -0.11255798845995
H   37   1   -11.15126291841033     5.04495968327630    -2.83849898862534
[GTO]
1 0
 s    8 1.00
                 11720  0.00070964594651845
                  1759  0.0054672722921914
                 400.8   0.027823118610189
                 113.7    0.10474773971146
                 37.03    0.28292084635691
                 13.27    0.44849523869833
                 5.025    0.27081688521277
                 1.013    0.01545029160744
 s    8 1.00
                 11720  -0.00031444341168873
                  1759  -0.0024821376810179
                 400.8  -0.012316355381583
                 113.7  -0.050538917343672
                 37.03   -0.13938490331632
                 13.27   -0.32507749481778
                 5.025   -0.22984830758785
                 1.013     1.0953793467883
 s    1 1.00
                0.3023                   1
 p    3 1.00
                  17.7   0.062679166281506
                 3.854    0.33353656587936
                 1.046    0.74123964163973
 p    1 1.00
                0.2753                   1
 d    1 1.00
                 1.185                   1

2 0
 s    3 1.00
                 13.01   0.033498726389998
                 1.962    0.23480080117413
                0.4446     0.8136829578829
 s    1 1.00
                 0.122                   1
 p    1 1.00
                 0.727                   1

3 0
 s    3 1.00
                 13.01   0.033498726389998
                 1.962    0.23480080117413
                0.4446     0.8136829578829
 s    1 1.00
                 0.122                   1
 p    1 1.00
                 0.727                   1

4 0
 s    8 1.00
                 11720  0.00070964594651845
                  1759  0.0054672722921914
                 400.8   0.027823118610189
                 113.7    0.10474773971146
                 37.03    0.28292084635691
                 13.27    0.44849523869833
                 5.025    0.27081688521277
                 1.013    0.01545029160744
 s    8 1.00
                 11720  -0.00031444341168873
                  1759  -0.0024821376810179
                 400.8  -0.012316355381583
                 113.7  -0.050538917343672
                 37.03   -0.13938490331632
                 13.27   -0.32507749481778
                 5.025   -0.22984830758785
                 1.013     1.0953793467883
 s    1 1.00
                0.3023                   1
 p    3 1.00
                  17.7   0.062679166281506
                 3.854    0.33353656587936
                 1.046    0.74123964163973
 p    1 1.00
                0.2753                   1
 d    1 1.00
                 1.185                   1

5 0
 s    8 1.00
                  6665  0.00069158396281299
                  1000  0.0053257961529341
                   228   0.027060721042034
                 64.71    0.10165684614077
                 21.06     0.2745748236174
                 7.495    0.44829431892377
                 2.797    0.28490261071525
                0.5215   0.015194859206082
 s    8 1.00
                  6665  -0.00029326965268655
                  1000  -0.0023180354739745
                   228  -0.011499786038565
                 64.71  -0.046826727009787
                 21.06   -0.12846616875047
                 7.495   -0.30126627246289
                 2.797   -0.25563070233011
                0.5215      1.093793361012
 s    1 1.00
                0.1596                   1
 p    3 1.00
                 9.439   0.056979251590039
                 2.002    0.31320721150073
                0.5456    0.76037674173753
 p    1 1.00
                0.1517                   1
 d    1 1.00
                  0.55                   1

6 0
 s    8 1.00
                  6665  0.00069158396281299
                  1000  0.0053257961529341
                   228   0.027060721042034
                 64.71    0.10165684614077
                 21.06     0.2745748236174
                 7.495    0.44829431892377
                 2.797    0.28490261071525
                0.5215   0.015194859206082
 s    8 1.00
                  6665  -0.00029326965268655
                  1000  -0.0023180354739745
                   228  -0.011499786038565
                 64.71  -0.046826727009787
                 21.06   -0.12846616875047
                 7.495   -0.30126627246289
                 2.797   -0.25563070233011
                0.5215      1.093793361012
 s    1 1.00
                0.1596                   1
 p    3 1.00
                 9.439   0.056979251590039
                 2.002    0.31320721150073
                0.5456    0.76037674173753
 p    1 1.00
                0.1517                   1
 d    1 1.00
                  0.55                   1

7 0
 s    8 1.00
                  6665  0.00069158396281299
                  1000  0.0053257961529341
                   228   0.027060721042034
                 64.71    0.10165684614077
                 21.06     0.2745748236174
                 7.495    0.44829431892377
                 2.797    0.28490261071525
                0.5215   0.015194859206082
 s    8 1.00
                  6665  -0.00029326965268655
                  1000  -0.0023180354739745
                   228  -0.011499786038565
                 64.71  -0.046826727009787
                 21.06   -0.12846616875047
                 7.495   -0.30126627246289
                 2.797   -0.25563070233011
                0.5215      1.093793361012
 s    1 1.00
                0.1596                   1
 p    3 1.00
                 9.439   0.056979251590039
                 2.002    0.31320721150073
                0.5456    0.76037674173753
 p    1 1.00
                0.1517                   1
 d    1 1.00
                  0.55                   1

8 0
 s    3 1.00
                 13.01   0.033498726389998
                 1.962    0.23480080117413
                0.4446     0.8136829578829
 s    1 1.00
                 0.122                   1
 p    1 1.00
                 0.727                   1

9 0
 s    8 1.00
                  6665  0.00069158396281299
                  1000  0.0053257961529341
                   228   0.027060721042034
                 64.71    0.10165684614077
                 21.06     0.2745748236174
                 7.495    0.44829431892377
                 2.797    0.28490261071525
                0.5215   0.015194859206082
 s    8 1.00
                  6665  -0.00029326965268655
                  1000  -0.0023180354739745
                   228  -0.011499786038565
                 64.71  -0.046826727009787
                 21.06   -0.12846616875047
                 7.495   -0.30126627246289
                 2.797   -0.25563070233011
                0.5215      1.093793361012
 s    1 1.00
                0.1596                   1
 p    3 1.00
                 9.439   0.056979251590039
                 2.002    0.31320721150073
                0.5456    0.76037674173753
 p    1 1.00
                0.1517                   1
 d    1 1.00
                  0.55                   1

10 0
 s    3 1.00
                 13.01   0.033498726389998
                 1.962    0.23480080117413
                0.4446     0.8136829578829
 s    1 1.00
                 0.122                   1
 p    1 1.00
                 0.727                   1

11 0
 s    3 1.00
                 13.01   0.033498726389998
                 1.962    0.23480080117413
                0.4446     0.8136829578829
 s    1 1.00
                 0.122                   1
 p    1 1.00
                 0.727                   1

12 0
 s    3 1.00
                 13.01   0.033498726389998
                 1.962    0.23480080117413
                0.4446     0.8136829578829
 s    1 1.00
                 0.122                   1
 p    1 1.00
                 0.727                   1

13 0
 s    8 1.00
                  6665  0.00069158396281299
                  1000  0.0053257961529341
                   228   0.027060721042034
                 64.71    0.10165684614077
                 21.06     0.2745748236174
                 7.495    0.44829431892377
                 2.797    0.28490261071525
                0.5215   0.015194859206082
 s    8 1.00
                  6665  -0.00029326965268655
                  1000  -0.0023180354739745
                   228  -0.011499786038565
                 64.71  -0.046826727009787
                 21.06   -0.12846616875047
                 7.495   -0.30126627246289
                 2.797   -0.25563070233011
                0.5215      1.093793361012
 s    1 1.00
                0.1596                   1
 p    3 1.00
                 9.439   0.056979251590039
                 2.002    0.31320721150073
                0.5456    0.76037674173753
 p    1 1.00
                0.1517                   1
 d    1 1.00
                  0.55                   1

14 0
 s    3 1.00
                 13.01   0.033498726389998
                 1.962    0.23480080117413
                0.4446     0.8136829578829
 s    1 1.00
                 0.122                   1
 p    1 1.00
                 0.727                   1

15 0
 s    3 1.00
                 13.01   0.033498726389998
                 1.962    0.23480080117413
                0.4446     0.8136829578829
 s    1 1.00
                 0.122                   1
 p    1 1.00
                 0.727                   1

16 0
 s    8 1.00
                  6665  0.00069158396281299
                  1000  0.0053257961529341
                   228   0.027060721042034
                 64.71    0.10165684614077
                 21.06     0.2745748236174
                 7.495    0.44829431892377
                 2.797    0.28490261071525
                0.5215   0.015194859206082
 s    8 1.00
                  6665  -0.00029326965268655
                  1000  -0.0023180354739745
                   228  -0.011499786038565
                 64.71  -0.046826727009787
                 21.06   -0.12846616875047
                 7.495   -0.30126627246289
                 2.797   -0.25563070233011
                0.5215      1.093793361012
 s    1 1.00
                0.1596                   1
 p    3 1.00
                 9.439   0.056979251590039
                 2.002    0.31320721150073
                0.5456    0.76037674173753
 p    1 1.00
                0.1517                   1
 d    1 1.00
                  0.55                   1

17 0
 s    3 1.00
                 13.01   0.033498726389998
                 1.962    0.23480080117413
                0.4446     0.8136829578829
 s    1 1.00
                 0.122                   1
 p    1 1.00
                 0.727                   1

18 0
 s    3 1.00
                 13.01   0.033498726389998
                 1.962    0.23480080117413
                0.4446     0.8136829578829
 s    1 1.00
                 0.122                   1
 p    1 1.00
                 0.727                   1

19 0
 s    8 1.00
                  6665  0.00069158396281299
                  1000  0.0053257961529341
                   228   0.027060721042034
                 64.71    0.10165684614077
                 21.06     0.2745748236174
                 7.495    0.44829431892377
                 2.797    0.28490261071525
                0.5215   0.015194859206082
 s    8 1.00
                  6665  -0.00029326965268655
                  1000  -0.0023180354739745
                   228  -0.011499786038565
                 64.71  -0.046826727009787
                 21.06   -0.12846616875047
                 7.495   -0.30126627246289
                 2.797   -0.25563070233011
                0.5215      1.093793361012
 s    1 1.00
                0.1596                   1
 p    3 1.00
                 9.439   0.056979251590039
                 2.002    0.31320721150073
                0.5456    0.76037674173753
 p    1 1.00
                0.1517                   1
 d    1 1.00
                  0.55                   1

20 0
 s    3 1.00
                 13.01   0.033498726389998
                 1.962    0.23480080117413
                0.4446     0.8136829578829
 s    1 1.00
                 0.122                   1
 p    1 1.00
                 0.727                   1

21 0
 s    8 1.00
                  6665  0.00069158396281299
                  1000  0.0053257961529341
                   228   0.027060721042034
                 64.71    0.10165684614077
                 21.06     0.2745748236174
                 7.495    0.44829431892377
                 2.797    0.28490261071525
                0.5215   0.015194859206082
 s    8 1.00
                  6665  -0.00029326965268655
                  1000  -0.0023180354739745
                   228  -0.011499786038565
                 64.71  -0.046826727009787
                 21.06   -0.12846616875047
                 7.495   -0.30126627246289
                 2.797   -0.25563070233011
                0.5215      1.093793361012
 s    1 1.00
                0.1596                   1
 p    3 1.00
                 9.439   0.056979251590039
                 2.002    0.31320721150073
                0.5456    0.76037674173753
 p    1 1.00
                0.1517                   1
 d    1 1.00
                  0.55                   1

22 0
 s    3 1.00
                 13.01   0.033498726389998
                 1.962    0.23480080117413
                0.4446     0.8136829578829
 s    1 1.00
                 0.122                   1
 p    1 1.00
                 0.727                   1

23 0
 s    3 1.00
                 13.01   0.033498726389998
                 1.962    0.23480080117413
                0.4446     0.8136829578829
 s    1 1.00
                 0.122                   1
 p    1 1.00
                 0.727                   1

24 0
 s    3 1.00
                 13.01   0.033498726389998
                 1.962    0.23480080117413
                0.4446     0.8136829578829
 s    1 1.00
                 0.122                   1
 p    1 1.00
                 0.727                   1

25 0
 s    8 1.00
                  6665  0.00069158396281299
                  1000  0.0053257961529341
                   228   0.027060721042034
                 64.71    0.10165684614077
                 21.06     0.2745748236174
                 7.495    0.44829431892377
                 2.797    0.28490261071525
                0.5215   0.015194859206082
 s    8 1.00
                  6665  -0.00029326965268655
                  1000  -0.0023180354739745
                   228  -0.011499786038565
                 64.71  -0.046826727009787
                 21.06   -0.12846616875047
                 7.495   -0.30126627246289
                 2.797   -0.25563070233011
                0.5215      1.093793361012
 s    1 1.00
                0.1596                   1
 p    3 1.00
                 9.439   0.056979251590039
                 2.002    0.31320721150073
                0.5456    0.76037674173753
 p    1 1.00
                0.1517                   1
 d    1 1.00
                  0.55                   1

26 0
 s    3 1.00
                 13.01   0.033498726389998
                 1.962    0.23480080117413
                0.4446     0.8136829578829
 s    1 1.00
                 0.122                   1
 p    1 1.00
                 0.727                   1

27 0
 s    3 1.00
                 13.01   0.033498726389998
                 1.962    0.23480080117413
                0.4446     0.8136829578829
 s    1 1.00
                 0.122                   1
 p    1 1.00
                 0.727                   1

28 0
 s    8 1.00
                  6665  0.00069158396281299
                  1000  0.0053257961529341
                   228   0.027060721042034
                 64.71    0.10165684614077
                 21.06     0.2745748236174
                 7.495    0.44829431892377
                 2.797    0.28490261071525
                0.5215   0.015194859206082
 s    8 1.00
                  6665  -0.00029326965268655
                  1000  -0.0023180354739745
                   228  -0.011499786038565
                 64.71  -0.046826727009787
                 21.06   -0.12846616875047
                 7.495   -0.30126627246289
                 2.797   -0.25563070233011
                0.5215      1.093793361012
 s    1 1.00
                0.1596                   1
 p    3 1.00
                 9.439   0.056979251590039
                 2.002    0.31320721150073
                0.5456    0.76037674173753
 p    1 1.00
                0.1517                   1
 d    1 1.00
                  0.55                   1

29 0
 s    3 1.00
                 13.01   0.033498726389998
                 1.962    0.23480080117413
                0.4446     0.8136829578829
 s    1 1.00
                 0.122                   1
 p    1 1.00
                 0.727                   1

30 0
 s    3 1.00
                 13.01   0.033498726389998
                 1.962    0.23480080117413
                0.4446     0.8136829578829
 s    1 1.00
                 0.122                   1
 p    1 1.00
                 0.727                   1

31 0
 s    8 1.00
                  6665  0.00069158396281299
                  1000  0.0053257961529341
                   228   0.027060721042034
                 64.71    0.10165684614077
                 21.06     0.2745748236174
                 7.495    0.44829431892377
                 2.797    0.28490261071525
                0.5215   0.015194859206082
 s    8 1.00
                  6665  -0.00029326965268655
                  1000  -0.0023180354739745
                   228  -0.011499786038565
                 64.71  -0.046826727009787
                 21.06   -0.12846616875047
                 7.495   -0.30126627246289
                 2.797   -0.25563070233011
                0.5215      1.093793361012
 s    1 1.00
                0.1596                   1
 p    3 1.00
                 9.439   0.056979251590039
                 2.002    0.31320721150073
                0.5456    0.76037674173753
 p    1 1.00
                0.1517                   1
 d    1 1.00
                  0.55                   1

32 0
 s    3 1.00
                 13.01   0.033498726389998
                 1.962    0.23480080117413
                0.4446     0.8136829578829
 s    1 1.00
                 0.122                   1
 p    1 1.00
                 0.727                   1

33 0
 s    3 1.00
                 13.01   0.033498726389998
                 1.962    0.23480080117413
                0.4446     0.8136829578829
 s    1 1.00
                 0.122                   1
 p    1 1.00
                 0.727                   1

34 0
 s    3 1.00
                 13.01   0.033498726389998
                 1.962    0.23480080117413
                0.4446     0.8136829578829
 s    1 1.00
                 0.122                   1
 p    1 1.00
                 0.727                   1

35 0
 s    3 1.00
                 13.01   0.033498726389998
                 1.962    0.23480080117413
                0.4446     0.8136829578829
 s    1 1.00
                 0.122                   1
 p    1 1.00
                 0.727                   1

36 0
 s    3 1.00
                 13.01   0.033498726389998
                 1.962    0.23480080117413
                0.4446     0.8136829578829
 s    1 1.00
                 0.122                   1
 p    1 1.00
                 0.727                   1

37 0
 s    3 1.00
                 13.01   0.033498726389998
                 1.962    0.23480080117413
                0.4446     0.8136829578829
 s    1 1.00
                 0.122                   1
 p    1 1.00
                 0.727                   1

[5d]
[7f]
[9g]

[MO]
 Sym= A
 Ene=               0
 Spin= Alpha
 Occup=    1.00000
   1    4.3111486546839e-05
   2    2.823078262464e-05
   3    -0.00010130375092152
   4    8.4979112899527e-08
   5    -3.9511427563492e-06
   6    -1.4346912087204e-06
   7    -5.4001793071158e-07
   8    2.0631937731932e-05
   9    7.1885438161652e-05
  10    -1.2424197484039e-05
  11    -8.9859229988709e-09
  12    8.1822898407678e-07
  13    -5.1515466117624e-07
  14    -2.5419228809466e-08
  15    1.3220658364896e-05
  16    0.00014666767125967
  17    8.846649425643e-08
  18    -1.3155702721576e-06
  19    3.5704075276015e-05
  20    6.2873303086457e-06
  21    -5.6790887757313e-05
  22    -1.7447324158625e-07
  23    5.7399950695694e-06
  24    -2.2703509725092e-06
  25      -1.0013631948829
  26    -0.0019544052760752
  27     0.006800366696156
  28    4.6961528718606e-06
  29    -8.2604914857025e-06
  30    0.0016549414432381
  31    2.8276597198231e-07
  32    1.4573081911628e-06
  33    -0.0018352719900633
  34    -0.00012569067012861
  35    2.975932479044e-06
  36    -1.3570912237596e-06
  37    -6.7472551238607e-05
  38    0.00017571132554184
  39    -0.00027480595327565
  40    -0.00037472258326446
  41    -0.0014218745770472
  42    -1.5127866712779e-05
  43    9.9494538955779e-06
  44    7.1331529862568e-06
  45    -8.1440854605104e-05
  46     6.33604979772e-05
  47    -0.0035585579251872
  48    0.00053302360848945
  49    8.4467533773351e-06
  50    -2.4596019062786e-06
  51    -2.8815524578701e-05
  52    0.00010754449767313
  53    8.4990354076359e-05
  54    0.00016625113213721
  55    -0.0013711293749726
  56    -7.8151456915799e-05
  57    7.4475229917283e-06
  58    3.590300269591e-05
  59    0.00042375587171879
  60    -0.00047704646198732
  61    0.00093005654563504
  62    0.00011752182670187
  63    -0.00015009294814674
  64    0.00014289009427131
  65    -5.5049106766221e-05
  66    0.00012987631221722
  67    4.0143108834073e-05
  68    9.8172660826986e-05
  69    -0.0005116500908303
  70    6.0943829438033e-05
  71    -3.9985780389192e-05
  72    6.260037677169e-05
  73    -0.0010016502185656
  74    0.0007711424068753
  75    0.00063891557599129
  76    0.00014097699200401
  77    0.00012075238887352
  78    -8.9676154006763e-05
  79    -5.8969659933549e-05
  80    0.00015178706306732
  81    6.4193119366012e-05
  82    -0.00020765805363966
  83    -6.6079090734076e-05
  84    4.8548406396935e-05
  85    -4.8853824389668e-05
  86    -2.501399405249e-05
  87    -4.8993314433027e-05
  88    0.0006063531008116
  89    1.5838429003912e-05
  90    1.7105111392575e-05
  91    -1.2020243601324e-05
  92    -0.00025681902168342
  93    -0.00062683491393788
  94    1.8110694359599e-05
  95    -1.8122433880314e-05
  96    -1.1203802106224e-05
  97    -7.3075093407864e-06
  98    2.0544069037115e-05
  99    4.5860932658064e-05
 100    3.750279727971e-05
 101    0.00015861123339777
 102    -9.0460251370263e-06
 103    9.8766083967436e-06
 104    -7.4636659473161e-05
 105    1.805392165029e-05
 106    0.00020118644436546
 107    6.4369311449197e-05
 108    -1.0923314627571e-05
 109    -7.4718784891029e-05
 110    -7.7315663186908e-05
 111    5.9466953294485e-05
 112    4.5386539606555e-05
 113    -1.8586417042483e-05
 114    -6.9722805918273e-05
 115    4.9620275434784e-05
 116    0.00010095991143403
 117    -0.00084229137385799
 118    2.5957276690752e-05
 119    1.0091320572281e-05
 120    -3.2541110056768e-05
 121    -0.00029383511701604
 122    -3.0975090036686e-05
 123    0.00013866331733935
 124    6.4064700226717e-06
 125    -1.2350312079201e-05
 126    -1.5584897269263e-05
 127    3.2115302807652e-05
 128    -4.9869148766662e-05
 129    1.907160434466e-05
 130    0.00032307286061422
 131    -7.5586309605787e-06
 132    -5.8766259719605e-06
 133    -2.9215546282367e-05
 134    -2.5901071082838e-05
 135    0.00011827936588501
 136    1.3479840457495e-05
 137    2.4177527559697e-05
 138    2.6657405817615e-05
 139    2.1220894808276e-05
 140    3.8670420643211e-05
 141    -0.00028846289684708
 142    -7.9181354265278e-06
 143    2.519049060192e-06
 144    6.1596465890691e-06
 145    0.00022995047506673
 146    -5.2512900406623e-05
 147    -6.375897828838e-05
 148    2.403018274988e-06
 149    -3.0587781998312e-06
 150    3.5706748981824e-06
 151    -1.1995735013499e-05
 152    4.9513610362632e-06
 153    9.6831451516695e-05
 154    0.00011044376495995
 155    2.5966291414165e-05
 156    -2.9580509011014e-05
 157    -2.017373860775e-05
 158    2.5736938043069e-05
 159    8.922471080153e-05
 160    5.9326630056136e-05
 161    7.1483602897824e-06
 162    -6.2667538498826e-06
 163    2.0280188587781e-06
 164    5.8137816995459e-06
 165    0.00024298256465619
 166    1.7551476625761e-05
 167    -1.4159639629763e-05
 168    -6.5804510166727e-06
 169    -0.00023748307306435
 170    0.00021261167785521
 171    0.00013319722880497
 172    2.8373506696112e-06
 173    -9.9707077410743e-06
 174    1.3530095903296e-05
 175    -3.2730866380998e-06
 176    1.820952028717e-05
 177    1.6006158006054e-05
 178    -8.3828152235216e-05
 179    8.0956458687846e-07
 180    -1.9541256998285e-06
 181    4.9504659111321e-06
 182    -1.5224413694487e-05
 183    -2.7041008950135e-05
 184    6.6735798884526e-05
 185    4.8172011261825e-06
 186    -3.5311337518522e-06
 187    -5.5633117948653e-06
 188    -0.00012689290756247
 189    0.00010215674563797
 190    8.5078720539715e-05
 191    -1.2823801292947e-06
 192    -2.0358770275103e-06
 193    7.6824320800368e-06
 194    3.082214936797e-06
 195    5.1267467135141e-06
 196    1.376184841396e-05
 197    1.862741797676e-05
 198    -5.6479298034195e-06
 199    -1.9583539866961e-06
 200    3.5369790097553e-06
 201    1.3187711886303e-05
 202    -3.7423686703062e-06
 203    1.3021449957188e-05
 204    -1.0003949156669e-05
 205    -1.1786293062954e-05
 206    -8.4897306936247e-06
 207    -6.8082445667491e-05
 208    1.6148227990711e-05
 209    -3.918607846718e-06
 210    -1.5595025677638e-05
 211    1.7831514663729e-05
 212    3.1089985231708e-05
 213    -0.00025625565548514
 214    -5.0893243186815e-06
 215    2.3190132767396e-06
 216    6.4293749932569e-06
 217    -0.00019571199424768
 218    5.3734693505568e-05
 219    7.7106540915118e-05
 220    1.785956228602e-06
 221    1.6280245228648e-05
 222     -5.4304423047e-06
 223    -9.2960057822259e-06
 224    1.6802376021747e-06
 225    -2.5386134817444e-05
 226    -5.4283160139203e-05
 227    1.2265925119673e-05
 228    1.9078999410289e-06
 229    9.8514200601714e-07
 230    -9.7229098249946e-06
 231    -5.4353472332405e-05
 232    3.9671764635438e-06
 233    -6.3072219523548e-06
 234    -1.1970728253817e-05
 235    -4.04391753239e-07
 236    -6.6550079488506e-07
 237    7.8350352050662e-05
 238    -2.327204828679e-06
 239    -2.0099749153724e-06
 240    3.798139598284e-06
 241    -3.532739685287e-05
 242    6.2639256153082e-05
 243    -1.780567578513e-05
 244    -1.8997298747807e-06
 245    -1.8135374890532e-06
 246    1.9192421049228e-06
 247    -1.711389505654e-07
 248    -9.3045936416318e-07
 249    1.7685964173136e-05
 250    -1.358026649255e-05
 251    4.579734165255e-06
 252    9.2509779032771e-07
 253     1.68075903593e-07
 254    1.5910040439138e-05
 255    -5.5978661764629e-05
 256    4.7623452571165e-08
 257    -4.4173687637619e-06
 258    8.9476493640907e-07
 259    2.7366115836592e-06
 260    1.6468054438744e-05
 261    -8.1123539649174e-05
 262    2.6487179728687e-06
 263    2.0232562651325e-06