[Molden Format]
made by pyscf v[2.0.1]
[Atoms] (AU)
O   1   8     0.00000000000000     0.00000000000000    10.94175058546756
H   2   1     0.00000000000000     0.00000000000000     9.11834876356659
H   3   1    -0.05031916615174     1.78353065140343    11.31762228193423
O   4   8     0.00000000000000     0.00000000000000     2.31533471513237
C   5   6     0.00000000000000     0.00000000000000     0.00000000000000
C   6   6     2.01118073026938    -1.40227222164369    -1.50774939176400
C   7   6    -2.01249334291722     1.41331050329955    -1.50315905028694
H   8   1     3.32037363730244    -2.26721897153159    -0.13599698591495
C   9   6     3.45899267434009     0.28739631745591    -3.37437943254505
H   10   1     1.07662969841332    -2.94725144642667    -2.56541439481080
H   11   1    -2.67503415753480     0.18421555839588    -3.06194479365997
H   12   1    -1.07974048864772     3.03851734677796    -2.43674295017013
C   13   6    -4.21607110578555     2.32938802552922     0.11994162256091
H   14   1     4.24440173074564     1.93368664142019    -2.34976285512790
H   15   1     2.15020713235517     1.04714335134846    -4.81494497423699
C   16   6     5.60746363007797    -1.12419643481196    -4.70268606082550
H   17   1    -3.46838323670267     3.50951302338067     1.66946842715333
H   18   1    -5.11873485366228     0.68575958301209     1.04047743976495
C   19   6    -6.18314754751344     3.80909592987882    -1.39656589068747
H   20   1     6.93011263717176    -1.87550812453645    -3.26656317360070
C   21   6     7.06356622236532     0.52877932406334    -6.57829775293605
H   22   1     4.82318879258361    -2.78573437948532    -5.70504560381835
H   23   1    -6.91582688743803     2.61304780074712    -2.95074552451969
H   24   1    -5.26532430573853     5.45420349051338    -2.31005832200284
C   25   6    -8.39941882261433     4.73263980500213     0.21800571437956
H   26   1     7.83338371486801     2.19084139882824    -5.57093109900697
H   27   1     5.73544244039420     1.27376866537418    -8.01071492370229
C   28   6     9.21124858443101    -0.89699110072176    -7.88926949186242
H   29   1    -7.66272760055236     5.92277078003992     1.77035591474408
H   30   1    -9.31497248082589     3.08753015622020     1.12614408368786
C   31   6   -10.35481709231879     6.21833079391143    -1.30905206253246
H   32   1    10.58815905329501    -1.61074586756696    -6.49512691622620
H   33   1    10.23506248045667     0.32468009384095    -9.23072870921204
H   34   1     8.47665842847139    -2.53598436989925    -8.94921964622535
H   35   1    -9.48948872868064     7.90013588951020    -2.18823918416067
H   36   1   -11.93332513000955     6.86460487874102    -0.11255798845995
H   37   1   -11.15126291841033     5.04495968327630    -2.83849898862534
[GTO]
1 0
 s    8 1.00
                 11720  0.00070964594651845
                  1759  0.0054672722921914
                 400.8   0.027823118610189
                 113.7    0.10474773971146
                 37.03    0.28292084635691
                 13.27    0.44849523869833
                 5.025    0.27081688521277
                 1.013    0.01545029160744
 s    8 1.00
                 11720  -0.00031444341168873
                  1759  -0.0024821376810179
                 400.8  -0.012316355381583
                 113.7  -0.050538917343672
                 37.03   -0.13938490331632
                 13.27   -0.32507749481778
                 5.025   -0.22984830758785
                 1.013     1.0953793467883
 s    1 1.00
                0.3023                   1
 p    3 1.00
                  17.7   0.062679166281506
                 3.854    0.33353656587936
                 1.046    0.74123964163973
 p    1 1.00
                0.2753                   1
 d    1 1.00
                 1.185                   1

2 0
 s    3 1.00
                 13.01   0.033498726389998
                 1.962    0.23480080117413
                0.4446     0.8136829578829
 s    1 1.00
                 0.122                   1
 p    1 1.00
                 0.727                   1

3 0
 s    3 1.00
                 13.01   0.033498726389998
                 1.962    0.23480080117413
                0.4446     0.8136829578829
 s    1 1.00
                 0.122                   1
 p    1 1.00
                 0.727                   1

4 0
 s    8 1.00
                 11720  0.00070964594651845
                  1759  0.0054672722921914
                 400.8   0.027823118610189
                 113.7    0.10474773971146
                 37.03    0.28292084635691
                 13.27    0.44849523869833
                 5.025    0.27081688521277
                 1.013    0.01545029160744
 s    8 1.00
                 11720  -0.00031444341168873
                  1759  -0.0024821376810179
                 400.8  -0.012316355381583
                 113.7  -0.050538917343672
                 37.03   -0.13938490331632
                 13.27   -0.32507749481778
                 5.025   -0.22984830758785
                 1.013     1.0953793467883
 s    1 1.00
                0.3023                   1
 p    3 1.00
                  17.7   0.062679166281506
                 3.854    0.33353656587936
                 1.046    0.74123964163973
 p    1 1.00
                0.2753                   1
 d    1 1.00
                 1.185                   1

5 0
 s    8 1.00
                  6665  0.00069158396281299
                  1000  0.0053257961529341
                   228   0.027060721042034
                 64.71    0.10165684614077
                 21.06     0.2745748236174
                 7.495    0.44829431892377
                 2.797    0.28490261071525
                0.5215   0.015194859206082
 s    8 1.00
                  6665  -0.00029326965268655
                  1000  -0.0023180354739745
                   228  -0.011499786038565
                 64.71  -0.046826727009787
                 21.06   -0.12846616875047
                 7.495   -0.30126627246289
                 2.797   -0.25563070233011
                0.5215      1.093793361012
 s    1 1.00
                0.1596                   1
 p    3 1.00
                 9.439   0.056979251590039
                 2.002    0.31320721150073
                0.5456    0.76037674173753
 p    1 1.00
                0.1517                   1
 d    1 1.00
                  0.55                   1

6 0
 s    8 1.00
                  6665  0.00069158396281299
                  1000  0.0053257961529341
                   228   0.027060721042034
                 64.71    0.10165684614077
                 21.06     0.2745748236174
                 7.495    0.44829431892377
                 2.797    0.28490261071525
                0.5215   0.015194859206082
 s    8 1.00
                  6665  -0.00029326965268655
                  1000  -0.0023180354739745
                   228  -0.011499786038565
                 64.71  -0.046826727009787
                 21.06   -0.12846616875047
                 7.495   -0.30126627246289
                 2.797   -0.25563070233011
                0.5215      1.093793361012
 s    1 1.00
                0.1596                   1
 p    3 1.00
                 9.439   0.056979251590039
                 2.002    0.31320721150073
                0.5456    0.76037674173753
 p    1 1.00
                0.1517                   1
 d    1 1.00
                  0.55                   1

7 0
 s    8 1.00
                  6665  0.00069158396281299
                  1000  0.0053257961529341
                   228   0.027060721042034
                 64.71    0.10165684614077
                 21.06     0.2745748236174
                 7.495    0.44829431892377
                 2.797    0.28490261071525
                0.5215   0.015194859206082
 s    8 1.00
                  6665  -0.00029326965268655
                  1000  -0.0023180354739745
                   228  -0.011499786038565
                 64.71  -0.046826727009787
                 21.06   -0.12846616875047
                 7.495   -0.30126627246289
                 2.797   -0.25563070233011
                0.5215      1.093793361012
 s    1 1.00
                0.1596                   1
 p    3 1.00
                 9.439   0.056979251590039
                 2.002    0.31320721150073
                0.5456    0.76037674173753
 p    1 1.00
                0.1517                   1
 d    1 1.00
                  0.55                   1

8 0
 s    3 1.00
                 13.01   0.033498726389998
                 1.962    0.23480080117413
                0.4446     0.8136829578829
 s    1 1.00
                 0.122                   1
 p    1 1.00
                 0.727                   1

9 0
 s    8 1.00
                  6665  0.00069158396281299
                  1000  0.0053257961529341
                   228   0.027060721042034
                 64.71    0.10165684614077
                 21.06     0.2745748236174
                 7.495    0.44829431892377
                 2.797    0.28490261071525
                0.5215   0.015194859206082
 s    8 1.00
                  6665  -0.00029326965268655
                  1000  -0.0023180354739745
                   228  -0.011499786038565
                 64.71  -0.046826727009787
                 21.06   -0.12846616875047
                 7.495   -0.30126627246289
                 2.797   -0.25563070233011
                0.5215      1.093793361012
 s    1 1.00
                0.1596                   1
 p    3 1.00
                 9.439   0.056979251590039
                 2.002    0.31320721150073
                0.5456    0.76037674173753
 p    1 1.00
                0.1517                   1
 d    1 1.00
                  0.55                   1

10 0
 s    3 1.00
                 13.01   0.033498726389998
                 1.962    0.23480080117413
                0.4446     0.8136829578829
 s    1 1.00
                 0.122                   1
 p    1 1.00
                 0.727                   1

11 0
 s    3 1.00
                 13.01   0.033498726389998
                 1.962    0.23480080117413
                0.4446     0.8136829578829
 s    1 1.00
                 0.122                   1
 p    1 1.00
                 0.727                   1

12 0
 s    3 1.00
                 13.01   0.033498726389998
                 1.962    0.23480080117413
                0.4446     0.8136829578829
 s    1 1.00
                 0.122                   1
 p    1 1.00
                 0.727                   1

13 0
 s    8 1.00
                  6665  0.00069158396281299
                  1000  0.0053257961529341
                   228   0.027060721042034
                 64.71    0.10165684614077
                 21.06     0.2745748236174
                 7.495    0.44829431892377
                 2.797    0.28490261071525
                0.5215   0.015194859206082
 s    8 1.00
                  6665  -0.00029326965268655
                  1000  -0.0023180354739745
                   228  -0.011499786038565
                 64.71  -0.046826727009787
                 21.06   -0.12846616875047
                 7.495   -0.30126627246289
                 2.797   -0.25563070233011
                0.5215      1.093793361012
 s    1 1.00
                0.1596                   1
 p    3 1.00
                 9.439   0.056979251590039
                 2.002    0.31320721150073
                0.5456    0.76037674173753
 p    1 1.00
                0.1517                   1
 d    1 1.00
                  0.55                   1

14 0
 s    3 1.00
                 13.01   0.033498726389998
                 1.962    0.23480080117413
                0.4446     0.8136829578829
 s    1 1.00
                 0.122                   1
 p    1 1.00
                 0.727                   1

15 0
 s    3 1.00
                 13.01   0.033498726389998
                 1.962    0.23480080117413
                0.4446     0.8136829578829
 s    1 1.00
                 0.122                   1
 p    1 1.00
                 0.727                   1

16 0
 s    8 1.00
                  6665  0.00069158396281299
                  1000  0.0053257961529341
                   228   0.027060721042034
                 64.71    0.10165684614077
                 21.06     0.2745748236174
                 7.495    0.44829431892377
                 2.797    0.28490261071525
                0.5215   0.015194859206082
 s    8 1.00
                  6665  -0.00029326965268655
                  1000  -0.0023180354739745
                   228  -0.011499786038565
                 64.71  -0.046826727009787
                 21.06   -0.12846616875047
                 7.495   -0.30126627246289
                 2.797   -0.25563070233011
                0.5215      1.093793361012
 s    1 1.00
                0.1596                   1
 p    3 1.00
                 9.439   0.056979251590039
                 2.002    0.31320721150073
                0.5456    0.76037674173753
 p    1 1.00
                0.1517                   1
 d    1 1.00
                  0.55                   1

17 0
 s    3 1.00
                 13.01   0.033498726389998
                 1.962    0.23480080117413
                0.4446     0.8136829578829
 s    1 1.00
                 0.122                   1
 p    1 1.00
                 0.727                   1

18 0
 s    3 1.00
                 13.01   0.033498726389998
                 1.962    0.23480080117413
                0.4446     0.8136829578829
 s    1 1.00
                 0.122                   1
 p    1 1.00
                 0.727                   1

19 0
 s    8 1.00
                  6665  0.00069158396281299
                  1000  0.0053257961529341
                   228   0.027060721042034
                 64.71    0.10165684614077
                 21.06     0.2745748236174
                 7.495    0.44829431892377
                 2.797    0.28490261071525
                0.5215   0.015194859206082
 s    8 1.00
                  6665  -0.00029326965268655
                  1000  -0.0023180354739745
                   228  -0.011499786038565
                 64.71  -0.046826727009787
                 21.06   -0.12846616875047
                 7.495   -0.30126627246289
                 2.797   -0.25563070233011
                0.5215      1.093793361012
 s    1 1.00
                0.1596                   1
 p    3 1.00
                 9.439   0.056979251590039
                 2.002    0.31320721150073
                0.5456    0.76037674173753
 p    1 1.00
                0.1517                   1
 d    1 1.00
                  0.55                   1

20 0
 s    3 1.00
                 13.01   0.033498726389998
                 1.962    0.23480080117413
                0.4446     0.8136829578829
 s    1 1.00
                 0.122                   1
 p    1 1.00
                 0.727                   1

21 0
 s    8 1.00
                  6665  0.00069158396281299
                  1000  0.0053257961529341
                   228   0.027060721042034
                 64.71    0.10165684614077
                 21.06     0.2745748236174
                 7.495    0.44829431892377
                 2.797    0.28490261071525
                0.5215   0.015194859206082
 s    8 1.00
                  6665  -0.00029326965268655
                  1000  -0.0023180354739745
                   228  -0.011499786038565
                 64.71  -0.046826727009787
                 21.06   -0.12846616875047
                 7.495   -0.30126627246289
                 2.797   -0.25563070233011
                0.5215      1.093793361012
 s    1 1.00
                0.1596                   1
 p    3 1.00
                 9.439   0.056979251590039
                 2.002    0.31320721150073
                0.5456    0.76037674173753
 p    1 1.00
                0.1517                   1
 d    1 1.00
                  0.55                   1

22 0
 s    3 1.00
                 13.01   0.033498726389998
                 1.962    0.23480080117413
                0.4446     0.8136829578829
 s    1 1.00
                 0.122                   1
 p    1 1.00
                 0.727                   1

23 0
 s    3 1.00
                 13.01   0.033498726389998
                 1.962    0.23480080117413
                0.4446     0.8136829578829
 s    1 1.00
                 0.122                   1
 p    1 1.00
                 0.727                   1

24 0
 s    3 1.00
                 13.01   0.033498726389998
                 1.962    0.23480080117413
                0.4446     0.8136829578829
 s    1 1.00
                 0.122                   1
 p    1 1.00
                 0.727                   1

25 0
 s    8 1.00
                  6665  0.00069158396281299
                  1000  0.0053257961529341
                   228   0.027060721042034
                 64.71    0.10165684614077
                 21.06     0.2745748236174
                 7.495    0.44829431892377
                 2.797    0.28490261071525
                0.5215   0.015194859206082
 s    8 1.00
                  6665  -0.00029326965268655
                  1000  -0.0023180354739745
                   228  -0.011499786038565
                 64.71  -0.046826727009787
                 21.06   -0.12846616875047
                 7.495   -0.30126627246289
                 2.797   -0.25563070233011
                0.5215      1.093793361012
 s    1 1.00
                0.1596                   1
 p    3 1.00
                 9.439   0.056979251590039
                 2.002    0.31320721150073
                0.5456    0.76037674173753
 p    1 1.00
                0.1517                   1
 d    1 1.00
                  0.55                   1

26 0
 s    3 1.00
                 13.01   0.033498726389998
                 1.962    0.23480080117413
                0.4446     0.8136829578829
 s    1 1.00
                 0.122                   1
 p    1 1.00
                 0.727                   1

27 0
 s    3 1.00
                 13.01   0.033498726389998
                 1.962    0.23480080117413
                0.4446     0.8136829578829
 s    1 1.00
                 0.122                   1
 p    1 1.00
                 0.727                   1

28 0
 s    8 1.00
                  6665  0.00069158396281299
                  1000  0.0053257961529341
                   228   0.027060721042034
                 64.71    0.10165684614077
                 21.06     0.2745748236174
                 7.495    0.44829431892377
                 2.797    0.28490261071525
                0.5215   0.015194859206082
 s    8 1.00
                  6665  -0.00029326965268655
                  1000  -0.0023180354739745
                   228  -0.011499786038565
                 64.71  -0.046826727009787
                 21.06   -0.12846616875047
                 7.495   -0.30126627246289
                 2.797   -0.25563070233011
                0.5215      1.093793361012
 s    1 1.00
                0.1596                   1
 p    3 1.00
                 9.439   0.056979251590039
                 2.002    0.31320721150073
                0.5456    0.76037674173753
 p    1 1.00
                0.1517                   1
 d    1 1.00
                  0.55                   1

29 0
 s    3 1.00
                 13.01   0.033498726389998
                 1.962    0.23480080117413
                0.4446     0.8136829578829
 s    1 1.00
                 0.122                   1
 p    1 1.00
                 0.727                   1

30 0
 s    3 1.00
                 13.01   0.033498726389998
                 1.962    0.23480080117413
                0.4446     0.8136829578829
 s    1 1.00
                 0.122                   1
 p    1 1.00
                 0.727                   1

31 0
 s    8 1.00
                  6665  0.00069158396281299
                  1000  0.0053257961529341
                   228   0.027060721042034
                 64.71    0.10165684614077
                 21.06     0.2745748236174
                 7.495    0.44829431892377
                 2.797    0.28490261071525
                0.5215   0.015194859206082
 s    8 1.00
                  6665  -0.00029326965268655
                  1000  -0.0023180354739745
                   228  -0.011499786038565
                 64.71  -0.046826727009787
                 21.06   -0.12846616875047
                 7.495   -0.30126627246289
                 2.797   -0.25563070233011
                0.5215      1.093793361012
 s    1 1.00
                0.1596                   1
 p    3 1.00
                 9.439   0.056979251590039
                 2.002    0.31320721150073
                0.5456    0.76037674173753
 p    1 1.00
                0.1517                   1
 d    1 1.00
                  0.55                   1

32 0
 s    3 1.00
                 13.01   0.033498726389998
                 1.962    0.23480080117413
                0.4446     0.8136829578829
 s    1 1.00
                 0.122                   1
 p    1 1.00
                 0.727                   1

33 0
 s    3 1.00
                 13.01   0.033498726389998
                 1.962    0.23480080117413
                0.4446     0.8136829578829
 s    1 1.00
                 0.122                   1
 p    1 1.00
                 0.727                   1

34 0
 s    3 1.00
                 13.01   0.033498726389998
                 1.962    0.23480080117413
                0.4446     0.8136829578829
 s    1 1.00
                 0.122                   1
 p    1 1.00
                 0.727                   1

35 0
 s    3 1.00
                 13.01   0.033498726389998
                 1.962    0.23480080117413
                0.4446     0.8136829578829
 s    1 1.00
                 0.122                   1
 p    1 1.00
                 0.727                   1

36 0
 s    3 1.00
                 13.01   0.033498726389998
                 1.962    0.23480080117413
                0.4446     0.8136829578829
 s    1 1.00
                 0.122                   1
 p    1 1.00
                 0.727                   1

37 0
 s    3 1.00
                 13.01   0.033498726389998
                 1.962    0.23480080117413
                0.4446     0.8136829578829
 s    1 1.00
                 0.122                   1
 p    1 1.00
                 0.727                   1

[5d]
[7f]
[9g]

[MO]
 Sym= A
 Ene=               0
 Spin= Alpha
 Occup=    1.00000
   1    -2.8757873200994e-05
   2    -1.6002504969855e-05
   3    6.2549146694844e-05
   4    -5.847843890316e-08
   5    2.3721892373876e-06
   6    -3.2894827878773e-07
   7    3.8556863696747e-07
   8    -1.4142263934865e-05
   9    -4.6787129039103e-05
  10    8.766589439332e-06
  11    1.3551686563288e-08
  12    -6.4161558359632e-07
  13    5.6926979408518e-07
  14    3.0923722638867e-08
  15    -7.6368366845975e-06
  16    -9.2549653115656e-05
  17    -4.1031027740226e-08
  18    8.8550198542469e-07
  19    -2.7480086454819e-05
  20    -3.5634975185271e-06
  21    3.7926155348545e-05
  22    1.3330388454908e-07
  23    -4.5751586464892e-06
  24    1.3625665267204e-06
  25       1.0013591178247
  26    0.0019458166163971
  27    -0.0067646869254891
  28    -4.5636131066594e-06
  29    7.6248763989702e-06
  30    -0.0016592088429748
  31    -3.2604710642151e-07
  32    -1.1858238229307e-06
  33    0.0018114635214319
  34    0.00012982433117541
  35    -3.0233743316824e-06
  36    1.3204848360981e-06
  37    6.7673640801566e-05
  38    -0.00017627548774595
  39    0.00027178339684994
  40    0.0003680377359942
  41    0.0013959834348873
  42    1.4882424593249e-05
  43    -9.9359949421688e-06
  44    -1.4336125530954e-05
  45    8.1964963674253e-05
  46    -6.3034005343107e-05
  47    0.0035333760167646
  48    -0.00053969986656709
  49    -8.5585273684642e-06
  50    2.4650433974847e-06
  51    2.8496762834179e-05
  52    -0.00010678659144884
  53    -8.5082797150224e-05
  54    -0.00016642859187861
  55    0.0013668080297895
  56    7.8084748475576e-05
  57    -7.491932943685e-06
  58    -3.628630869538e-05
  59    -0.00042338786445859
  60    0.00047590204496838
  61    -0.00092061167335244
  62    -0.00011793892481526
  63    0.00015021633890796
  64    -0.00014282401577279
  65    5.5265108033908e-05
  66    -0.00013060044472935
  67    -4.0550831301087e-05
  68    -9.8894994483067e-05
  69    0.00051058593548722
  70    -6.0687866217434e-05
  71    3.9726505077437e-05
  72    -6.2778741302762e-05
  73    0.00099836072834491
  74    -0.00076939215346266
  75    -0.0006337922632942
  76    -0.00014146527982155
  77    -0.00012061051373225
  78    8.9643704285911e-05
  79    5.9197924448005e-05
  80    -0.00015237893265968
  81    -6.5292615178266e-05
  82    0.00020624408521451
  83    6.5865970979432e-05
  84    -4.837335436824e-05
  85    4.917783571153e-05
  86    2.4981674038258e-05
  87    4.8954718789819e-05
  88    -0.00060230711992586
  89    -1.5907712522818e-05
  90    -1.7083611264382e-05
  91    1.2214288459011e-05
  92    0.00025572372323484
  93    0.00062183718345762
  94    -1.9501524112526e-05
  95    1.7952945847331e-05
  96    1.1121989878587e-05
  97    7.1136019696476e-06
  98    -2.079691613582e-05
  99    -4.5322061266426e-05
 100    -3.6723739848906e-05
 101    -0.00015729444236448
 102    9.6224734420252e-06
 103    -9.7040502393201e-06
 104    7.4100893793136e-05
 105    -1.7735218353878e-05
 106    -0.00020001340548006
 107    -6.4517727144423e-05
 108    1.1564927733475e-05
 109    7.4414149075601e-05
 110    7.7215220616712e-05
 111    -5.7807974234449e-05
 112    -4.5684119147373e-05
 113    1.8244088249859e-05
 114    6.9398812674444e-05
 115    -4.9969465695981e-05
 116    -0.00010163175676336
 117    0.00083956044025577
 118    -2.6349085868771e-05
 119    -9.8162099103764e-06
 120    3.2608684773691e-05
 121    0.00029764126112409
 122    2.9458874884717e-05
 123    -0.00013321351734442
 124    -6.4426162866975e-06
 125    1.2648496628575e-05
 126    1.5926608165512e-05
 127    -3.2168887508407e-05
 128    4.9800493390033e-05
 129    -1.8879024032827e-05
 130    -0.00032017881550727
 131    7.4389419595187e-06
 132    5.8467237910504e-06
 133    2.9119264112376e-05
 134    2.5932866864466e-05
 135    -0.00011865779136976
 136    -1.341956687611e-05
 137    -2.3933274908686e-05
 138    -2.6510139429861e-05
 139    -2.1059000264142e-05
 140    -3.8382092240966e-05
 141    0.0002848861243446
 142    7.9643315613063e-06
 143    -2.4315062063467e-06
 144    -6.1897601658064e-06
 145    -0.00022951003153723
 146    5.096589309637e-05
 147    6.4638669712955e-05
 148    -2.359841620002e-06
 149    3.0247898595236e-06
 150    -3.3807194555572e-06
 151    1.1850488868175e-05
 152    -4.9825788532355e-06
 153    -9.6989277786629e-05
 154    -0.00011472836021838
 155    -2.5730482275361e-05
 156    3.0102445995359e-05
 157    2.0593716633172e-05
 158    -2.5784599907985e-05
 159    -8.9722040372277e-05
 160    -5.9485451210227e-05
 161    -7.1245146080119e-06
 162    6.0612887294193e-06
 163    -2.4384709285261e-06
 164    -6.5354300727062e-06
 165    -0.00023678035756586
 166    -1.7437713382863e-05
 167    1.4139857528064e-05
 168    6.5504770851232e-06
 169    0.0002390163841434
 170    -0.00021431537744441
 171    -0.00013117838829159
 172    -2.9696422372563e-06
 173    1.0014106146937e-05
 174    -1.3595086053238e-05
 175    3.3102478562519e-06
 176    -1.8385905358814e-05
 177    -1.5905432357003e-05
 178    8.3149254951199e-05
 179    -7.1262516268173e-07
 180    2.018872017506e-06
 181    -4.9962929208656e-06
 182    1.5024997807792e-05
 183    2.6699815277123e-05
 184    -6.4335720877351e-05
 185    -4.8615117911021e-06
 186    3.4689082418338e-06
 187    5.5975959429068e-06
 188    0.00012598561930695
 189    -0.00010223203617648
 190    -8.3800019517631e-05
 191    1.2969544428974e-06
 192    1.9704540819471e-06
 193    -7.7026437493447e-06
 194    -3.092314517195e-06
 195    -5.0209905891885e-06
 196    -1.3876809458138e-05
 197    -1.8467185367678e-05
 198    5.6433061377236e-06
 199    1.9691297843488e-06
 200    -3.6103268448352e-06
 201    -1.3360505566157e-05
 202    4.134942678561e-06
 203    -1.2944605941606e-05
 204    1.0079192125168e-05
 205    1.1802762092747e-05
 206    8.3911143241224e-06
 207    6.8223176128396e-05
 208    -1.6220443822604e-05
 209    3.9438628898277e-06
 210    1.5540680745901e-05
 211    -1.7669976140922e-05
 212    -3.0828788699897e-05
 213    0.00025354086688821
 214    4.9317118343524e-06
 215    -2.2759902076269e-06
 216    -6.4143105513986e-06
 217    0.00019607069565647
 218    -5.3919258133538e-05
 219    -7.6618270827218e-05
 220    -1.7767617315083e-06
 221    -1.6320908966366e-05
 222    5.4225297050175e-06
 223     9.27485427607e-06
 224    -1.6521626201252e-06
 225    2.5146568921725e-05
 226    5.3827651392853e-05
 227    -1.2200514990903e-05
 228    -1.8609733241756e-06
 229    -9.920208655262e-07
 230    9.6224697357132e-06
 231    5.4401698747552e-05
 232    -3.9375150065461e-06
 233    6.2672245852986e-06
 234    1.1936774430538e-05
 235    3.8632800895728e-07
 236    6.2849498741302e-07
 237    -7.8144541431096e-05
 238    2.3438071117014e-06
 239    1.9954679004909e-06
 240    -3.803011244578e-06
 241    3.5088998315339e-05
 242    -6.2384264175473e-05
 243    1.7701847420743e-05
 244    1.8803486522707e-06
 245    1.7954966538834e-06
 246    -1.9248872239016e-06
 247    1.751168632843e-07
 248    9.2666346440873e-07
 249    -1.7720350492162e-05
 250    1.4345825067903e-05
 251    -4.6149123133061e-06
 252    -9.8234568917422e-07
 253    -2.4416425681032e-07
 254    -1.5763083703202e-05
 255    5.6055591663363e-05
 256    -1.126905822884e-07
 257    4.4509691174517e-06
 258    -9.1304561704104e-07
 259    -2.8429876366554e-06
 260    -1.6679563339285e-05
 261    8.2796615109336e-05
 262    -2.6247334067857e-06