[Molden Format]
made by pyscf v[2.0.1]
[Atoms] (AU)
O   1   8     0.00000000000000     0.00000000000000     8.67407923598948
H   2   1     0.00000000000000     0.00000000000000     6.85067741408852
H   3   1    -0.05031916615174     1.78353065140343     9.04995093245615
O   4   8     0.00000000000000     0.00000000000000     2.31533471513237
C   5   6     0.00000000000000     0.00000000000000     0.00000000000000
C   6   6     2.01118073026938    -1.40227222164369    -1.50774939176400
C   7   6    -2.01249334291722     1.41331050329955    -1.50315905028694
H   8   1     3.32037363730244    -2.26721897153159    -0.13599698591495
C   9   6     3.45899267434009     0.28739631745591    -3.37437943254505
H   10   1     1.07662969841332    -2.94725144642667    -2.56541439481080
H   11   1    -2.67503415753480     0.18421555839588    -3.06194479365997
H   12   1    -1.07974048864772     3.03851734677796    -2.43674295017013
C   13   6    -4.21607110578555     2.32938802552922     0.11994162256091
H   14   1     4.24440173074564     1.93368664142019    -2.34976285512790
H   15   1     2.15020713235517     1.04714335134846    -4.81494497423699
C   16   6     5.60746363007797    -1.12419643481196    -4.70268606082550
H   17   1    -3.46838323670267     3.50951302338067     1.66946842715333
H   18   1    -5.11873485366228     0.68575958301209     1.04047743976495
C   19   6    -6.18314754751344     3.80909592987882    -1.39656589068747
H   20   1     6.93011263717176    -1.87550812453645    -3.26656317360070
C   21   6     7.06356622236532     0.52877932406334    -6.57829775293605
H   22   1     4.82318879258361    -2.78573437948532    -5.70504560381835
H   23   1    -6.91582688743803     2.61304780074712    -2.95074552451969
H   24   1    -5.26532430573853     5.45420349051338    -2.31005832200284
C   25   6    -8.39941882261433     4.73263980500213     0.21800571437956
H   26   1     7.83338371486801     2.19084139882824    -5.57093109900697
H   27   1     5.73544244039420     1.27376866537418    -8.01071492370229
C   28   6     9.21124858443101    -0.89699110072176    -7.88926949186242
H   29   1    -7.66272760055236     5.92277078003992     1.77035591474408
H   30   1    -9.31497248082589     3.08753015622020     1.12614408368786
C   31   6   -10.35481709231879     6.21833079391143    -1.30905206253246
H   32   1    10.58815905329501    -1.61074586756696    -6.49512691622620
H   33   1    10.23506248045667     0.32468009384095    -9.23072870921204
H   34   1     8.47665842847139    -2.53598436989925    -8.94921964622535
H   35   1    -9.48948872868064     7.90013588951020    -2.18823918416067
H   36   1   -11.93332513000955     6.86460487874102    -0.11255798845995
H   37   1   -11.15126291841033     5.04495968327630    -2.83849898862534
[GTO]
1 0
 s    8 1.00
                 11720  0.00070964594651845
                  1759  0.0054672722921914
                 400.8   0.027823118610189
                 113.7    0.10474773971146
                 37.03    0.28292084635691
                 13.27    0.44849523869833
                 5.025    0.27081688521277
                 1.013    0.01545029160744
 s    8 1.00
                 11720  -0.00031444341168873
                  1759  -0.0024821376810179
                 400.8  -0.012316355381583
                 113.7  -0.050538917343672
                 37.03   -0.13938490331632
                 13.27   -0.32507749481778
                 5.025   -0.22984830758785
                 1.013     1.0953793467883
 s    1 1.00
                0.3023                   1
 p    3 1.00
                  17.7   0.062679166281506
                 3.854    0.33353656587936
                 1.046    0.74123964163973
 p    1 1.00
                0.2753                   1
 d    1 1.00
                 1.185                   1

2 0
 s    3 1.00
                 13.01   0.033498726389998
                 1.962    0.23480080117413
                0.4446     0.8136829578829
 s    1 1.00
                 0.122                   1
 p    1 1.00
                 0.727                   1

3 0
 s    3 1.00
                 13.01   0.033498726389998
                 1.962    0.23480080117413
                0.4446     0.8136829578829
 s    1 1.00
                 0.122                   1
 p    1 1.00
                 0.727                   1

4 0
 s    8 1.00
                 11720  0.00070964594651845
                  1759  0.0054672722921914
                 400.8   0.027823118610189
                 113.7    0.10474773971146
                 37.03    0.28292084635691
                 13.27    0.44849523869833
                 5.025    0.27081688521277
                 1.013    0.01545029160744
 s    8 1.00
                 11720  -0.00031444341168873
                  1759  -0.0024821376810179
                 400.8  -0.012316355381583
                 113.7  -0.050538917343672
                 37.03   -0.13938490331632
                 13.27   -0.32507749481778
                 5.025   -0.22984830758785
                 1.013     1.0953793467883
 s    1 1.00
                0.3023                   1
 p    3 1.00
                  17.7   0.062679166281506
                 3.854    0.33353656587936
                 1.046    0.74123964163973
 p    1 1.00
                0.2753                   1
 d    1 1.00
                 1.185                   1

5 0
 s    8 1.00
                  6665  0.00069158396281299
                  1000  0.0053257961529341
                   228   0.027060721042034
                 64.71    0.10165684614077
                 21.06     0.2745748236174
                 7.495    0.44829431892377
                 2.797    0.28490261071525
                0.5215   0.015194859206082
 s    8 1.00
                  6665  -0.00029326965268655
                  1000  -0.0023180354739745
                   228  -0.011499786038565
                 64.71  -0.046826727009787
                 21.06   -0.12846616875047
                 7.495   -0.30126627246289
                 2.797   -0.25563070233011
                0.5215      1.093793361012
 s    1 1.00
                0.1596                   1
 p    3 1.00
                 9.439   0.056979251590039
                 2.002    0.31320721150073
                0.5456    0.76037674173753
 p    1 1.00
                0.1517                   1
 d    1 1.00
                  0.55                   1

6 0
 s    8 1.00
                  6665  0.00069158396281299
                  1000  0.0053257961529341
                   228   0.027060721042034
                 64.71    0.10165684614077
                 21.06     0.2745748236174
                 7.495    0.44829431892377
                 2.797    0.28490261071525
                0.5215   0.015194859206082
 s    8 1.00
                  6665  -0.00029326965268655
                  1000  -0.0023180354739745
                   228  -0.011499786038565
                 64.71  -0.046826727009787
                 21.06   -0.12846616875047
                 7.495   -0.30126627246289
                 2.797   -0.25563070233011
                0.5215      1.093793361012
 s    1 1.00
                0.1596                   1
 p    3 1.00
                 9.439   0.056979251590039
                 2.002    0.31320721150073
                0.5456    0.76037674173753
 p    1 1.00
                0.1517                   1
 d    1 1.00
                  0.55                   1

7 0
 s    8 1.00
                  6665  0.00069158396281299
                  1000  0.0053257961529341
                   228   0.027060721042034
                 64.71    0.10165684614077
                 21.06     0.2745748236174
                 7.495    0.44829431892377
                 2.797    0.28490261071525
                0.5215   0.015194859206082
 s    8 1.00
                  6665  -0.00029326965268655
                  1000  -0.0023180354739745
                   228  -0.011499786038565
                 64.71  -0.046826727009787
                 21.06   -0.12846616875047
                 7.495   -0.30126627246289
                 2.797   -0.25563070233011
                0.5215      1.093793361012
 s    1 1.00
                0.1596                   1
 p    3 1.00
                 9.439   0.056979251590039
                 2.002    0.31320721150073
                0.5456    0.76037674173753
 p    1 1.00
                0.1517                   1
 d    1 1.00
                  0.55                   1

8 0
 s    3 1.00
                 13.01   0.033498726389998
                 1.962    0.23480080117413
                0.4446     0.8136829578829
 s    1 1.00
                 0.122                   1
 p    1 1.00
                 0.727                   1

9 0
 s    8 1.00
                  6665  0.00069158396281299
                  1000  0.0053257961529341
                   228   0.027060721042034
                 64.71    0.10165684614077
                 21.06     0.2745748236174
                 7.495    0.44829431892377
                 2.797    0.28490261071525
                0.5215   0.015194859206082
 s    8 1.00
                  6665  -0.00029326965268655
                  1000  -0.0023180354739745
                   228  -0.011499786038565
                 64.71  -0.046826727009787
                 21.06   -0.12846616875047
                 7.495   -0.30126627246289
                 2.797   -0.25563070233011
                0.5215      1.093793361012
 s    1 1.00
                0.1596                   1
 p    3 1.00
                 9.439   0.056979251590039
                 2.002    0.31320721150073
                0.5456    0.76037674173753
 p    1 1.00
                0.1517                   1
 d    1 1.00
                  0.55                   1

10 0
 s    3 1.00
                 13.01   0.033498726389998
                 1.962    0.23480080117413
                0.4446     0.8136829578829
 s    1 1.00
                 0.122                   1
 p    1 1.00
                 0.727                   1

11 0
 s    3 1.00
                 13.01   0.033498726389998
                 1.962    0.23480080117413
                0.4446     0.8136829578829
 s    1 1.00
                 0.122                   1
 p    1 1.00
                 0.727                   1

12 0
 s    3 1.00
                 13.01   0.033498726389998
                 1.962    0.23480080117413
                0.4446     0.8136829578829
 s    1 1.00
                 0.122                   1
 p    1 1.00
                 0.727                   1

13 0
 s    8 1.00
                  6665  0.00069158396281299
                  1000  0.0053257961529341
                   228   0.027060721042034
                 64.71    0.10165684614077
                 21.06     0.2745748236174
                 7.495    0.44829431892377
                 2.797    0.28490261071525
                0.5215   0.015194859206082
 s    8 1.00
                  6665  -0.00029326965268655
                  1000  -0.0023180354739745
                   228  -0.011499786038565
                 64.71  -0.046826727009787
                 21.06   -0.12846616875047
                 7.495   -0.30126627246289
                 2.797   -0.25563070233011
                0.5215      1.093793361012
 s    1 1.00
                0.1596                   1
 p    3 1.00
                 9.439   0.056979251590039
                 2.002    0.31320721150073
                0.5456    0.76037674173753
 p    1 1.00
                0.1517                   1
 d    1 1.00
                  0.55                   1

14 0
 s    3 1.00
                 13.01   0.033498726389998
                 1.962    0.23480080117413
                0.4446     0.8136829578829
 s    1 1.00
                 0.122                   1
 p    1 1.00
                 0.727                   1

15 0
 s    3 1.00
                 13.01   0.033498726389998
                 1.962    0.23480080117413
                0.4446     0.8136829578829
 s    1 1.00
                 0.122                   1
 p    1 1.00
                 0.727                   1

16 0
 s    8 1.00
                  6665  0.00069158396281299
                  1000  0.0053257961529341
                   228   0.027060721042034
                 64.71    0.10165684614077
                 21.06     0.2745748236174
                 7.495    0.44829431892377
                 2.797    0.28490261071525
                0.5215   0.015194859206082
 s    8 1.00
                  6665  -0.00029326965268655
                  1000  -0.0023180354739745
                   228  -0.011499786038565
                 64.71  -0.046826727009787
                 21.06   -0.12846616875047
                 7.495   -0.30126627246289
                 2.797   -0.25563070233011
                0.5215      1.093793361012
 s    1 1.00
                0.1596                   1
 p    3 1.00
                 9.439   0.056979251590039
                 2.002    0.31320721150073
                0.5456    0.76037674173753
 p    1 1.00
                0.1517                   1
 d    1 1.00
                  0.55                   1

17 0
 s    3 1.00
                 13.01   0.033498726389998
                 1.962    0.23480080117413
                0.4446     0.8136829578829
 s    1 1.00
                 0.122                   1
 p    1 1.00
                 0.727                   1

18 0
 s    3 1.00
                 13.01   0.033498726389998
                 1.962    0.23480080117413
                0.4446     0.8136829578829
 s    1 1.00
                 0.122                   1
 p    1 1.00
                 0.727                   1

19 0
 s    8 1.00
                  6665  0.00069158396281299
                  1000  0.0053257961529341
                   228   0.027060721042034
                 64.71    0.10165684614077
                 21.06     0.2745748236174
                 7.495    0.44829431892377
                 2.797    0.28490261071525
                0.5215   0.015194859206082
 s    8 1.00
                  6665  -0.00029326965268655
                  1000  -0.0023180354739745
                   228  -0.011499786038565
                 64.71  -0.046826727009787
                 21.06   -0.12846616875047
                 7.495   -0.30126627246289
                 2.797   -0.25563070233011
                0.5215      1.093793361012
 s    1 1.00
                0.1596                   1
 p    3 1.00
                 9.439   0.056979251590039
                 2.002    0.31320721150073
                0.5456    0.76037674173753
 p    1 1.00
                0.1517                   1
 d    1 1.00
                  0.55                   1

20 0
 s    3 1.00
                 13.01   0.033498726389998
                 1.962    0.23480080117413
                0.4446     0.8136829578829
 s    1 1.00
                 0.122                   1
 p    1 1.00
                 0.727                   1

21 0
 s    8 1.00
                  6665  0.00069158396281299
                  1000  0.0053257961529341
                   228   0.027060721042034
                 64.71    0.10165684614077
                 21.06     0.2745748236174
                 7.495    0.44829431892377
                 2.797    0.28490261071525
                0.5215   0.015194859206082
 s    8 1.00
                  6665  -0.00029326965268655
                  1000  -0.0023180354739745
                   228  -0.011499786038565
                 64.71  -0.046826727009787
                 21.06   -0.12846616875047
                 7.495   -0.30126627246289
                 2.797   -0.25563070233011
                0.5215      1.093793361012
 s    1 1.00
                0.1596                   1
 p    3 1.00
                 9.439   0.056979251590039
                 2.002    0.31320721150073
                0.5456    0.76037674173753
 p    1 1.00
                0.1517                   1
 d    1 1.00
                  0.55                   1

22 0
 s    3 1.00
                 13.01   0.033498726389998
                 1.962    0.23480080117413
                0.4446     0.8136829578829
 s    1 1.00
                 0.122                   1
 p    1 1.00
                 0.727                   1

23 0
 s    3 1.00
                 13.01   0.033498726389998
                 1.962    0.23480080117413
                0.4446     0.8136829578829
 s    1 1.00
                 0.122                   1
 p    1 1.00
                 0.727                   1

24 0
 s    3 1.00
                 13.01   0.033498726389998
                 1.962    0.23480080117413
                0.4446     0.8136829578829
 s    1 1.00
                 0.122                   1
 p    1 1.00
                 0.727                   1

25 0
 s    8 1.00
                  6665  0.00069158396281299
                  1000  0.0053257961529341
                   228   0.027060721042034
                 64.71    0.10165684614077
                 21.06     0.2745748236174
                 7.495    0.44829431892377
                 2.797    0.28490261071525
                0.5215   0.015194859206082
 s    8 1.00
                  6665  -0.00029326965268655
                  1000  -0.0023180354739745
                   228  -0.011499786038565
                 64.71  -0.046826727009787
                 21.06   -0.12846616875047
                 7.495   -0.30126627246289
                 2.797   -0.25563070233011
                0.5215      1.093793361012
 s    1 1.00
                0.1596                   1
 p    3 1.00
                 9.439   0.056979251590039
                 2.002    0.31320721150073
                0.5456    0.76037674173753
 p    1 1.00
                0.1517                   1
 d    1 1.00
                  0.55                   1

26 0
 s    3 1.00
                 13.01   0.033498726389998
                 1.962    0.23480080117413
                0.4446     0.8136829578829
 s    1 1.00
                 0.122                   1
 p    1 1.00
                 0.727                   1

27 0
 s    3 1.00
                 13.01   0.033498726389998
                 1.962    0.23480080117413
                0.4446     0.8136829578829
 s    1 1.00
                 0.122                   1
 p    1 1.00
                 0.727                   1

28 0
 s    8 1.00
                  6665  0.00069158396281299
                  1000  0.0053257961529341
                   228   0.027060721042034
                 64.71    0.10165684614077
                 21.06     0.2745748236174
                 7.495    0.44829431892377
                 2.797    0.28490261071525
                0.5215   0.015194859206082
 s    8 1.00
                  6665  -0.00029326965268655
                  1000  -0.0023180354739745
                   228  -0.011499786038565
                 64.71  -0.046826727009787
                 21.06   -0.12846616875047
                 7.495   -0.30126627246289
                 2.797   -0.25563070233011
                0.5215      1.093793361012
 s    1 1.00
                0.1596                   1
 p    3 1.00
                 9.439   0.056979251590039
                 2.002    0.31320721150073
                0.5456    0.76037674173753
 p    1 1.00
                0.1517                   1
 d    1 1.00
                  0.55                   1

29 0
 s    3 1.00
                 13.01   0.033498726389998
                 1.962    0.23480080117413
                0.4446     0.8136829578829
 s    1 1.00
                 0.122                   1
 p    1 1.00
                 0.727                   1

30 0
 s    3 1.00
                 13.01   0.033498726389998
                 1.962    0.23480080117413
                0.4446     0.8136829578829
 s    1 1.00
                 0.122                   1
 p    1 1.00
                 0.727                   1

31 0
 s    8 1.00
                  6665  0.00069158396281299
                  1000  0.0053257961529341
                   228   0.027060721042034
                 64.71    0.10165684614077
                 21.06     0.2745748236174
                 7.495    0.44829431892377
                 2.797    0.28490261071525
                0.5215   0.015194859206082
 s    8 1.00
                  6665  -0.00029326965268655
                  1000  -0.0023180354739745
                   228  -0.011499786038565
                 64.71  -0.046826727009787
                 21.06   -0.12846616875047
                 7.495   -0.30126627246289
                 2.797   -0.25563070233011
                0.5215      1.093793361012
 s    1 1.00
                0.1596                   1
 p    3 1.00
                 9.439   0.056979251590039
                 2.002    0.31320721150073
                0.5456    0.76037674173753
 p    1 1.00
                0.1517                   1
 d    1 1.00
                  0.55                   1

32 0
 s    3 1.00
                 13.01   0.033498726389998
                 1.962    0.23480080117413
                0.4446     0.8136829578829
 s    1 1.00
                 0.122                   1
 p    1 1.00
                 0.727                   1

33 0
 s    3 1.00
                 13.01   0.033498726389998
                 1.962    0.23480080117413
                0.4446     0.8136829578829
 s    1 1.00
                 0.122                   1
 p    1 1.00
                 0.727                   1

34 0
 s    3 1.00
                 13.01   0.033498726389998
                 1.962    0.23480080117413
                0.4446     0.8136829578829
 s    1 1.00
                 0.122                   1
 p    1 1.00
                 0.727                   1

35 0
 s    3 1.00
                 13.01   0.033498726389998
                 1.962    0.23480080117413
                0.4446     0.8136829578829
 s    1 1.00
                 0.122                   1
 p    1 1.00
                 0.727                   1

36 0
 s    3 1.00
                 13.01   0.033498726389998
                 1.962    0.23480080117413
                0.4446     0.8136829578829
 s    1 1.00
                 0.122                   1
 p    1 1.00
                 0.727                   1

37 0
 s    3 1.00
                 13.01   0.033498726389998
                 1.962    0.23480080117413
                0.4446     0.8136829578829
 s    1 1.00
                 0.122                   1
 p    1 1.00
                 0.727                   1

[5d]
[7f]
[9g]

[MO]
 Sym= A
 Ene=               0
 Spin= Alpha
 Occup=    1.00000
   1    -7.0538901239189e-05
   2    -5.2571324756535e-05
   3    0.00013266132856269
   4    2.0510178010984e-08
   5    5.9469864160753e-06
   6    1.5764947123478e-05
   7    4.1723826950301e-07
   8    -2.5937338304612e-05
   9    -7.3495985741213e-05
  10    4.241784858142e-06
  11    -9.8394808072003e-08
  12    3.6593116250771e-07
  13    5.7601586117534e-07
  14    1.000092114692e-08
  15    -2.1717464512446e-05
  16    -0.00021615622165595
  17    -4.1500128293469e-07
  18    2.2446624006725e-06
  19    1.490015400569e-05
  20    -5.6379127175062e-06
  21    6.6863025717562e-05
  22    1.509018564083e-07
  23    -2.5636110450923e-06
  24    -2.9771777131044e-07
  25       1.0013774635347
  26    0.0019865816701666
  27    -0.0069251914544501
  28    -5.1044285238641e-06
  29    1.0481487853594e-05
  30    -0.0016411523659761
  31    -3.2286168736502e-07
  32    -2.6813622483139e-06
  33    0.0019358259932446
  34    0.00011218435799452
  35    -2.8352131972663e-06
  36    1.4851549938278e-06
  37    6.6643467442814e-05
  38    -0.00017346128999976
  39    0.00028720924267436
  40    0.00040126429161618
  41    0.0015185465544599
  42    1.5889385003019e-05
  43    -9.9938690912961e-06
  44    1.938630557671e-05
  45    8.2641677439503e-05
  46    -6.5588912484781e-05
  47    0.0036582429964303
  48    -0.00050945228056609
  49    -8.2292997673044e-06
  50    2.6040058626678e-06
  51    2.9877570723391e-05
  52    -0.00011029000329948
  53    -8.4486815989345e-05
  54    -0.00016532208910553
  55    0.0013855075470592
  56    7.8552667904967e-05
  57    -7.2669253732185e-06
  58    -3.4523656869577e-05
  59    -0.00042730754092306
  60    0.00048178030414975
  61    -0.00096742621387104
  62    -0.00011623031344872
  63    0.00014978680324128
  64    -0.00014324540592721
  65    5.4331965524485e-05
  66    -0.0001274137001272
  67    -3.8774346177994e-05
  68    -9.5746973886407e-05
  69    0.00051905700879892
  70    -6.185425476055e-05
  71    4.0983922897553e-05
  72    -6.1928287820482e-05
  73    0.0010150298986655
  74    -0.00078028396953969
  75    -0.00065837925426703
  76    -0.00013960958085624
  77    -0.00012127109680315
  78    8.9777483978176e-05
  79    5.8398582586028e-05
  80    -0.00015004893240397
  81    -6.0031682239189e-05
  82    0.00021543652087764
  83    6.6848680256892e-05
  84    -4.9108711814655e-05
  85    4.748421619135e-05
  86    2.5067694113536e-05
  87    4.9042156127865e-05
  88    -0.00062055626185211
  89    -1.5653339498541e-05
  90    -1.7238251268016e-05
  91    1.1346943251633e-05
  92    0.00026137065079243
  93    0.0006456917186278
  94    -1.2637471087546e-05
  95    1.8834095911066e-05
  96    1.1500294602159e-05
  97    7.9343073376276e-06
  98    -1.9640738481934e-05
  99    -4.7963994175132e-05
 100    -4.0394046281425e-05
 101    -0.00016413055783895
 102    6.9862005889878e-06
 103    -1.0566991724495e-05
 104    7.677018824688e-05
 105    -1.9360146090739e-05
 106    -0.00020595851653178
 107    -6.3965482228907e-05
 108    8.6918466411241e-06
 109    7.6051032928419e-05
 110    7.7943662052885e-05
 111    -6.4936704848311e-05
 112    -4.4377057855851e-05
 113    1.9826997066979e-05
 114    7.1107491162969e-05
 115    -4.8433598873447e-05
 116    -9.8712214503312e-05
 117    0.00085137771025847
 118    -2.4683322272404e-05
 119    -1.10566964818e-05
 120    3.215877641996e-05
 121    0.00028497496306757
 122    3.6638752184522e-05
 123    -0.00015294617344999
 124    -6.1502897410747e-06
 125    1.1212620323417e-05
 126    1.4929052189486e-05
 127    -3.221183552992e-05
 128    5.0711027166869e-05
 129    -1.985936462892e-05
 130    -0.000334237284651
 131    7.9923641838052e-06
 132    5.983510824218e-06
 133    2.9567566886543e-05
 134    2.5786997165554e-05
 135     -0.00011729175657
 136    -1.3729117340903e-05
 137    -2.5059199833164e-05
 138    -2.7313878136946e-05
 139    -2.1852409015329e-05
 140    -3.9800975222327e-05
 141    0.00030168938938219
 142    7.7791705528521e-06
 143    -2.8528539699714e-06
 144    -6.0549844347185e-06
 145    -0.00023169378684268
 146    5.7858875419163e-05
 147    6.063272455092e-05
 148    -2.5516274933047e-06
 149     3.23025636765e-06
 150    -4.311365731029e-06
 151    1.2548086179514e-05
 152    -4.8435410709494e-06
 153    -9.7377873196465e-05
 154    -9.8941728965377e-05
 155    -2.6597940051956e-05
 156    2.8233909505657e-05
 157    1.9276355934541e-05
 158    -2.5923291892307e-05
 159    -8.6860710449523e-05
 160    -5.9102848123605e-05
 161    -7.3062565389448e-06
 162    6.6795754046463e-06
 163    -9.2740098258771e-07
 164    -3.8446370165955e-06
 165    -0.00025968051756828
 166    -1.786299786048e-05
 167    1.4235072340413e-05
 168    6.8337216629897e-06
 169    0.00023448811347201
 170    -0.00021001384049332
 171    -0.00013915827027831
 172    -2.502532002397e-06
 173    9.9806822114357e-06
 174    -1.3502883940859e-05
 175    3.1608521975585e-06
 176    -1.7947784540336e-05
 177    -1.6385246371147e-05
 178    8.595550961747e-05
 179    -1.1005662918106e-06
 180     1.71596833741e-06
 181    -4.758532551628e-06
 182    1.5957506930605e-05
 183    2.8293173614012e-05
 184    -7.5528034230188e-05
 185    -4.6502499361125e-06
 186    3.7639623381084e-06
 187    5.435062619119e-06
 188    0.0001302036300584
 189    -0.0001020476062443
 190    -8.9586697777253e-05
 191    1.2390037939211e-06
 192    2.2658219191778e-06
 193    -7.6291136155666e-06
 194    -3.0479356669575e-06
 195    -5.5089846455453e-06
 196    -1.3389443027183e-05
 197    -1.9297573813197e-05
 198    5.6681952346507e-06
 199    1.9323714088194e-06
 200    -3.2883641314927e-06
 201    -1.289685141881e-05
 202    2.2964779361968e-06
 203    -1.3315656579334e-05
 204    9.8545048006558e-06
 205    1.1773776409761e-05
 206    8.8619044314205e-06
 207    6.8304908641742e-05
 208    -1.6040461189363e-05
 209    3.8914072326244e-06
 210    1.5844122225588e-05
 211    -1.8344342161444e-05
 212    -3.1908661674379e-05
 213    0.00026542452273462
 214     5.63588362444e-06
 215    -2.5180496252374e-06
 216    -6.4702477513527e-06
 217    0.0001945668128221
 218    -5.2449226185532e-05
 219    -7.9135716985442e-05
 220    -1.8409514740043e-06
 221    -1.6192072971668e-05
 222    5.4247605095319e-06
 223    9.3976640948276e-06
 224    -1.7590980320058e-06
 225    2.6275230885972e-05
 226    5.603165326343e-05
 227    -1.2512393207956e-05
 228    -2.0859886650309e-06
 229    -9.7329979280127e-07
 230    1.0094477630476e-05
 231    5.441453196381e-05
 232    -4.0700827205479e-06
 233    6.4477183315058e-06
 234    1.2125650638305e-05
 235    4.7461550423685e-07
 236    8.0830594999649e-07
 237    -7.9151365560858e-05
 238    2.2628830247993e-06
 239    2.0651946731937e-06
 240    -3.7845804928397e-06
 241    3.6186170991435e-05
 242    -6.3549243875093e-05
 243    1.8179365581518e-05
 244    1.9647364095525e-06
 245    1.882754898656e-06
 246    -1.8963048007192e-06
 247    1.5601931380479e-07
 248    9.3313166891272e-07
 249    -1.7607184128521e-05
 250    1.1296229055191e-05
 251    -4.4400468976725e-06
 252    -8.3364038865092e-07
 253    8.5452447484457e-08
 254    -1.6260737462217e-05
 255    5.5922517758555e-05
 256    1.8347053822359e-07
 257    4.2984912642924e-06
 258    -8.0194851382356e-07
 259    -2.6676135178572e-06
 260    -1.6038279036875e-05
 261    7.5582998300325e-05
 262    -2.736324056412e-06
 263    -1.9132570140501e-06