[Molden Format]
made by pyscf v[2.0.1]
[Atoms] (AU)
O   1   8     0.00000000000000     0.00000000000000     9.80791491072852
H   2   1     0.00000000000000     0.00000000000000     7.98451308882755
H   3   1    -0.05031916615174     1.78353065140343    10.18378660719519
O   4   8     0.00000000000000     0.00000000000000     2.31533471513237
C   5   6     0.00000000000000     0.00000000000000     0.00000000000000
C   6   6     2.01118073026938    -1.40227222164369    -1.50774939176400
C   7   6    -2.01249334291722     1.41331050329955    -1.50315905028694
H   8   1     3.32037363730244    -2.26721897153159    -0.13599698591495
C   9   6     3.45899267434009     0.28739631745591    -3.37437943254505
H   10   1     1.07662969841332    -2.94725144642667    -2.56541439481080
H   11   1    -2.67503415753480     0.18421555839588    -3.06194479365997
H   12   1    -1.07974048864772     3.03851734677796    -2.43674295017013
C   13   6    -4.21607110578555     2.32938802552922     0.11994162256091
H   14   1     4.24440173074564     1.93368664142019    -2.34976285512790
H   15   1     2.15020713235517     1.04714335134846    -4.81494497423699
C   16   6     5.60746363007797    -1.12419643481196    -4.70268606082550
H   17   1    -3.46838323670267     3.50951302338067     1.66946842715333
H   18   1    -5.11873485366228     0.68575958301209     1.04047743976495
C   19   6    -6.18314754751344     3.80909592987882    -1.39656589068747
H   20   1     6.93011263717176    -1.87550812453645    -3.26656317360070
C   21   6     7.06356622236532     0.52877932406334    -6.57829775293605
H   22   1     4.82318879258361    -2.78573437948532    -5.70504560381835
H   23   1    -6.91582688743803     2.61304780074712    -2.95074552451969
H   24   1    -5.26532430573853     5.45420349051338    -2.31005832200284
C   25   6    -8.39941882261433     4.73263980500213     0.21800571437956
H   26   1     7.83338371486801     2.19084139882824    -5.57093109900697
H   27   1     5.73544244039420     1.27376866537418    -8.01071492370229
C   28   6     9.21124858443101    -0.89699110072176    -7.88926949186242
H   29   1    -7.66272760055236     5.92277078003992     1.77035591474408
H   30   1    -9.31497248082589     3.08753015622020     1.12614408368786
C   31   6   -10.35481709231879     6.21833079391143    -1.30905206253246
H   32   1    10.58815905329501    -1.61074586756696    -6.49512691622620
H   33   1    10.23506248045667     0.32468009384095    -9.23072870921204
H   34   1     8.47665842847139    -2.53598436989925    -8.94921964622535
H   35   1    -9.48948872868064     7.90013588951020    -2.18823918416067
H   36   1   -11.93332513000955     6.86460487874102    -0.11255798845995
H   37   1   -11.15126291841033     5.04495968327630    -2.83849898862534
[GTO]
1 0
 s    8 1.00
                 11720  0.00070964594651845
                  1759  0.0054672722921914
                 400.8   0.027823118610189
                 113.7    0.10474773971146
                 37.03    0.28292084635691
                 13.27    0.44849523869833
                 5.025    0.27081688521277
                 1.013    0.01545029160744
 s    8 1.00
                 11720  -0.00031444341168873
                  1759  -0.0024821376810179
                 400.8  -0.012316355381583
                 113.7  -0.050538917343672
                 37.03   -0.13938490331632
                 13.27   -0.32507749481778
                 5.025   -0.22984830758785
                 1.013     1.0953793467883
 s    1 1.00
                0.3023                   1
 p    3 1.00
                  17.7   0.062679166281506
                 3.854    0.33353656587936
                 1.046    0.74123964163973
 p    1 1.00
                0.2753                   1
 d    1 1.00
                 1.185                   1

2 0
 s    3 1.00
                 13.01   0.033498726389998
                 1.962    0.23480080117413
                0.4446     0.8136829578829
 s    1 1.00
                 0.122                   1
 p    1 1.00
                 0.727                   1

3 0
 s    3 1.00
                 13.01   0.033498726389998
                 1.962    0.23480080117413
                0.4446     0.8136829578829
 s    1 1.00
                 0.122                   1
 p    1 1.00
                 0.727                   1

4 0
 s    8 1.00
                 11720  0.00070964594651845
                  1759  0.0054672722921914
                 400.8   0.027823118610189
                 113.7    0.10474773971146
                 37.03    0.28292084635691
                 13.27    0.44849523869833
                 5.025    0.27081688521277
                 1.013    0.01545029160744
 s    8 1.00
                 11720  -0.00031444341168873
                  1759  -0.0024821376810179
                 400.8  -0.012316355381583
                 113.7  -0.050538917343672
                 37.03   -0.13938490331632
                 13.27   -0.32507749481778
                 5.025   -0.22984830758785
                 1.013     1.0953793467883
 s    1 1.00
                0.3023                   1
 p    3 1.00
                  17.7   0.062679166281506
                 3.854    0.33353656587936
                 1.046    0.74123964163973
 p    1 1.00
                0.2753                   1
 d    1 1.00
                 1.185                   1

5 0
 s    8 1.00
                  6665  0.00069158396281299
                  1000  0.0053257961529341
                   228   0.027060721042034
                 64.71    0.10165684614077
                 21.06     0.2745748236174
                 7.495    0.44829431892377
                 2.797    0.28490261071525
                0.5215   0.015194859206082
 s    8 1.00
                  6665  -0.00029326965268655
                  1000  -0.0023180354739745
                   228  -0.011499786038565
                 64.71  -0.046826727009787
                 21.06   -0.12846616875047
                 7.495   -0.30126627246289
                 2.797   -0.25563070233011
                0.5215      1.093793361012
 s    1 1.00
                0.1596                   1
 p    3 1.00
                 9.439   0.056979251590039
                 2.002    0.31320721150073
                0.5456    0.76037674173753
 p    1 1.00
                0.1517                   1
 d    1 1.00
                  0.55                   1

6 0
 s    8 1.00
                  6665  0.00069158396281299
                  1000  0.0053257961529341
                   228   0.027060721042034
                 64.71    0.10165684614077
                 21.06     0.2745748236174
                 7.495    0.44829431892377
                 2.797    0.28490261071525
                0.5215   0.015194859206082
 s    8 1.00
                  6665  -0.00029326965268655
                  1000  -0.0023180354739745
                   228  -0.011499786038565
                 64.71  -0.046826727009787
                 21.06   -0.12846616875047
                 7.495   -0.30126627246289
                 2.797   -0.25563070233011
                0.5215      1.093793361012
 s    1 1.00
                0.1596                   1
 p    3 1.00
                 9.439   0.056979251590039
                 2.002    0.31320721150073
                0.5456    0.76037674173753
 p    1 1.00
                0.1517                   1
 d    1 1.00
                  0.55                   1

7 0
 s    8 1.00
                  6665  0.00069158396281299
                  1000  0.0053257961529341
                   228   0.027060721042034
                 64.71    0.10165684614077
                 21.06     0.2745748236174
                 7.495    0.44829431892377
                 2.797    0.28490261071525
                0.5215   0.015194859206082
 s    8 1.00
                  6665  -0.00029326965268655
                  1000  -0.0023180354739745
                   228  -0.011499786038565
                 64.71  -0.046826727009787
                 21.06   -0.12846616875047
                 7.495   -0.30126627246289
                 2.797   -0.25563070233011
                0.5215      1.093793361012
 s    1 1.00
                0.1596                   1
 p    3 1.00
                 9.439   0.056979251590039
                 2.002    0.31320721150073
                0.5456    0.76037674173753
 p    1 1.00
                0.1517                   1
 d    1 1.00
                  0.55                   1

8 0
 s    3 1.00
                 13.01   0.033498726389998
                 1.962    0.23480080117413
                0.4446     0.8136829578829
 s    1 1.00
                 0.122                   1
 p    1 1.00
                 0.727                   1

9 0
 s    8 1.00
                  6665  0.00069158396281299
                  1000  0.0053257961529341
                   228   0.027060721042034
                 64.71    0.10165684614077
                 21.06     0.2745748236174
                 7.495    0.44829431892377
                 2.797    0.28490261071525
                0.5215   0.015194859206082
 s    8 1.00
                  6665  -0.00029326965268655
                  1000  -0.0023180354739745
                   228  -0.011499786038565
                 64.71  -0.046826727009787
                 21.06   -0.12846616875047
                 7.495   -0.30126627246289
                 2.797   -0.25563070233011
                0.5215      1.093793361012
 s    1 1.00
                0.1596                   1
 p    3 1.00
                 9.439   0.056979251590039
                 2.002    0.31320721150073
                0.5456    0.76037674173753
 p    1 1.00
                0.1517                   1
 d    1 1.00
                  0.55                   1

10 0
 s    3 1.00
                 13.01   0.033498726389998
                 1.962    0.23480080117413
                0.4446     0.8136829578829
 s    1 1.00
                 0.122                   1
 p    1 1.00
                 0.727                   1

11 0
 s    3 1.00
                 13.01   0.033498726389998
                 1.962    0.23480080117413
                0.4446     0.8136829578829
 s    1 1.00
                 0.122                   1
 p    1 1.00
                 0.727                   1

12 0
 s    3 1.00
                 13.01   0.033498726389998
                 1.962    0.23480080117413
                0.4446     0.8136829578829
 s    1 1.00
                 0.122                   1
 p    1 1.00
                 0.727                   1

13 0
 s    8 1.00
                  6665  0.00069158396281299
                  1000  0.0053257961529341
                   228   0.027060721042034
                 64.71    0.10165684614077
                 21.06     0.2745748236174
                 7.495    0.44829431892377
                 2.797    0.28490261071525
                0.5215   0.015194859206082
 s    8 1.00
                  6665  -0.00029326965268655
                  1000  -0.0023180354739745
                   228  -0.011499786038565
                 64.71  -0.046826727009787
                 21.06   -0.12846616875047
                 7.495   -0.30126627246289
                 2.797   -0.25563070233011
                0.5215      1.093793361012
 s    1 1.00
                0.1596                   1
 p    3 1.00
                 9.439   0.056979251590039
                 2.002    0.31320721150073
                0.5456    0.76037674173753
 p    1 1.00
                0.1517                   1
 d    1 1.00
                  0.55                   1

14 0
 s    3 1.00
                 13.01   0.033498726389998
                 1.962    0.23480080117413
                0.4446     0.8136829578829
 s    1 1.00
                 0.122                   1
 p    1 1.00
                 0.727                   1

15 0
 s    3 1.00
                 13.01   0.033498726389998
                 1.962    0.23480080117413
                0.4446     0.8136829578829
 s    1 1.00
                 0.122                   1
 p    1 1.00
                 0.727                   1

16 0
 s    8 1.00
                  6665  0.00069158396281299
                  1000  0.0053257961529341
                   228   0.027060721042034
                 64.71    0.10165684614077
                 21.06     0.2745748236174
                 7.495    0.44829431892377
                 2.797    0.28490261071525
                0.5215   0.015194859206082
 s    8 1.00
                  6665  -0.00029326965268655
                  1000  -0.0023180354739745
                   228  -0.011499786038565
                 64.71  -0.046826727009787
                 21.06   -0.12846616875047
                 7.495   -0.30126627246289
                 2.797   -0.25563070233011
                0.5215      1.093793361012
 s    1 1.00
                0.1596                   1
 p    3 1.00
                 9.439   0.056979251590039
                 2.002    0.31320721150073
                0.5456    0.76037674173753
 p    1 1.00
                0.1517                   1
 d    1 1.00
                  0.55                   1

17 0
 s    3 1.00
                 13.01   0.033498726389998
                 1.962    0.23480080117413
                0.4446     0.8136829578829
 s    1 1.00
                 0.122                   1
 p    1 1.00
                 0.727                   1

18 0
 s    3 1.00
                 13.01   0.033498726389998
                 1.962    0.23480080117413
                0.4446     0.8136829578829
 s    1 1.00
                 0.122                   1
 p    1 1.00
                 0.727                   1

19 0
 s    8 1.00
                  6665  0.00069158396281299
                  1000  0.0053257961529341
                   228   0.027060721042034
                 64.71    0.10165684614077
                 21.06     0.2745748236174
                 7.495    0.44829431892377
                 2.797    0.28490261071525
                0.5215   0.015194859206082
 s    8 1.00
                  6665  -0.00029326965268655
                  1000  -0.0023180354739745
                   228  -0.011499786038565
                 64.71  -0.046826727009787
                 21.06   -0.12846616875047
                 7.495   -0.30126627246289
                 2.797   -0.25563070233011
                0.5215      1.093793361012
 s    1 1.00
                0.1596                   1
 p    3 1.00
                 9.439   0.056979251590039
                 2.002    0.31320721150073
                0.5456    0.76037674173753
 p    1 1.00
                0.1517                   1
 d    1 1.00
                  0.55                   1

20 0
 s    3 1.00
                 13.01   0.033498726389998
                 1.962    0.23480080117413
                0.4446     0.8136829578829
 s    1 1.00
                 0.122                   1
 p    1 1.00
                 0.727                   1

21 0
 s    8 1.00
                  6665  0.00069158396281299
                  1000  0.0053257961529341
                   228   0.027060721042034
                 64.71    0.10165684614077
                 21.06     0.2745748236174
                 7.495    0.44829431892377
                 2.797    0.28490261071525
                0.5215   0.015194859206082
 s    8 1.00
                  6665  -0.00029326965268655
                  1000  -0.0023180354739745
                   228  -0.011499786038565
                 64.71  -0.046826727009787
                 21.06   -0.12846616875047
                 7.495   -0.30126627246289
                 2.797   -0.25563070233011
                0.5215      1.093793361012
 s    1 1.00
                0.1596                   1
 p    3 1.00
                 9.439   0.056979251590039
                 2.002    0.31320721150073
                0.5456    0.76037674173753
 p    1 1.00
                0.1517                   1
 d    1 1.00
                  0.55                   1

22 0
 s    3 1.00
                 13.01   0.033498726389998
                 1.962    0.23480080117413
                0.4446     0.8136829578829
 s    1 1.00
                 0.122                   1
 p    1 1.00
                 0.727                   1

23 0
 s    3 1.00
                 13.01   0.033498726389998
                 1.962    0.23480080117413
                0.4446     0.8136829578829
 s    1 1.00
                 0.122                   1
 p    1 1.00
                 0.727                   1

24 0
 s    3 1.00
                 13.01   0.033498726389998
                 1.962    0.23480080117413
                0.4446     0.8136829578829
 s    1 1.00
                 0.122                   1
 p    1 1.00
                 0.727                   1

25 0
 s    8 1.00
                  6665  0.00069158396281299
                  1000  0.0053257961529341
                   228   0.027060721042034
                 64.71    0.10165684614077
                 21.06     0.2745748236174
                 7.495    0.44829431892377
                 2.797    0.28490261071525
                0.5215   0.015194859206082
 s    8 1.00
                  6665  -0.00029326965268655
                  1000  -0.0023180354739745
                   228  -0.011499786038565
                 64.71  -0.046826727009787
                 21.06   -0.12846616875047
                 7.495   -0.30126627246289
                 2.797   -0.25563070233011
                0.5215      1.093793361012
 s    1 1.00
                0.1596                   1
 p    3 1.00
                 9.439   0.056979251590039
                 2.002    0.31320721150073
                0.5456    0.76037674173753
 p    1 1.00
                0.1517                   1
 d    1 1.00
                  0.55                   1

26 0
 s    3 1.00
                 13.01   0.033498726389998
                 1.962    0.23480080117413
                0.4446     0.8136829578829
 s    1 1.00
                 0.122                   1
 p    1 1.00
                 0.727                   1

27 0
 s    3 1.00
                 13.01   0.033498726389998
                 1.962    0.23480080117413
                0.4446     0.8136829578829
 s    1 1.00
                 0.122                   1
 p    1 1.00
                 0.727                   1

28 0
 s    8 1.00
                  6665  0.00069158396281299
                  1000  0.0053257961529341
                   228   0.027060721042034
                 64.71    0.10165684614077
                 21.06     0.2745748236174
                 7.495    0.44829431892377
                 2.797    0.28490261071525
                0.5215   0.015194859206082
 s    8 1.00
                  6665  -0.00029326965268655
                  1000  -0.0023180354739745
                   228  -0.011499786038565
                 64.71  -0.046826727009787
                 21.06   -0.12846616875047
                 7.495   -0.30126627246289
                 2.797   -0.25563070233011
                0.5215      1.093793361012
 s    1 1.00
                0.1596                   1
 p    3 1.00
                 9.439   0.056979251590039
                 2.002    0.31320721150073
                0.5456    0.76037674173753
 p    1 1.00
                0.1517                   1
 d    1 1.00
                  0.55                   1

29 0
 s    3 1.00
                 13.01   0.033498726389998
                 1.962    0.23480080117413
                0.4446     0.8136829578829
 s    1 1.00
                 0.122                   1
 p    1 1.00
                 0.727                   1

30 0
 s    3 1.00
                 13.01   0.033498726389998
                 1.962    0.23480080117413
                0.4446     0.8136829578829
 s    1 1.00
                 0.122                   1
 p    1 1.00
                 0.727                   1

31 0
 s    8 1.00
                  6665  0.00069158396281299
                  1000  0.0053257961529341
                   228   0.027060721042034
                 64.71    0.10165684614077
                 21.06     0.2745748236174
                 7.495    0.44829431892377
                 2.797    0.28490261071525
                0.5215   0.015194859206082
 s    8 1.00
                  6665  -0.00029326965268655
                  1000  -0.0023180354739745
                   228  -0.011499786038565
                 64.71  -0.046826727009787
                 21.06   -0.12846616875047
                 7.495   -0.30126627246289
                 2.797   -0.25563070233011
                0.5215      1.093793361012
 s    1 1.00
                0.1596                   1
 p    3 1.00
                 9.439   0.056979251590039
                 2.002    0.31320721150073
                0.5456    0.76037674173753
 p    1 1.00
                0.1517                   1
 d    1 1.00
                  0.55                   1

32 0
 s    3 1.00
                 13.01   0.033498726389998
                 1.962    0.23480080117413
                0.4446     0.8136829578829
 s    1 1.00
                 0.122                   1
 p    1 1.00
                 0.727                   1

33 0
 s    3 1.00
                 13.01   0.033498726389998
                 1.962    0.23480080117413
                0.4446     0.8136829578829
 s    1 1.00
                 0.122                   1
 p    1 1.00
                 0.727                   1

34 0
 s    3 1.00
                 13.01   0.033498726389998
                 1.962    0.23480080117413
                0.4446     0.8136829578829
 s    1 1.00
                 0.122                   1
 p    1 1.00
                 0.727                   1

35 0
 s    3 1.00
                 13.01   0.033498726389998
                 1.962    0.23480080117413
                0.4446     0.8136829578829
 s    1 1.00
                 0.122                   1
 p    1 1.00
                 0.727                   1

36 0
 s    3 1.00
                 13.01   0.033498726389998
                 1.962    0.23480080117413
                0.4446     0.8136829578829
 s    1 1.00
                 0.122                   1
 p    1 1.00
                 0.727                   1

37 0
 s    3 1.00
                 13.01   0.033498726389998
                 1.962    0.23480080117413
                0.4446     0.8136829578829
 s    1 1.00
                 0.122                   1
 p    1 1.00
                 0.727                   1

[5d]
[7f]
[9g]

[MO]
 Sym= A
 Ene=               0
 Spin= Alpha
 Occup=    1.00000
   1    -5.1652807617029e-05
   2    -3.5691200300084e-05
   3    0.00011892168583549
   4    -8.9791124936824e-08
   5    4.7772976464559e-06
   6    3.9828761740561e-06
   7    5.8574682317306e-07
   8    -2.3307656036856e-05
   9    -8.1573076438801e-05
  10    1.2763336851964e-05
  11    -1.3722117771853e-09
  12    -7.8547358023964e-07
  13    4.1393019604877e-07
  14    1.7304036673509e-08
  15    -1.5473581570295e-05
  16    -0.00017300265682456
  17    -1.305346660572e-07
  18    1.5327584260159e-06
  19    -3.2974864940888e-05
  20    -7.5188270521148e-06
  21    6.4621392254517e-05
  22    1.820080264404e-07
  23    -5.7187047602808e-06
  24    2.5420449006932e-06
  25       1.0013660763506
  26    0.0019605378627906
  27    -0.0068261136431619
  28    -4.7776974065864e-06
  29    8.6675595453001e-06
  30    -0.001652472847209
  31    -2.8001033197248e-07
  32    -1.6561771078064e-06
  33    0.0018543420385815
  34    0.0001228419248941
  35    -2.9463804730433e-06
  36    1.3845313561643e-06
  37    6.7337499831662e-05
  38    -0.00017533317929188
  39    0.0002772133289685
  40    0.00037993007615469
  41    0.0014411970810375
  42    1.5292455251254e-05
  43    -9.9569822163722e-06
  44    -1.796345950804e-06
  45    8.1424088818657e-05
  46    -6.3774485450425e-05
  47      0.00357763138364
  48    -0.00052830585622575
  49    -8.3897100481537e-06
  50    2.4778084054437e-06
  51    2.9047475442137e-05
  52    -0.00010811386410216
  53    -8.4912374715854e-05
  54    -0.00016610685598885
  55    0.0013740895935905
  56    7.8227780449902e-05
  57    -7.4206826476358e-06
  58    -3.5630488673975e-05
  59    -0.00042417642324999
  60    0.00047793036241517
  61    -0.00093733307555886
  62    -0.00011723700863567
  63    0.00015003090790574
  64    -0.00014296348635569
  65    5.4896338606033e-05
  66    -0.00012936318748627
  67    -3.9870237013445e-05
  68    -9.7689299176448e-05
  69    0.00051289987419382
  70    -6.1137675450833e-05
  71    4.0180798543319e-05
  72    -6.2471491573663e-05
  73    0.0010041485891276
  74    -0.00077260863265757
  75    -0.00064269919722265
  76    -0.00014065644944818
  77    -0.00012087148562245
  78    8.9711160826085e-05
  79    5.882863636979e-05
  80    -0.00015139938753819
  81    -6.3376519140673e-05
  82    0.00020895621939782
  83    6.6231382957697e-05
  84    -4.8668918211037e-05
  85    4.8603687604647e-05
  86    2.5037787854641e-05
  87    4.9023767339394e-05
  88    -0.00060933005479465
  89    -1.5793683067339e-05
  90    -1.7126729422228e-05
  91    1.1881432430268e-05
  92    0.00025771517109401
  93    0.00063057273566884
  94    -1.7061766026077e-05
  95    1.825691370644e-05
  96    1.1266218432469e-05
  97    7.4430221436696e-06
  98    -2.0366274624689e-05
  99    -4.6269907665459e-05
 100    -3.8078389011255e-05
 101    -0.00015965538962282
 102    8.631089771898e-06
 103    -1.0012810816573e-05
 104    7.5049066743279e-05
 105    -1.8304169196699e-05
 106    -0.00020210384138669
 107    -6.4277357598235e-05
 108    1.0460584824625e-05
 109    7.4956282564568e-05
 110    7.7404008530592e-05
 111    -6.0668823300178e-05
 112    -4.5176519228875e-05
 113    1.8838413415769e-05
 114    6.9974850891535e-05
 115    -4.9339641269748e-05
 116    -0.000100429293392
 117    0.00084382390919905
 118    -2.5688045031533e-05
 119    -1.0286125037974e-05
 120    3.2477932464161e-05
 121    0.00029145778385813
 122    3.2015334444705e-05
 123    -0.00014217686600959
 124    -6.3765402154282e-06
 125    1.2127662234324e-05
 126    1.5377364214013e-05
 127    -3.2100475299809e-05
 128    4.9964973856978e-05
 129    -1.9220818543977e-05
 130    -0.00032526038707558
 131    7.6450952054664e-06
 132    5.8994154769578e-06
 133    2.9287900274852e-05
 134    2.5881745516993e-05
 135    -0.00011800813443496
 136    -1.352905661429e-05
 137    -2.4357621377153e-05
 138    -2.6772480413765e-05
 139    -2.1342856367169e-05
 140    -3.8887865774562e-05
 141    0.00029111249698878
 142    7.8858756789633e-06
 143    -2.5843041774145e-06
 144    -6.136815917651e-06
 145    -0.00023027172266799
 146    5.3627241040516e-05
 147    6.3101296528867e-05
 148    -2.4342743578424e-06
 149    3.0888490012894e-06
 150    -3.7146838835254e-06
 151    1.2103490752586e-05
 152    -4.9292480526432e-06
 153    -9.6805883048989e-05
 154    -0.00010747862054791
 155    -2.6135937162067e-05
 156    2.9234945137963e-05
 157    1.9891470587283e-05
 158    -2.5734913257158e-05
 159    -8.87658226333e-05
 160    -5.9239087920822e-05
 161    -7.1586946347031e-06
 162    6.3820349808612e-06
 163    -1.7708916072794e-06
 164    -5.3575079876136e-06
 165    -0.00024684810965175
 166    -1.7623761043865e-05
 167    1.4171358675982e-05
 168    6.6180479829244e-06
 169    0.00023661909512379
 170    -0.00021168086091659
 171    -0.00013450772086574
 172    -2.753111853163e-06
 173     9.95684048167e-06
 174    -1.350088645896e-05
 175    3.2513584606206e-06
 176    -1.811521740424e-05
 177    -1.6079715860977e-05
 178    8.4288850321158e-05
 179    -8.744580585651e-07
 180    1.9055682343794e-06
 181    -4.9137013322746e-06
 182    1.5372762789362e-05
 183    2.7294764403782e-05
 184    -6.8514590476374e-05
 185    -4.784906094991e-06
 186    3.577764550788e-06
 187    5.5378831122021e-06
 188    0.00012757611660726
 189    -0.00010211388879482
 190    -8.6017311668008e-05
 191    1.272267312779e-06
 192    2.0839462397554e-06
 193    -7.66888461071e-06
 194    -3.0748344201606e-06
 195    -5.2051713947563e-06
 196    -1.3681771279451e-05
 197    -1.8754768400199e-05
 198    5.6504934510517e-06
 199    1.9510967397849e-06
 200    -3.4839758991069e-06
 201    -1.3095426609643e-05
 202    3.4515462273633e-06
 203    -1.3081558735369e-05
 204    9.9597698649859e-06
 205    1.1775428221037e-05
 206    8.555590304781e-06
 207    6.8030504343269e-05
 208    -1.6108611561529e-05
 209    3.9059724211611e-06
 210    1.5637282486431e-05
 211    -1.7943874717213e-05
 212    -3.1271243681448e-05
 213    0.00025817950797341
 214    5.2040929307726e-06
 215    -2.354451932016e-06
 216    -6.4375612474076e-06
 217    0.0001954224877947
 218    -5.3533810961774e-05
 219    -7.7458122347138e-05
 220    -1.7939919616655e-06
 221    -1.625002915776e-05
 222    5.4319790768247e-06
 223    9.311940805334e-06
 224    -1.6979260512383e-06
 225    2.556446739429e-05
 226    5.4625289590821e-05
 227    -1.2315551382866e-05
 228    -1.942864534858e-06
 229    -9.8087132152682e-07
 230    9.7993414123371e-06
 231    5.4334555763341e-05
 232    -3.9892474168777e-06
 233    6.3364694949745e-06
 234    1.1998309249535e-05
 235    4.1930659531698e-07
 236    6.9556384223382e-07
 237    -7.8520767771361e-05
 238    2.3148393079587e-06
 239    2.0206189062444e-06
 240    -3.7949253923384e-06
 241    3.5504848053698e-05
 242    -6.2827752724887e-05
 243    1.7876603299668e-05
 244    1.9134305270807e-06
 245    1.8275899900116e-06
 246    -1.9148594771685e-06
 247    1.681904953974e-07
 248    9.3244713368644e-07
 249    -1.7661149187344e-05
 250    1.302337439017e-05
 251    -4.552054862404e-06
 252    -8.8899332356109e-07
 253    -1.1109226745314e-07
 254    -1.6002076167542e-05
 255    5.5920932601441e-05
 256    -9.3517170187941e-10
 257    4.3907257192859e-06
 258    -8.786945558386e-07
 259    -2.6820153130365e-06
 260    -1.6338770210783e-05
 261    7.9935437066396e-05
 262    -2.6692890980834e-06