[Molden Format]
made by pyscf v[2.0.1]
[Atoms] (AU)
O   1   8     0.00000000000000     0.00000000000000    11.69764103529358
H   2   1     0.00000000000000     0.00000000000000     9.87423921339262
H   3   1    -0.05031916615174     1.78353065140343    12.07351273176025
O   4   8     0.00000000000000     0.00000000000000     2.31533471513237
C   5   6     0.00000000000000     0.00000000000000     0.00000000000000
C   6   6     2.01118073026938    -1.40227222164369    -1.50774939176400
C   7   6    -2.01249334291722     1.41331050329955    -1.50315905028694
H   8   1     3.32037363730244    -2.26721897153159    -0.13599698591495
C   9   6     3.45899267434009     0.28739631745591    -3.37437943254505
H   10   1     1.07662969841332    -2.94725144642667    -2.56541439481080
H   11   1    -2.67503415753480     0.18421555839588    -3.06194479365997
H   12   1    -1.07974048864772     3.03851734677796    -2.43674295017013
C   13   6    -4.21607110578555     2.32938802552922     0.11994162256091
H   14   1     4.24440173074564     1.93368664142019    -2.34976285512790
H   15   1     2.15020713235517     1.04714335134846    -4.81494497423699
C   16   6     5.60746363007797    -1.12419643481196    -4.70268606082550
H   17   1    -3.46838323670267     3.50951302338067     1.66946842715333
H   18   1    -5.11873485366228     0.68575958301209     1.04047743976495
C   19   6    -6.18314754751344     3.80909592987882    -1.39656589068747
H   20   1     6.93011263717176    -1.87550812453645    -3.26656317360070
C   21   6     7.06356622236532     0.52877932406334    -6.57829775293605
H   22   1     4.82318879258361    -2.78573437948532    -5.70504560381835
H   23   1    -6.91582688743803     2.61304780074712    -2.95074552451969
H   24   1    -5.26532430573853     5.45420349051338    -2.31005832200284
C   25   6    -8.39941882261433     4.73263980500213     0.21800571437956
H   26   1     7.83338371486801     2.19084139882824    -5.57093109900697
H   27   1     5.73544244039420     1.27376866537418    -8.01071492370229
C   28   6     9.21124858443101    -0.89699110072176    -7.88926949186242
H   29   1    -7.66272760055236     5.92277078003992     1.77035591474408
H   30   1    -9.31497248082589     3.08753015622020     1.12614408368786
C   31   6   -10.35481709231879     6.21833079391143    -1.30905206253246
H   32   1    10.58815905329501    -1.61074586756696    -6.49512691622620
H   33   1    10.23506248045667     0.32468009384095    -9.23072870921204
H   34   1     8.47665842847139    -2.53598436989925    -8.94921964622535
H   35   1    -9.48948872868064     7.90013588951020    -2.18823918416067
H   36   1   -11.93332513000955     6.86460487874102    -0.11255798845995
H   37   1   -11.15126291841033     5.04495968327630    -2.83849898862534
[GTO]
1 0
 s    8 1.00
                 11720  0.00070964594651845
                  1759  0.0054672722921914
                 400.8   0.027823118610189
                 113.7    0.10474773971146
                 37.03    0.28292084635691
                 13.27    0.44849523869833
                 5.025    0.27081688521277
                 1.013    0.01545029160744
 s    8 1.00
                 11720  -0.00031444341168873
                  1759  -0.0024821376810179
                 400.8  -0.012316355381583
                 113.7  -0.050538917343672
                 37.03   -0.13938490331632
                 13.27   -0.32507749481778
                 5.025   -0.22984830758785
                 1.013     1.0953793467883
 s    1 1.00
                0.3023                   1
 p    3 1.00
                  17.7   0.062679166281506
                 3.854    0.33353656587936
                 1.046    0.74123964163973
 p    1 1.00
                0.2753                   1
 d    1 1.00
                 1.185                   1

2 0
 s    3 1.00
                 13.01   0.033498726389998
                 1.962    0.23480080117413
                0.4446     0.8136829578829
 s    1 1.00
                 0.122                   1
 p    1 1.00
                 0.727                   1

3 0
 s    3 1.00
                 13.01   0.033498726389998
                 1.962    0.23480080117413
                0.4446     0.8136829578829
 s    1 1.00
                 0.122                   1
 p    1 1.00
                 0.727                   1

4 0
 s    8 1.00
                 11720  0.00070964594651845
                  1759  0.0054672722921914
                 400.8   0.027823118610189
                 113.7    0.10474773971146
                 37.03    0.28292084635691
                 13.27    0.44849523869833
                 5.025    0.27081688521277
                 1.013    0.01545029160744
 s    8 1.00
                 11720  -0.00031444341168873
                  1759  -0.0024821376810179
                 400.8  -0.012316355381583
                 113.7  -0.050538917343672
                 37.03   -0.13938490331632
                 13.27   -0.32507749481778
                 5.025   -0.22984830758785
                 1.013     1.0953793467883
 s    1 1.00
                0.3023                   1
 p    3 1.00
                  17.7   0.062679166281506
                 3.854    0.33353656587936
                 1.046    0.74123964163973
 p    1 1.00
                0.2753                   1
 d    1 1.00
                 1.185                   1

5 0
 s    8 1.00
                  6665  0.00069158396281299
                  1000  0.0053257961529341
                   228   0.027060721042034
                 64.71    0.10165684614077
                 21.06     0.2745748236174
                 7.495    0.44829431892377
                 2.797    0.28490261071525
                0.5215   0.015194859206082
 s    8 1.00
                  6665  -0.00029326965268655
                  1000  -0.0023180354739745
                   228  -0.011499786038565
                 64.71  -0.046826727009787
                 21.06   -0.12846616875047
                 7.495   -0.30126627246289
                 2.797   -0.25563070233011
                0.5215      1.093793361012
 s    1 1.00
                0.1596                   1
 p    3 1.00
                 9.439   0.056979251590039
                 2.002    0.31320721150073
                0.5456    0.76037674173753
 p    1 1.00
                0.1517                   1
 d    1 1.00
                  0.55                   1

6 0
 s    8 1.00
                  6665  0.00069158396281299
                  1000  0.0053257961529341
                   228   0.027060721042034
                 64.71    0.10165684614077
                 21.06     0.2745748236174
                 7.495    0.44829431892377
                 2.797    0.28490261071525
                0.5215   0.015194859206082
 s    8 1.00
                  6665  -0.00029326965268655
                  1000  -0.0023180354739745
                   228  -0.011499786038565
                 64.71  -0.046826727009787
                 21.06   -0.12846616875047
                 7.495   -0.30126627246289
                 2.797   -0.25563070233011
                0.5215      1.093793361012
 s    1 1.00
                0.1596                   1
 p    3 1.00
                 9.439   0.056979251590039
                 2.002    0.31320721150073
                0.5456    0.76037674173753
 p    1 1.00
                0.1517                   1
 d    1 1.00
                  0.55                   1

7 0
 s    8 1.00
                  6665  0.00069158396281299
                  1000  0.0053257961529341
                   228   0.027060721042034
                 64.71    0.10165684614077
                 21.06     0.2745748236174
                 7.495    0.44829431892377
                 2.797    0.28490261071525
                0.5215   0.015194859206082
 s    8 1.00
                  6665  -0.00029326965268655
                  1000  -0.0023180354739745
                   228  -0.011499786038565
                 64.71  -0.046826727009787
                 21.06   -0.12846616875047
                 7.495   -0.30126627246289
                 2.797   -0.25563070233011
                0.5215      1.093793361012
 s    1 1.00
                0.1596                   1
 p    3 1.00
                 9.439   0.056979251590039
                 2.002    0.31320721150073
                0.5456    0.76037674173753
 p    1 1.00
                0.1517                   1
 d    1 1.00
                  0.55                   1

8 0
 s    3 1.00
                 13.01   0.033498726389998
                 1.962    0.23480080117413
                0.4446     0.8136829578829
 s    1 1.00
                 0.122                   1
 p    1 1.00
                 0.727                   1

9 0
 s    8 1.00
                  6665  0.00069158396281299
                  1000  0.0053257961529341
                   228   0.027060721042034
                 64.71    0.10165684614077
                 21.06     0.2745748236174
                 7.495    0.44829431892377
                 2.797    0.28490261071525
                0.5215   0.015194859206082
 s    8 1.00
                  6665  -0.00029326965268655
                  1000  -0.0023180354739745
                   228  -0.011499786038565
                 64.71  -0.046826727009787
                 21.06   -0.12846616875047
                 7.495   -0.30126627246289
                 2.797   -0.25563070233011
                0.5215      1.093793361012
 s    1 1.00
                0.1596                   1
 p    3 1.00
                 9.439   0.056979251590039
                 2.002    0.31320721150073
                0.5456    0.76037674173753
 p    1 1.00
                0.1517                   1
 d    1 1.00
                  0.55                   1

10 0
 s    3 1.00
                 13.01   0.033498726389998
                 1.962    0.23480080117413
                0.4446     0.8136829578829
 s    1 1.00
                 0.122                   1
 p    1 1.00
                 0.727                   1

11 0
 s    3 1.00
                 13.01   0.033498726389998
                 1.962    0.23480080117413
                0.4446     0.8136829578829
 s    1 1.00
                 0.122                   1
 p    1 1.00
                 0.727                   1

12 0
 s    3 1.00
                 13.01   0.033498726389998
                 1.962    0.23480080117413
                0.4446     0.8136829578829
 s    1 1.00
                 0.122                   1
 p    1 1.00
                 0.727                   1

13 0
 s    8 1.00
                  6665  0.00069158396281299
                  1000  0.0053257961529341
                   228   0.027060721042034
                 64.71    0.10165684614077
                 21.06     0.2745748236174
                 7.495    0.44829431892377
                 2.797    0.28490261071525
                0.5215   0.015194859206082
 s    8 1.00
                  6665  -0.00029326965268655
                  1000  -0.0023180354739745
                   228  -0.011499786038565
                 64.71  -0.046826727009787
                 21.06   -0.12846616875047
                 7.495   -0.30126627246289
                 2.797   -0.25563070233011
                0.5215      1.093793361012
 s    1 1.00
                0.1596                   1
 p    3 1.00
                 9.439   0.056979251590039
                 2.002    0.31320721150073
                0.5456    0.76037674173753
 p    1 1.00
                0.1517                   1
 d    1 1.00
                  0.55                   1

14 0
 s    3 1.00
                 13.01   0.033498726389998
                 1.962    0.23480080117413
                0.4446     0.8136829578829
 s    1 1.00
                 0.122                   1
 p    1 1.00
                 0.727                   1

15 0
 s    3 1.00
                 13.01   0.033498726389998
                 1.962    0.23480080117413
                0.4446     0.8136829578829
 s    1 1.00
                 0.122                   1
 p    1 1.00
                 0.727                   1

16 0
 s    8 1.00
                  6665  0.00069158396281299
                  1000  0.0053257961529341
                   228   0.027060721042034
                 64.71    0.10165684614077
                 21.06     0.2745748236174
                 7.495    0.44829431892377
                 2.797    0.28490261071525
                0.5215   0.015194859206082
 s    8 1.00
                  6665  -0.00029326965268655
                  1000  -0.0023180354739745
                   228  -0.011499786038565
                 64.71  -0.046826727009787
                 21.06   -0.12846616875047
                 7.495   -0.30126627246289
                 2.797   -0.25563070233011
                0.5215      1.093793361012
 s    1 1.00
                0.1596                   1
 p    3 1.00
                 9.439   0.056979251590039
                 2.002    0.31320721150073
                0.5456    0.76037674173753
 p    1 1.00
                0.1517                   1
 d    1 1.00
                  0.55                   1

17 0
 s    3 1.00
                 13.01   0.033498726389998
                 1.962    0.23480080117413
                0.4446     0.8136829578829
 s    1 1.00
                 0.122                   1
 p    1 1.00
                 0.727                   1

18 0
 s    3 1.00
                 13.01   0.033498726389998
                 1.962    0.23480080117413
                0.4446     0.8136829578829
 s    1 1.00
                 0.122                   1
 p    1 1.00
                 0.727                   1

19 0
 s    8 1.00
                  6665  0.00069158396281299
                  1000  0.0053257961529341
                   228   0.027060721042034
                 64.71    0.10165684614077
                 21.06     0.2745748236174
                 7.495    0.44829431892377
                 2.797    0.28490261071525
                0.5215   0.015194859206082
 s    8 1.00
                  6665  -0.00029326965268655
                  1000  -0.0023180354739745
                   228  -0.011499786038565
                 64.71  -0.046826727009787
                 21.06   -0.12846616875047
                 7.495   -0.30126627246289
                 2.797   -0.25563070233011
                0.5215      1.093793361012
 s    1 1.00
                0.1596                   1
 p    3 1.00
                 9.439   0.056979251590039
                 2.002    0.31320721150073
                0.5456    0.76037674173753
 p    1 1.00
                0.1517                   1
 d    1 1.00
                  0.55                   1

20 0
 s    3 1.00
                 13.01   0.033498726389998
                 1.962    0.23480080117413
                0.4446     0.8136829578829
 s    1 1.00
                 0.122                   1
 p    1 1.00
                 0.727                   1

21 0
 s    8 1.00
                  6665  0.00069158396281299
                  1000  0.0053257961529341
                   228   0.027060721042034
                 64.71    0.10165684614077
                 21.06     0.2745748236174
                 7.495    0.44829431892377
                 2.797    0.28490261071525
                0.5215   0.015194859206082
 s    8 1.00
                  6665  -0.00029326965268655
                  1000  -0.0023180354739745
                   228  -0.011499786038565
                 64.71  -0.046826727009787
                 21.06   -0.12846616875047
                 7.495   -0.30126627246289
                 2.797   -0.25563070233011
                0.5215      1.093793361012
 s    1 1.00
                0.1596                   1
 p    3 1.00
                 9.439   0.056979251590039
                 2.002    0.31320721150073
                0.5456    0.76037674173753
 p    1 1.00
                0.1517                   1
 d    1 1.00
                  0.55                   1

22 0
 s    3 1.00
                 13.01   0.033498726389998
                 1.962    0.23480080117413
                0.4446     0.8136829578829
 s    1 1.00
                 0.122                   1
 p    1 1.00
                 0.727                   1

23 0
 s    3 1.00
                 13.01   0.033498726389998
                 1.962    0.23480080117413
                0.4446     0.8136829578829
 s    1 1.00
                 0.122                   1
 p    1 1.00
                 0.727                   1

24 0
 s    3 1.00
                 13.01   0.033498726389998
                 1.962    0.23480080117413
                0.4446     0.8136829578829
 s    1 1.00
                 0.122                   1
 p    1 1.00
                 0.727                   1

25 0
 s    8 1.00
                  6665  0.00069158396281299
                  1000  0.0053257961529341
                   228   0.027060721042034
                 64.71    0.10165684614077
                 21.06     0.2745748236174
                 7.495    0.44829431892377
                 2.797    0.28490261071525
                0.5215   0.015194859206082
 s    8 1.00
                  6665  -0.00029326965268655
                  1000  -0.0023180354739745
                   228  -0.011499786038565
                 64.71  -0.046826727009787
                 21.06   -0.12846616875047
                 7.495   -0.30126627246289
                 2.797   -0.25563070233011
                0.5215      1.093793361012
 s    1 1.00
                0.1596                   1
 p    3 1.00
                 9.439   0.056979251590039
                 2.002    0.31320721150073
                0.5456    0.76037674173753
 p    1 1.00
                0.1517                   1
 d    1 1.00
                  0.55                   1

26 0
 s    3 1.00
                 13.01   0.033498726389998
                 1.962    0.23480080117413
                0.4446     0.8136829578829
 s    1 1.00
                 0.122                   1
 p    1 1.00
                 0.727                   1

27 0
 s    3 1.00
                 13.01   0.033498726389998
                 1.962    0.23480080117413
                0.4446     0.8136829578829
 s    1 1.00
                 0.122                   1
 p    1 1.00
                 0.727                   1

28 0
 s    8 1.00
                  6665  0.00069158396281299
                  1000  0.0053257961529341
                   228   0.027060721042034
                 64.71    0.10165684614077
                 21.06     0.2745748236174
                 7.495    0.44829431892377
                 2.797    0.28490261071525
                0.5215   0.015194859206082
 s    8 1.00
                  6665  -0.00029326965268655
                  1000  -0.0023180354739745
                   228  -0.011499786038565
                 64.71  -0.046826727009787
                 21.06   -0.12846616875047
                 7.495   -0.30126627246289
                 2.797   -0.25563070233011
                0.5215      1.093793361012
 s    1 1.00
                0.1596                   1
 p    3 1.00
                 9.439   0.056979251590039
                 2.002    0.31320721150073
                0.5456    0.76037674173753
 p    1 1.00
                0.1517                   1
 d    1 1.00
                  0.55                   1

29 0
 s    3 1.00
                 13.01   0.033498726389998
                 1.962    0.23480080117413
                0.4446     0.8136829578829
 s    1 1.00
                 0.122                   1
 p    1 1.00
                 0.727                   1

30 0
 s    3 1.00
                 13.01   0.033498726389998
                 1.962    0.23480080117413
                0.4446     0.8136829578829
 s    1 1.00
                 0.122                   1
 p    1 1.00
                 0.727                   1

31 0
 s    8 1.00
                  6665  0.00069158396281299
                  1000  0.0053257961529341
                   228   0.027060721042034
                 64.71    0.10165684614077
                 21.06     0.2745748236174
                 7.495    0.44829431892377
                 2.797    0.28490261071525
                0.5215   0.015194859206082
 s    8 1.00
                  6665  -0.00029326965268655
                  1000  -0.0023180354739745
                   228  -0.011499786038565
                 64.71  -0.046826727009787
                 21.06   -0.12846616875047
                 7.495   -0.30126627246289
                 2.797   -0.25563070233011
                0.5215      1.093793361012
 s    1 1.00
                0.1596                   1
 p    3 1.00
                 9.439   0.056979251590039
                 2.002    0.31320721150073
                0.5456    0.76037674173753
 p    1 1.00
                0.1517                   1
 d    1 1.00
                  0.55                   1

32 0
 s    3 1.00
                 13.01   0.033498726389998
                 1.962    0.23480080117413
                0.4446     0.8136829578829
 s    1 1.00
                 0.122                   1
 p    1 1.00
                 0.727                   1

33 0
 s    3 1.00
                 13.01   0.033498726389998
                 1.962    0.23480080117413
                0.4446     0.8136829578829
 s    1 1.00
                 0.122                   1
 p    1 1.00
                 0.727                   1

34 0
 s    3 1.00
                 13.01   0.033498726389998
                 1.962    0.23480080117413
                0.4446     0.8136829578829
 s    1 1.00
                 0.122                   1
 p    1 1.00
                 0.727                   1

35 0
 s    3 1.00
                 13.01   0.033498726389998
                 1.962    0.23480080117413
                0.4446     0.8136829578829
 s    1 1.00
                 0.122                   1
 p    1 1.00
                 0.727                   1

36 0
 s    3 1.00
                 13.01   0.033498726389998
                 1.962    0.23480080117413
                0.4446     0.8136829578829
 s    1 1.00
                 0.122                   1
 p    1 1.00
                 0.727                   1

37 0
 s    3 1.00
                 13.01   0.033498726389998
                 1.962    0.23480080117413
                0.4446     0.8136829578829
 s    1 1.00
                 0.122                   1
 p    1 1.00
                 0.727                   1

[5d]
[7f]
[9g]

[MO]
 Sym= A
 Ene=               0
 Spin= Alpha
 Occup=    1.00000
   1    1.8469729882175e-05
   2    8.1104657776205e-06
   3    -3.2737190011786e-05
   4    3.2393834322338e-08
   5    -1.2337553943697e-06
   6    3.5551821461427e-07
   7    -2.2638620761454e-07
   8    8.1622642392117e-06
   9    2.5480345708993e-05
  10    -4.8573075529058e-06
  11    -9.6785198556623e-09
  12    3.8839957551928e-07
  13    -4.210057413397e-07
  14    -2.3411554375499e-08
  15    3.6295013892272e-06
  16    5.0091060668135e-05
  17    1.8796284788463e-08
  18    -5.109546348637e-07
  19    1.5694056382876e-05
  20    1.7063306590947e-06
  21    -2.1401852018749e-05
  22    -8.1981048503016e-08
  23    2.8607124641209e-06
  24    -6.6505911782666e-07
  25      -1.0013572116411
  26    -0.0019416201211697
  27    0.0067486714190055
  28    4.4562451500782e-06
  29    -7.1505212282309e-06
  30    0.0016625138053579
  31    4.0073597250282e-07
  32    9.9193146424123e-07
  33    -0.0018023998684094
  34    -0.00013187098608404
  35    3.0556714112421e-06
  36    -1.2991683853521e-06
  37    -6.7819971491373e-05
  38    0.00017667395214181
  39    -0.00027060323215886
  40    -0.00036530632492002
  41    -0.0013851867658886
  42    -1.4760136182284e-05
  43    9.9314619517405e-06
  44    1.7502703659054e-05
  45    -8.2515252229232e-05
  46    6.3089106107776e-05
  47    -0.0035223036848546
  48    0.00054301553782052
  49    8.636008901324e-06
  50    -2.4902942845211e-06
  51    -2.8370389881906e-05
  52    0.00010650422426295
  53    8.5125421457734e-05
  54    0.00016652074897156
  55    -0.0013645298983022
  56    -7.8099825557234e-05
  57    7.5331521891009e-06
  58    3.6490824534274e-05
  59    0.00042314104175097
  60    -0.00047534639635825
  61    0.00091661270206576
  62    0.00011814698685867
  63    -0.00015034145931842
  64    0.00014285009998296
  65    -5.5369777102964e-05
  66    0.00013095524266868
  67    4.0765850568603e-05
  68    9.9282604245005e-05
  69    -0.00051033532233445
  70    6.0594939387054e-05
  71    -3.9620516282591e-05
  72    6.2881861679262e-05
  73    -0.00099686472898145
  74    0.00076863724241154
  75    0.00063150438368138
  76    0.0001417196138297
  77    0.00012059523722336
  78    -8.9661755430914e-05
  79    -5.9328731356356e-05
  80    0.00015269167379518
  81    6.5823859907506e-05
  82    -0.00020572511874084
  83    -6.5772982874611e-05
  84    4.8295252718378e-05
  85    -4.9340579473855e-05
  86    -2.4969016889098e-05
  87    -4.8943304416721e-05
  88    0.00060044987929585
  89    1.5942912742471e-05
  90    1.7079285894918e-05
  91    -1.2313296908028e-05
  92    -0.00025531228331546
  93    -0.00061958305063484
  94    2.0191166363768e-05
  95    -1.7883153277258e-05
  96    -1.1085897431241e-05
  97    -7.0193228791467e-06
  98    2.0922863859916e-05
  99    4.5089980692362e-05
 100    3.634913567854e-05
 101    0.00015675774575956
 102    -9.8918970948975e-06
 103    9.630668886976e-06
 104    -7.3871556515199e-05
 105    1.759180322263e-05
 106    0.00019950429259841
 107    6.4601278848253e-05
 108    -1.1864744794762e-05
 109    -7.4287066512209e-05
 110    -7.7182563363625e-05
 111    5.7069318954307e-05
 112    4.5828981826121e-05
 113    -1.8088387508999e-05
 114    -6.9259070885681e-05
 115    5.012577178913e-05
 116    0.0001019381853113
 117    -0.00083812257863939
 118    2.6546351396162e-05
 119    9.6834192483923e-06
 120    -3.2640785157069e-05
 121    -0.00029958734720804
 122    -2.8756634200571e-05
 123    0.00013043664372302
 124    6.4587674910659e-06
 125    -1.2803371390454e-05
 126    -1.6104859739397e-05
 127    3.2211727291875e-05
 128    -4.9792203354959e-05
 129    1.8781823627901e-05
 130    0.00031890215727545
 131    -7.3829291497653e-06
 132    -5.8332538059322e-06
 133    -2.9080798014952e-05
 134    -2.5941562771812e-05
 135    0.00011882219290751
 136    1.340233381953e-05
 137    2.3822416823435e-05
 138    2.6437983951318e-05
 139    2.0979820329809e-05
 140    3.8241437202682e-05
 141    -0.00028320994111262
 142    -7.9840848285973e-06
 143    2.394505770307e-06
 144    6.2036935293625e-06
 145    0.0002292235994964
 146    -5.0265714610765e-05
 147    -6.5005548488392e-05
 148    2.3387116543977e-06
 149    -3.0163373604022e-06
 150    3.2974498087879e-06
 151    -1.1780798298872e-05
 152    4.9953156564729e-06
 153    9.7120354359944e-05
 154    0.00011682658715019
 155    2.5620234991191e-05
 156    -3.03687654732e-05
 157    -2.080305996216e-05
 158    2.5824803045822e-05
 159    8.9904267230915e-05
 160    5.9575556394148e-05
 161    7.1092448390151e-06
 162    -5.9447059577104e-06
 163    2.6471384829081e-06
 164    6.9006372248382e-06
 165    0.00023361155670067
 166    1.7381151553902e-05
 167    -1.4131408937386e-05
 168    -6.5426804148416e-06
 169    -0.00023982173147522
 170    0.00021525728161269
 171    0.00013016581476192
 172    3.0361798150318e-06
 173    -1.0039382104523e-05
 174    1.3632033804228e-05
 175    -3.329915042934e-06
 176    1.8483232245108e-05
 177    1.586069057415e-05
 178    -8.2809663348777e-05
 179    6.6770244825322e-07
 180    -2.045115768045e-06
 181    5.0133667186639e-06
 182    -1.4937934979292e-05
 183    -2.6551202300771e-05
 184    6.3276617220705e-05
 185    4.8820957281865e-06
 186    -3.4416479830382e-06
 187    -5.6139922756139e-06
 188    -0.00012559610109294
 189    0.0001022782308312
 190    8.3258290463542e-05
 191    -1.3020088113974e-06
 192    -1.9413837024711e-06
 193    7.7114797953313e-06
 194    3.0962897593848e-06
 195    4.9742394941228e-06
 196    1.3920615932846e-05
 197    1.8389133443251e-05
 198    -5.6378517134361e-06
 199    -1.973901144281e-06
 200    3.6430755249379e-06
 201    1.3455844234937e-05
 202    -4.3112261404684e-06
 203    1.2909313565008e-05
 204    -1.0118742362368e-05
 205    -1.1811064202975e-05
 206    -8.3467532772049e-06
 207    -6.8324035878467e-05
 208    1.6259603511792e-05
 209    -3.9573719806549e-06
 210    -1.5517778752309e-05
 211    1.7590883546565e-05
 212    3.0700564926189e-05
 213    -0.00025224458810527
 214    -4.8582745346195e-06
 215    2.2583236276133e-06
 216    6.405191230981e-06
 217    -0.00019621040619186
 218    5.3958923063053e-05
 219    7.6396430065419e-05
 220    1.773343864438e-06
 221    1.6339189449237e-05
 222    -5.4155596517656e-06
 223    -9.2653158021816e-06
 224    1.637566385547e-06
 225    -2.5043684487102e-05
 226    -5.3635558490115e-05
 227    1.2173052957605e-05
 228    1.8405791535213e-06
 229    9.9474022247363e-07
 230    -9.5789823911488e-06
 231    -5.442060262824e-05
 232    3.9254281699783e-06
 233    -6.2500058443788e-06
 234    -1.1923538527827e-05
 235    -3.8245575476151e-07
 236    -6.1935163773798e-07
 237    7.8090517201801e-05
 238    -2.3508920245642e-06
 239    -1.9880753735569e-06
 240    3.8049091281191e-06
 241    -3.5000996186356e-05
 242    6.2269307494121e-05
 243    -1.7641594057494e-05
 244    -1.871613193325e-06
 245    -1.7889834786643e-06
 246    1.9266462797351e-06
 247    -1.7567649429851e-07
 248    -9.2534638482009e-07
 249    1.7735707822164e-05
 250    -1.470743477914e-05
 251    4.6297194039133e-06
 252    1.0134094442458e-06
 253    2.7916267693212e-07
 254    1.5685260718282e-05
 255    -5.6093404098235e-05
 256    1.4256158793822e-07
 257    -4.4653467947112e-06
 258    9.1978229185153e-07
 259    2.9011822037932e-06
 260    1.6785093755157e-05
 261    -8.3575200926336e-05
 262    2.617463631424e-06
 263    2.0340249806252e-06