[Molden Format]
made by pyscf v[2.0.1]
[Atoms] (AU)
O   1   8     0.00000000000000     0.00000000000000     6.78435311142442
H   2   1     0.00000000000000     0.00000000000000     4.96095128952346
H   3   1    -0.05031916615174     1.78353065140343     7.16022480789109
O   4   8     0.00000000000000     0.00000000000000     2.31533471513237
C   5   6     0.00000000000000     0.00000000000000     0.00000000000000
C   6   6     2.01118073026938    -1.40227222164369    -1.50774939176400
C   7   6    -2.01249334291722     1.41331050329955    -1.50315905028694
H   8   1     3.32037363730244    -2.26721897153159    -0.13599698591495
C   9   6     3.45899267434009     0.28739631745591    -3.37437943254505
H   10   1     1.07662969841332    -2.94725144642667    -2.56541439481080
H   11   1    -2.67503415753480     0.18421555839588    -3.06194479365997
H   12   1    -1.07974048864772     3.03851734677796    -2.43674295017013
C   13   6    -4.21607110578555     2.32938802552922     0.11994162256091
H   14   1     4.24440173074564     1.93368664142019    -2.34976285512790
H   15   1     2.15020713235517     1.04714335134846    -4.81494497423699
C   16   6     5.60746363007797    -1.12419643481196    -4.70268606082550
H   17   1    -3.46838323670267     3.50951302338067     1.66946842715333
H   18   1    -5.11873485366228     0.68575958301209     1.04047743976495
C   19   6    -6.18314754751344     3.80909592987882    -1.39656589068747
H   20   1     6.93011263717176    -1.87550812453645    -3.26656317360070
C   21   6     7.06356622236532     0.52877932406334    -6.57829775293605
H   22   1     4.82318879258361    -2.78573437948532    -5.70504560381835
H   23   1    -6.91582688743803     2.61304780074712    -2.95074552451969
H   24   1    -5.26532430573853     5.45420349051338    -2.31005832200284
C   25   6    -8.39941882261433     4.73263980500213     0.21800571437956
H   26   1     7.83338371486801     2.19084139882824    -5.57093109900697
H   27   1     5.73544244039420     1.27376866537418    -8.01071492370229
C   28   6     9.21124858443101    -0.89699110072176    -7.88926949186242
H   29   1    -7.66272760055236     5.92277078003992     1.77035591474408
H   30   1    -9.31497248082589     3.08753015622020     1.12614408368786
C   31   6   -10.35481709231879     6.21833079391143    -1.30905206253246
H   32   1    10.58815905329501    -1.61074586756696    -6.49512691622620
H   33   1    10.23506248045667     0.32468009384095    -9.23072870921204
H   34   1     8.47665842847139    -2.53598436989925    -8.94921964622535
H   35   1    -9.48948872868064     7.90013588951020    -2.18823918416067
H   36   1   -11.93332513000955     6.86460487874102    -0.11255798845995
H   37   1   -11.15126291841033     5.04495968327630    -2.83849898862534
[GTO]
1 0
 s    8 1.00
                 11720  0.00070964594651845
                  1759  0.0054672722921914
                 400.8   0.027823118610189
                 113.7    0.10474773971146
                 37.03    0.28292084635691
                 13.27    0.44849523869833
                 5.025    0.27081688521277
                 1.013    0.01545029160744
 s    8 1.00
                 11720  -0.00031444341168873
                  1759  -0.0024821376810179
                 400.8  -0.012316355381583
                 113.7  -0.050538917343672
                 37.03   -0.13938490331632
                 13.27   -0.32507749481778
                 5.025   -0.22984830758785
                 1.013     1.0953793467883
 s    1 1.00
                0.3023                   1
 p    3 1.00
                  17.7   0.062679166281506
                 3.854    0.33353656587936
                 1.046    0.74123964163973
 p    1 1.00
                0.2753                   1
 d    1 1.00
                 1.185                   1

2 0
 s    3 1.00
                 13.01   0.033498726389998
                 1.962    0.23480080117413
                0.4446     0.8136829578829
 s    1 1.00
                 0.122                   1
 p    1 1.00
                 0.727                   1

3 0
 s    3 1.00
                 13.01   0.033498726389998
                 1.962    0.23480080117413
                0.4446     0.8136829578829
 s    1 1.00
                 0.122                   1
 p    1 1.00
                 0.727                   1

4 0
 s    8 1.00
                 11720  0.00070964594651845
                  1759  0.0054672722921914
                 400.8   0.027823118610189
                 113.7    0.10474773971146
                 37.03    0.28292084635691
                 13.27    0.44849523869833
                 5.025    0.27081688521277
                 1.013    0.01545029160744
 s    8 1.00
                 11720  -0.00031444341168873
                  1759  -0.0024821376810179
                 400.8  -0.012316355381583
                 113.7  -0.050538917343672
                 37.03   -0.13938490331632
                 13.27   -0.32507749481778
                 5.025   -0.22984830758785
                 1.013     1.0953793467883
 s    1 1.00
                0.3023                   1
 p    3 1.00
                  17.7   0.062679166281506
                 3.854    0.33353656587936
                 1.046    0.74123964163973
 p    1 1.00
                0.2753                   1
 d    1 1.00
                 1.185                   1

5 0
 s    8 1.00
                  6665  0.00069158396281299
                  1000  0.0053257961529341
                   228   0.027060721042034
                 64.71    0.10165684614077
                 21.06     0.2745748236174
                 7.495    0.44829431892377
                 2.797    0.28490261071525
                0.5215   0.015194859206082
 s    8 1.00
                  6665  -0.00029326965268655
                  1000  -0.0023180354739745
                   228  -0.011499786038565
                 64.71  -0.046826727009787
                 21.06   -0.12846616875047
                 7.495   -0.30126627246289
                 2.797   -0.25563070233011
                0.5215      1.093793361012
 s    1 1.00
                0.1596                   1
 p    3 1.00
                 9.439   0.056979251590039
                 2.002    0.31320721150073
                0.5456    0.76037674173753
 p    1 1.00
                0.1517                   1
 d    1 1.00
                  0.55                   1

6 0
 s    8 1.00
                  6665  0.00069158396281299
                  1000  0.0053257961529341
                   228   0.027060721042034
                 64.71    0.10165684614077
                 21.06     0.2745748236174
                 7.495    0.44829431892377
                 2.797    0.28490261071525
                0.5215   0.015194859206082
 s    8 1.00
                  6665  -0.00029326965268655
                  1000  -0.0023180354739745
                   228  -0.011499786038565
                 64.71  -0.046826727009787
                 21.06   -0.12846616875047
                 7.495   -0.30126627246289
                 2.797   -0.25563070233011
                0.5215      1.093793361012
 s    1 1.00
                0.1596                   1
 p    3 1.00
                 9.439   0.056979251590039
                 2.002    0.31320721150073
                0.5456    0.76037674173753
 p    1 1.00
                0.1517                   1
 d    1 1.00
                  0.55                   1

7 0
 s    8 1.00
                  6665  0.00069158396281299
                  1000  0.0053257961529341
                   228   0.027060721042034
                 64.71    0.10165684614077
                 21.06     0.2745748236174
                 7.495    0.44829431892377
                 2.797    0.28490261071525
                0.5215   0.015194859206082
 s    8 1.00
                  6665  -0.00029326965268655
                  1000  -0.0023180354739745
                   228  -0.011499786038565
                 64.71  -0.046826727009787
                 21.06   -0.12846616875047
                 7.495   -0.30126627246289
                 2.797   -0.25563070233011
                0.5215      1.093793361012
 s    1 1.00
                0.1596                   1
 p    3 1.00
                 9.439   0.056979251590039
                 2.002    0.31320721150073
                0.5456    0.76037674173753
 p    1 1.00
                0.1517                   1
 d    1 1.00
                  0.55                   1

8 0
 s    3 1.00
                 13.01   0.033498726389998
                 1.962    0.23480080117413
                0.4446     0.8136829578829
 s    1 1.00
                 0.122                   1
 p    1 1.00
                 0.727                   1

9 0
 s    8 1.00
                  6665  0.00069158396281299
                  1000  0.0053257961529341
                   228   0.027060721042034
                 64.71    0.10165684614077
                 21.06     0.2745748236174
                 7.495    0.44829431892377
                 2.797    0.28490261071525
                0.5215   0.015194859206082
 s    8 1.00
                  6665  -0.00029326965268655
                  1000  -0.0023180354739745
                   228  -0.011499786038565
                 64.71  -0.046826727009787
                 21.06   -0.12846616875047
                 7.495   -0.30126627246289
                 2.797   -0.25563070233011
                0.5215      1.093793361012
 s    1 1.00
                0.1596                   1
 p    3 1.00
                 9.439   0.056979251590039
                 2.002    0.31320721150073
                0.5456    0.76037674173753
 p    1 1.00
                0.1517                   1
 d    1 1.00
                  0.55                   1

10 0
 s    3 1.00
                 13.01   0.033498726389998
                 1.962    0.23480080117413
                0.4446     0.8136829578829
 s    1 1.00
                 0.122                   1
 p    1 1.00
                 0.727                   1

11 0
 s    3 1.00
                 13.01   0.033498726389998
                 1.962    0.23480080117413
                0.4446     0.8136829578829
 s    1 1.00
                 0.122                   1
 p    1 1.00
                 0.727                   1

12 0
 s    3 1.00
                 13.01   0.033498726389998
                 1.962    0.23480080117413
                0.4446     0.8136829578829
 s    1 1.00
                 0.122                   1
 p    1 1.00
                 0.727                   1

13 0
 s    8 1.00
                  6665  0.00069158396281299
                  1000  0.0053257961529341
                   228   0.027060721042034
                 64.71    0.10165684614077
                 21.06     0.2745748236174
                 7.495    0.44829431892377
                 2.797    0.28490261071525
                0.5215   0.015194859206082
 s    8 1.00
                  6665  -0.00029326965268655
                  1000  -0.0023180354739745
                   228  -0.011499786038565
                 64.71  -0.046826727009787
                 21.06   -0.12846616875047
                 7.495   -0.30126627246289
                 2.797   -0.25563070233011
                0.5215      1.093793361012
 s    1 1.00
                0.1596                   1
 p    3 1.00
                 9.439   0.056979251590039
                 2.002    0.31320721150073
                0.5456    0.76037674173753
 p    1 1.00
                0.1517                   1
 d    1 1.00
                  0.55                   1

14 0
 s    3 1.00
                 13.01   0.033498726389998
                 1.962    0.23480080117413
                0.4446     0.8136829578829
 s    1 1.00
                 0.122                   1
 p    1 1.00
                 0.727                   1

15 0
 s    3 1.00
                 13.01   0.033498726389998
                 1.962    0.23480080117413
                0.4446     0.8136829578829
 s    1 1.00
                 0.122                   1
 p    1 1.00
                 0.727                   1

16 0
 s    8 1.00
                  6665  0.00069158396281299
                  1000  0.0053257961529341
                   228   0.027060721042034
                 64.71    0.10165684614077
                 21.06     0.2745748236174
                 7.495    0.44829431892377
                 2.797    0.28490261071525
                0.5215   0.015194859206082
 s    8 1.00
                  6665  -0.00029326965268655
                  1000  -0.0023180354739745
                   228  -0.011499786038565
                 64.71  -0.046826727009787
                 21.06   -0.12846616875047
                 7.495   -0.30126627246289
                 2.797   -0.25563070233011
                0.5215      1.093793361012
 s    1 1.00
                0.1596                   1
 p    3 1.00
                 9.439   0.056979251590039
                 2.002    0.31320721150073
                0.5456    0.76037674173753
 p    1 1.00
                0.1517                   1
 d    1 1.00
                  0.55                   1

17 0
 s    3 1.00
                 13.01   0.033498726389998
                 1.962    0.23480080117413
                0.4446     0.8136829578829
 s    1 1.00
                 0.122                   1
 p    1 1.00
                 0.727                   1

18 0
 s    3 1.00
                 13.01   0.033498726389998
                 1.962    0.23480080117413
                0.4446     0.8136829578829
 s    1 1.00
                 0.122                   1
 p    1 1.00
                 0.727                   1

19 0
 s    8 1.00
                  6665  0.00069158396281299
                  1000  0.0053257961529341
                   228   0.027060721042034
                 64.71    0.10165684614077
                 21.06     0.2745748236174
                 7.495    0.44829431892377
                 2.797    0.28490261071525
                0.5215   0.015194859206082
 s    8 1.00
                  6665  -0.00029326965268655
                  1000  -0.0023180354739745
                   228  -0.011499786038565
                 64.71  -0.046826727009787
                 21.06   -0.12846616875047
                 7.495   -0.30126627246289
                 2.797   -0.25563070233011
                0.5215      1.093793361012
 s    1 1.00
                0.1596                   1
 p    3 1.00
                 9.439   0.056979251590039
                 2.002    0.31320721150073
                0.5456    0.76037674173753
 p    1 1.00
                0.1517                   1
 d    1 1.00
                  0.55                   1

20 0
 s    3 1.00
                 13.01   0.033498726389998
                 1.962    0.23480080117413
                0.4446     0.8136829578829
 s    1 1.00
                 0.122                   1
 p    1 1.00
                 0.727                   1

21 0
 s    8 1.00
                  6665  0.00069158396281299
                  1000  0.0053257961529341
                   228   0.027060721042034
                 64.71    0.10165684614077
                 21.06     0.2745748236174
                 7.495    0.44829431892377
                 2.797    0.28490261071525
                0.5215   0.015194859206082
 s    8 1.00
                  6665  -0.00029326965268655
                  1000  -0.0023180354739745
                   228  -0.011499786038565
                 64.71  -0.046826727009787
                 21.06   -0.12846616875047
                 7.495   -0.30126627246289
                 2.797   -0.25563070233011
                0.5215      1.093793361012
 s    1 1.00
                0.1596                   1
 p    3 1.00
                 9.439   0.056979251590039
                 2.002    0.31320721150073
                0.5456    0.76037674173753
 p    1 1.00
                0.1517                   1
 d    1 1.00
                  0.55                   1

22 0
 s    3 1.00
                 13.01   0.033498726389998
                 1.962    0.23480080117413
                0.4446     0.8136829578829
 s    1 1.00
                 0.122                   1
 p    1 1.00
                 0.727                   1

23 0
 s    3 1.00
                 13.01   0.033498726389998
                 1.962    0.23480080117413
                0.4446     0.8136829578829
 s    1 1.00
                 0.122                   1
 p    1 1.00
                 0.727                   1

24 0
 s    3 1.00
                 13.01   0.033498726389998
                 1.962    0.23480080117413
                0.4446     0.8136829578829
 s    1 1.00
                 0.122                   1
 p    1 1.00
                 0.727                   1

25 0
 s    8 1.00
                  6665  0.00069158396281299
                  1000  0.0053257961529341
                   228   0.027060721042034
                 64.71    0.10165684614077
                 21.06     0.2745748236174
                 7.495    0.44829431892377
                 2.797    0.28490261071525
                0.5215   0.015194859206082
 s    8 1.00
                  6665  -0.00029326965268655
                  1000  -0.0023180354739745
                   228  -0.011499786038565
                 64.71  -0.046826727009787
                 21.06   -0.12846616875047
                 7.495   -0.30126627246289
                 2.797   -0.25563070233011
                0.5215      1.093793361012
 s    1 1.00
                0.1596                   1
 p    3 1.00
                 9.439   0.056979251590039
                 2.002    0.31320721150073
                0.5456    0.76037674173753
 p    1 1.00
                0.1517                   1
 d    1 1.00
                  0.55                   1

26 0
 s    3 1.00
                 13.01   0.033498726389998
                 1.962    0.23480080117413
                0.4446     0.8136829578829
 s    1 1.00
                 0.122                   1
 p    1 1.00
                 0.727                   1

27 0
 s    3 1.00
                 13.01   0.033498726389998
                 1.962    0.23480080117413
                0.4446     0.8136829578829
 s    1 1.00
                 0.122                   1
 p    1 1.00
                 0.727                   1

28 0
 s    8 1.00
                  6665  0.00069158396281299
                  1000  0.0053257961529341
                   228   0.027060721042034
                 64.71    0.10165684614077
                 21.06     0.2745748236174
                 7.495    0.44829431892377
                 2.797    0.28490261071525
                0.5215   0.015194859206082
 s    8 1.00
                  6665  -0.00029326965268655
                  1000  -0.0023180354739745
                   228  -0.011499786038565
                 64.71  -0.046826727009787
                 21.06   -0.12846616875047
                 7.495   -0.30126627246289
                 2.797   -0.25563070233011
                0.5215      1.093793361012
 s    1 1.00
                0.1596                   1
 p    3 1.00
                 9.439   0.056979251590039
                 2.002    0.31320721150073
                0.5456    0.76037674173753
 p    1 1.00
                0.1517                   1
 d    1 1.00
                  0.55                   1

29 0
 s    3 1.00
                 13.01   0.033498726389998
                 1.962    0.23480080117413
                0.4446     0.8136829578829
 s    1 1.00
                 0.122                   1
 p    1 1.00
                 0.727                   1

30 0
 s    3 1.00
                 13.01   0.033498726389998
                 1.962    0.23480080117413
                0.4446     0.8136829578829
 s    1 1.00
                 0.122                   1
 p    1 1.00
                 0.727                   1

31 0
 s    8 1.00
                  6665  0.00069158396281299
                  1000  0.0053257961529341
                   228   0.027060721042034
                 64.71    0.10165684614077
                 21.06     0.2745748236174
                 7.495    0.44829431892377
                 2.797    0.28490261071525
                0.5215   0.015194859206082
 s    8 1.00
                  6665  -0.00029326965268655
                  1000  -0.0023180354739745
                   228  -0.011499786038565
                 64.71  -0.046826727009787
                 21.06   -0.12846616875047
                 7.495   -0.30126627246289
                 2.797   -0.25563070233011
                0.5215      1.093793361012
 s    1 1.00
                0.1596                   1
 p    3 1.00
                 9.439   0.056979251590039
                 2.002    0.31320721150073
                0.5456    0.76037674173753
 p    1 1.00
                0.1517                   1
 d    1 1.00
                  0.55                   1

32 0
 s    3 1.00
                 13.01   0.033498726389998
                 1.962    0.23480080117413
                0.4446     0.8136829578829
 s    1 1.00
                 0.122                   1
 p    1 1.00
                 0.727                   1

33 0
 s    3 1.00
                 13.01   0.033498726389998
                 1.962    0.23480080117413
                0.4446     0.8136829578829
 s    1 1.00
                 0.122                   1
 p    1 1.00
                 0.727                   1

34 0
 s    3 1.00
                 13.01   0.033498726389998
                 1.962    0.23480080117413
                0.4446     0.8136829578829
 s    1 1.00
                 0.122                   1
 p    1 1.00
                 0.727                   1

35 0
 s    3 1.00
                 13.01   0.033498726389998
                 1.962    0.23480080117413
                0.4446     0.8136829578829
 s    1 1.00
                 0.122                   1
 p    1 1.00
                 0.727                   1

36 0
 s    3 1.00
                 13.01   0.033498726389998
                 1.962    0.23480080117413
                0.4446     0.8136829578829
 s    1 1.00
                 0.122                   1
 p    1 1.00
                 0.727                   1

37 0
 s    3 1.00
                 13.01   0.033498726389998
                 1.962    0.23480080117413
                0.4446     0.8136829578829
 s    1 1.00
                 0.122                   1
 p    1 1.00
                 0.727                   1

[5d]
[7f]
[9g]

[MO]
 Sym= A
 Ene=               0
 Spin= Alpha
 Occup=    1.00000
   1    -7.7496537626799e-05
   2    -2.2006246829437e-06
   3    -0.00012917684494605
   4    1.1728306471777e-06
   5    4.6020265681583e-07
   6    5.2716891224532e-05
   7    -2.1529366890137e-06
   8    -1.4735317774742e-05
   9    0.00013689158677754
  10    -6.1341414375819e-05
  11    -2.8135126038068e-07
  12    2.8234195165126e-06
  13    4.654865543626e-06
  14    2.0232132992695e-07
  15    4.7119285186987e-05
  16    -0.00012406489813651
  17    -1.502798764848e-06
  18    5.1141580121458e-06
  19    0.00016188110224648
  20    2.8393418222296e-05
  21    -8.8178739515983e-06
  22    2.344402583367e-07
  23    6.0379530433111e-06
  24    -1.0123394749521e-05
  25       1.0014127757115
  26    0.0021239254047333
  27    -0.007031089111659
  28    -5.3756142691769e-06
  29    1.682429091148e-05
  30    -0.0015700473074503
  31    1.2046539488315e-06
  32    -4.6987588966027e-06
  33    0.0021226880895939
  34    0.00013955889818186
  35    -2.6468746288839e-06
  36    1.0847077415031e-06
  37    6.2035336098899e-05
  38    -0.00016258534506656
  39    0.00030011239936799
  40    0.0004269122425145
  41    0.0017244948635066
  42    1.6493721387807e-05
  43    -1.0484239905435e-05
  44    5.2538423748243e-05
  45    7.1027176318308e-05
  46    -5.8896609275012e-05
  47    0.0037358009133816
  48    -0.00049093346661791
  49    -7.7182422035748e-06
  50    1.7850333756195e-06
  51      3.3209858684e-05
  52    -0.00011878546171849
  53    -8.4138858466095e-05
  54    -0.00016515718306024
  55    0.0013787068648723
  56    8.0590555804018e-05
  57    -8.575275511103e-06
  58    -3.5611629822099e-05
  59    -0.00040823855053649
  60    0.00047530472177345
  61    -0.00099324485724997
  62    -0.00011345833812611
  63    0.00015294247909315
  64    -0.00014613894910784
  65    5.3813512271365e-05
  66    -0.00012511475253341
  67    -3.5857197350589e-05
  68    -9.1348635409023e-05
  69    0.00046997496805257
  70    -6.4592746711229e-05
  71    4.3085426133461e-05
  72    -6.3791560386464e-05
  73    0.0010104190000805
  74    -0.00077333985218483
  75    -0.00069084606371754
  76    -0.00013654373128971
  77    -0.00012476618152971
  78    9.1555022304955e-05
  79    5.756983541203e-05
  80    -0.000147258273471
  81    -6.0308644647745e-05
  82    0.00021227846047471
  83    6.815180164667e-05
  84    -5.0207196942567e-05
  85    4.8266706666312e-05
  86    2.4730119618331e-05
  87    4.8523701777088e-05
  88    -0.00061973379977942
  89    -1.5337781456119e-05
  90    -1.7221134840497e-05
  91    1.1947910679989e-05
  92    0.00026513306338389
  93    0.0006514394015886
  94    -2.06750083661e-05
  95    1.9357027901579e-05
  96    1.1303903126094e-05
  97    8.3160019532283e-06
  98    -1.8477957310849e-05
  99    -5.0403992384571e-05
 100    -3.9744415504768e-05
 101    -0.00016737387451875
 102    4.7295438008138e-06
 103    -1.0550711814248e-05
 104    7.8058623812406e-05
 105    -1.8337638376143e-05
 106    -0.00020728128077775
 107    -6.292130617831e-05
 108    6.0763154988413e-06
 109    7.7875989107306e-05
 110    8.0455706595547e-05
 111    -7.2000621644102e-05
 112    -4.3083783749294e-05
 113    2.0794881412646e-05
 114    7.2273329810615e-05
 115    -5.1249125928615e-05
 116    -0.00010350286561022
 117    0.0009027304726837
 118    -2.4118540441531e-05
 119    -1.1697951934653e-05
 120    3.2490257697492e-05
 121    0.00027551728345215
 122    4.5786778148986e-05
 123    -0.00017127788812012
 124    -5.373817642402e-06
 125    1.1529627269343e-05
 126    1.4093788737768e-05
 127    -3.2561581494371e-05
 128    5.1060308254116e-05
 129    -1.7632477420624e-05
 130    -0.00034020038133797
 131    8.1679282849055e-06
 132    5.800938631157e-06
 133    3.0057973993614e-05
 134    2.3608957700006e-05
 135    -0.00011544787505833
 136    -1.4810054239181e-05
 137    -2.5352217376344e-05
 138    -2.6240552275866e-05
 139    -2.1091843731723e-05
 140    -3.8507978476397e-05
 141    0.00029878860635131
 142    7.3789366308803e-06
 143    -3.5152991842959e-06
 144    -6.2587885509421e-06
 145    -0.0002188268424114
 146    6.3186602957869e-05
 147    5.6153063941426e-05
 148    -2.3822581886271e-06
 149    3.8699184136989e-06
 150    -5.1152995569878e-06
 151    1.2404522062187e-05
 152    -4.2013210123504e-06
 153    -9.8642573119871e-05
 154    -9.8344608465508e-05
 155    -2.6191579381372e-05
 156    2.7793769137182e-05
 157    2.0219438236383e-05
 158    -2.621053083892e-05
 159    -9.1611941975684e-05
 160    -5.9187977970235e-05
 161    -8.4915430400246e-06
 162    7.8649528839551e-06
 163    1.7307727509968e-06
 164    6.696523100334e-07
 165    -0.00029559160109228
 166    -1.8066209222101e-05
 167    1.4462154440774e-05
 168    6.2793972583702e-06
 169    0.00021666750459992
 170    -0.00019939350641584
 171    -0.00014700429790786
 172    -1.6946323623652e-06
 173    9.1549652757648e-06
 174    -1.2945372008741e-05
 175    2.6811871793138e-06
 176    -1.6722671283936e-05
 177    -1.7117494153454e-05
 178    8.6157147224954e-05
 179    -1.8917381401293e-06
 180    1.2023901119421e-06
 181    -4.3266091684073e-06
 182    1.6632359082885e-05
 183    2.9480780672989e-05
 184    -8.3148664669386e-05
 185    -4.4909062871484e-06
 186    4.0130275968849e-06
 187    5.4717613367952e-06
 188    0.00013264995832569
 189    -0.00010271779808152
 190    -9.8378385648924e-05
 191    8.7258748684638e-07
 192    2.4662597712378e-06
 193    -7.3253412388751e-06
 194    -2.8712632511643e-06
 195    -5.8567657614569e-06
 196    -1.1038725208376e-05
 197    -1.7822955865901e-05
 198    5.2936608218316e-06
 199    1.9360999904673e-06
 200    -3.0039323891258e-06
 201    -1.1304252949571e-05
 202    6.1128166829718e-07
 203    -1.2920140676468e-05
 204    9.3781373015557e-06
 205    1.1653514326172e-05
 206    1.0543019487175e-05
 207    6.9643439036077e-05
 208    -1.5337168461487e-05
 209    3.434092087124e-06
 210    1.6032997428131e-05
 211    -1.83986887326e-05
 212    -3.194537721067e-05
 213    0.0002669399217438
 214    5.7187013226671e-06
 215    -2.4661144422854e-06
 216    -6.6329163074213e-06
 217    0.00019526036872944
 218    -5.2488423034942e-05
 219    -8.035587306324e-05
 220    -1.8567744936428e-06
 221    -1.6272530878107e-05
 222    5.4193752724227e-06
 223    9.5366899682901e-06
 224    -1.8021391819866e-06
 225    2.7498113311731e-05
 226    5.8902774178658e-05
 227    -1.2787961875278e-05
 228    -2.3222717992741e-06
 229    -8.2214991221172e-07
 230    1.0193195310168e-05
 231    5.2007833560148e-05
 232    -4.2856325454933e-06
 233    6.6963312302667e-06
 234    1.2276893132043e-05
 235    1.0030433020389e-06
 236    1.7578193096029e-06
 237    -8.3318866471427e-05
 238    2.165939504592e-06
 239    1.959962614292e-06
 240    -3.6864396810083e-06
 241    3.9742635907511e-05
 242    -6.3743120879687e-05
 243    1.7082734432063e-05
 244    2.0924568212226e-06
 245    2.0802242513719e-06
 246    -1.7709318533037e-06
 247    -8.566186284241e-08
 248    1.0999638518132e-06
 249    -1.7533057856717e-05
 250    1.172191672173e-05
 251    -4.428615629841e-06
 252    -9.0758865635846e-07
 253    -1.6281955290302e-08
 254    -1.6563877147525e-05
 255    5.7725267453733e-05
 256    4.2968263371888e-07
 257    4.4100935105392e-06
 258    -8.9327761748051e-07
 259    -2.4410436631645e-06
 260    -1.4801820230896e-05
 261    7.2041587610298e-05
 262    -2.0583851354356e-06
 263    -2.3091135561696e-06