[Molden Format]
made by pyscf v[2.0.1]
[Atoms] (AU)
O   1   8     0.00000000000000     0.00000000000000     7.16229833633744
H   2   1     0.00000000000000     0.00000000000000     5.33889651443647
H   3   1    -0.05031916615174     1.78353065140343     7.53817003280410
O   4   8     0.00000000000000     0.00000000000000     2.31533471513237
C   5   6     0.00000000000000     0.00000000000000     0.00000000000000
C   6   6     2.01118073026938    -1.40227222164369    -1.50774939176400
C   7   6    -2.01249334291722     1.41331050329955    -1.50315905028694
H   8   1     3.32037363730244    -2.26721897153159    -0.13599698591495
C   9   6     3.45899267434009     0.28739631745591    -3.37437943254505
H   10   1     1.07662969841332    -2.94725144642667    -2.56541439481080
H   11   1    -2.67503415753480     0.18421555839588    -3.06194479365997
H   12   1    -1.07974048864772     3.03851734677796    -2.43674295017013
C   13   6    -4.21607110578555     2.32938802552922     0.11994162256091
H   14   1     4.24440173074564     1.93368664142019    -2.34976285512790
H   15   1     2.15020713235517     1.04714335134846    -4.81494497423699
C   16   6     5.60746363007797    -1.12419643481196    -4.70268606082550
H   17   1    -3.46838323670267     3.50951302338067     1.66946842715333
H   18   1    -5.11873485366228     0.68575958301209     1.04047743976495
C   19   6    -6.18314754751344     3.80909592987882    -1.39656589068747
H   20   1     6.93011263717176    -1.87550812453645    -3.26656317360070
C   21   6     7.06356622236532     0.52877932406334    -6.57829775293605
H   22   1     4.82318879258361    -2.78573437948532    -5.70504560381835
H   23   1    -6.91582688743803     2.61304780074712    -2.95074552451969
H   24   1    -5.26532430573853     5.45420349051338    -2.31005832200284
C   25   6    -8.39941882261433     4.73263980500213     0.21800571437956
H   26   1     7.83338371486801     2.19084139882824    -5.57093109900697
H   27   1     5.73544244039420     1.27376866537418    -8.01071492370229
C   28   6     9.21124858443101    -0.89699110072176    -7.88926949186242
H   29   1    -7.66272760055236     5.92277078003992     1.77035591474408
H   30   1    -9.31497248082589     3.08753015622020     1.12614408368786
C   31   6   -10.35481709231879     6.21833079391143    -1.30905206253246
H   32   1    10.58815905329501    -1.61074586756696    -6.49512691622620
H   33   1    10.23506248045667     0.32468009384095    -9.23072870921204
H   34   1     8.47665842847139    -2.53598436989925    -8.94921964622535
H   35   1    -9.48948872868064     7.90013588951020    -2.18823918416067
H   36   1   -11.93332513000955     6.86460487874102    -0.11255798845995
H   37   1   -11.15126291841033     5.04495968327630    -2.83849898862534
[GTO]
1 0
 s    8 1.00
                 11720  0.00070964594651845
                  1759  0.0054672722921914
                 400.8   0.027823118610189
                 113.7    0.10474773971146
                 37.03    0.28292084635691
                 13.27    0.44849523869833
                 5.025    0.27081688521277
                 1.013    0.01545029160744
 s    8 1.00
                 11720  -0.00031444341168873
                  1759  -0.0024821376810179
                 400.8  -0.012316355381583
                 113.7  -0.050538917343672
                 37.03   -0.13938490331632
                 13.27   -0.32507749481778
                 5.025   -0.22984830758785
                 1.013     1.0953793467883
 s    1 1.00
                0.3023                   1
 p    3 1.00
                  17.7   0.062679166281506
                 3.854    0.33353656587936
                 1.046    0.74123964163973
 p    1 1.00
                0.2753                   1
 d    1 1.00
                 1.185                   1

2 0
 s    3 1.00
                 13.01   0.033498726389998
                 1.962    0.23480080117413
                0.4446     0.8136829578829
 s    1 1.00
                 0.122                   1
 p    1 1.00
                 0.727                   1

3 0
 s    3 1.00
                 13.01   0.033498726389998
                 1.962    0.23480080117413
                0.4446     0.8136829578829
 s    1 1.00
                 0.122                   1
 p    1 1.00
                 0.727                   1

4 0
 s    8 1.00
                 11720  0.00070964594651845
                  1759  0.0054672722921914
                 400.8   0.027823118610189
                 113.7    0.10474773971146
                 37.03    0.28292084635691
                 13.27    0.44849523869833
                 5.025    0.27081688521277
                 1.013    0.01545029160744
 s    8 1.00
                 11720  -0.00031444341168873
                  1759  -0.0024821376810179
                 400.8  -0.012316355381583
                 113.7  -0.050538917343672
                 37.03   -0.13938490331632
                 13.27   -0.32507749481778
                 5.025   -0.22984830758785
                 1.013     1.0953793467883
 s    1 1.00
                0.3023                   1
 p    3 1.00
                  17.7   0.062679166281506
                 3.854    0.33353656587936
                 1.046    0.74123964163973
 p    1 1.00
                0.2753                   1
 d    1 1.00
                 1.185                   1

5 0
 s    8 1.00
                  6665  0.00069158396281299
                  1000  0.0053257961529341
                   228   0.027060721042034
                 64.71    0.10165684614077
                 21.06     0.2745748236174
                 7.495    0.44829431892377
                 2.797    0.28490261071525
                0.5215   0.015194859206082
 s    8 1.00
                  6665  -0.00029326965268655
                  1000  -0.0023180354739745
                   228  -0.011499786038565
                 64.71  -0.046826727009787
                 21.06   -0.12846616875047
                 7.495   -0.30126627246289
                 2.797   -0.25563070233011
                0.5215      1.093793361012
 s    1 1.00
                0.1596                   1
 p    3 1.00
                 9.439   0.056979251590039
                 2.002    0.31320721150073
                0.5456    0.76037674173753
 p    1 1.00
                0.1517                   1
 d    1 1.00
                  0.55                   1

6 0
 s    8 1.00
                  6665  0.00069158396281299
                  1000  0.0053257961529341
                   228   0.027060721042034
                 64.71    0.10165684614077
                 21.06     0.2745748236174
                 7.495    0.44829431892377
                 2.797    0.28490261071525
                0.5215   0.015194859206082
 s    8 1.00
                  6665  -0.00029326965268655
                  1000  -0.0023180354739745
                   228  -0.011499786038565
                 64.71  -0.046826727009787
                 21.06   -0.12846616875047
                 7.495   -0.30126627246289
                 2.797   -0.25563070233011
                0.5215      1.093793361012
 s    1 1.00
                0.1596                   1
 p    3 1.00
                 9.439   0.056979251590039
                 2.002    0.31320721150073
                0.5456    0.76037674173753
 p    1 1.00
                0.1517                   1
 d    1 1.00
                  0.55                   1

7 0
 s    8 1.00
                  6665  0.00069158396281299
                  1000  0.0053257961529341
                   228   0.027060721042034
                 64.71    0.10165684614077
                 21.06     0.2745748236174
                 7.495    0.44829431892377
                 2.797    0.28490261071525
                0.5215   0.015194859206082
 s    8 1.00
                  6665  -0.00029326965268655
                  1000  -0.0023180354739745
                   228  -0.011499786038565
                 64.71  -0.046826727009787
                 21.06   -0.12846616875047
                 7.495   -0.30126627246289
                 2.797   -0.25563070233011
                0.5215      1.093793361012
 s    1 1.00
                0.1596                   1
 p    3 1.00
                 9.439   0.056979251590039
                 2.002    0.31320721150073
                0.5456    0.76037674173753
 p    1 1.00
                0.1517                   1
 d    1 1.00
                  0.55                   1

8 0
 s    3 1.00
                 13.01   0.033498726389998
                 1.962    0.23480080117413
                0.4446     0.8136829578829
 s    1 1.00
                 0.122                   1
 p    1 1.00
                 0.727                   1

9 0
 s    8 1.00
                  6665  0.00069158396281299
                  1000  0.0053257961529341
                   228   0.027060721042034
                 64.71    0.10165684614077
                 21.06     0.2745748236174
                 7.495    0.44829431892377
                 2.797    0.28490261071525
                0.5215   0.015194859206082
 s    8 1.00
                  6665  -0.00029326965268655
                  1000  -0.0023180354739745
                   228  -0.011499786038565
                 64.71  -0.046826727009787
                 21.06   -0.12846616875047
                 7.495   -0.30126627246289
                 2.797   -0.25563070233011
                0.5215      1.093793361012
 s    1 1.00
                0.1596                   1
 p    3 1.00
                 9.439   0.056979251590039
                 2.002    0.31320721150073
                0.5456    0.76037674173753
 p    1 1.00
                0.1517                   1
 d    1 1.00
                  0.55                   1

10 0
 s    3 1.00
                 13.01   0.033498726389998
                 1.962    0.23480080117413
                0.4446     0.8136829578829
 s    1 1.00
                 0.122                   1
 p    1 1.00
                 0.727                   1

11 0
 s    3 1.00
                 13.01   0.033498726389998
                 1.962    0.23480080117413
                0.4446     0.8136829578829
 s    1 1.00
                 0.122                   1
 p    1 1.00
                 0.727                   1

12 0
 s    3 1.00
                 13.01   0.033498726389998
                 1.962    0.23480080117413
                0.4446     0.8136829578829
 s    1 1.00
                 0.122                   1
 p    1 1.00
                 0.727                   1

13 0
 s    8 1.00
                  6665  0.00069158396281299
                  1000  0.0053257961529341
                   228   0.027060721042034
                 64.71    0.10165684614077
                 21.06     0.2745748236174
                 7.495    0.44829431892377
                 2.797    0.28490261071525
                0.5215   0.015194859206082
 s    8 1.00
                  6665  -0.00029326965268655
                  1000  -0.0023180354739745
                   228  -0.011499786038565
                 64.71  -0.046826727009787
                 21.06   -0.12846616875047
                 7.495   -0.30126627246289
                 2.797   -0.25563070233011
                0.5215      1.093793361012
 s    1 1.00
                0.1596                   1
 p    3 1.00
                 9.439   0.056979251590039
                 2.002    0.31320721150073
                0.5456    0.76037674173753
 p    1 1.00
                0.1517                   1
 d    1 1.00
                  0.55                   1

14 0
 s    3 1.00
                 13.01   0.033498726389998
                 1.962    0.23480080117413
                0.4446     0.8136829578829
 s    1 1.00
                 0.122                   1
 p    1 1.00
                 0.727                   1

15 0
 s    3 1.00
                 13.01   0.033498726389998
                 1.962    0.23480080117413
                0.4446     0.8136829578829
 s    1 1.00
                 0.122                   1
 p    1 1.00
                 0.727                   1

16 0
 s    8 1.00
                  6665  0.00069158396281299
                  1000  0.0053257961529341
                   228   0.027060721042034
                 64.71    0.10165684614077
                 21.06     0.2745748236174
                 7.495    0.44829431892377
                 2.797    0.28490261071525
                0.5215   0.015194859206082
 s    8 1.00
                  6665  -0.00029326965268655
                  1000  -0.0023180354739745
                   228  -0.011499786038565
                 64.71  -0.046826727009787
                 21.06   -0.12846616875047
                 7.495   -0.30126627246289
                 2.797   -0.25563070233011
                0.5215      1.093793361012
 s    1 1.00
                0.1596                   1
 p    3 1.00
                 9.439   0.056979251590039
                 2.002    0.31320721150073
                0.5456    0.76037674173753
 p    1 1.00
                0.1517                   1
 d    1 1.00
                  0.55                   1

17 0
 s    3 1.00
                 13.01   0.033498726389998
                 1.962    0.23480080117413
                0.4446     0.8136829578829
 s    1 1.00
                 0.122                   1
 p    1 1.00
                 0.727                   1

18 0
 s    3 1.00
                 13.01   0.033498726389998
                 1.962    0.23480080117413
                0.4446     0.8136829578829
 s    1 1.00
                 0.122                   1
 p    1 1.00
                 0.727                   1

19 0
 s    8 1.00
                  6665  0.00069158396281299
                  1000  0.0053257961529341
                   228   0.027060721042034
                 64.71    0.10165684614077
                 21.06     0.2745748236174
                 7.495    0.44829431892377
                 2.797    0.28490261071525
                0.5215   0.015194859206082
 s    8 1.00
                  6665  -0.00029326965268655
                  1000  -0.0023180354739745
                   228  -0.011499786038565
                 64.71  -0.046826727009787
                 21.06   -0.12846616875047
                 7.495   -0.30126627246289
                 2.797   -0.25563070233011
                0.5215      1.093793361012
 s    1 1.00
                0.1596                   1
 p    3 1.00
                 9.439   0.056979251590039
                 2.002    0.31320721150073
                0.5456    0.76037674173753
 p    1 1.00
                0.1517                   1
 d    1 1.00
                  0.55                   1

20 0
 s    3 1.00
                 13.01   0.033498726389998
                 1.962    0.23480080117413
                0.4446     0.8136829578829
 s    1 1.00
                 0.122                   1
 p    1 1.00
                 0.727                   1

21 0
 s    8 1.00
                  6665  0.00069158396281299
                  1000  0.0053257961529341
                   228   0.027060721042034
                 64.71    0.10165684614077
                 21.06     0.2745748236174
                 7.495    0.44829431892377
                 2.797    0.28490261071525
                0.5215   0.015194859206082
 s    8 1.00
                  6665  -0.00029326965268655
                  1000  -0.0023180354739745
                   228  -0.011499786038565
                 64.71  -0.046826727009787
                 21.06   -0.12846616875047
                 7.495   -0.30126627246289
                 2.797   -0.25563070233011
                0.5215      1.093793361012
 s    1 1.00
                0.1596                   1
 p    3 1.00
                 9.439   0.056979251590039
                 2.002    0.31320721150073
                0.5456    0.76037674173753
 p    1 1.00
                0.1517                   1
 d    1 1.00
                  0.55                   1

22 0
 s    3 1.00
                 13.01   0.033498726389998
                 1.962    0.23480080117413
                0.4446     0.8136829578829
 s    1 1.00
                 0.122                   1
 p    1 1.00
                 0.727                   1

23 0
 s    3 1.00
                 13.01   0.033498726389998
                 1.962    0.23480080117413
                0.4446     0.8136829578829
 s    1 1.00
                 0.122                   1
 p    1 1.00
                 0.727                   1

24 0
 s    3 1.00
                 13.01   0.033498726389998
                 1.962    0.23480080117413
                0.4446     0.8136829578829
 s    1 1.00
                 0.122                   1
 p    1 1.00
                 0.727                   1

25 0
 s    8 1.00
                  6665  0.00069158396281299
                  1000  0.0053257961529341
                   228   0.027060721042034
                 64.71    0.10165684614077
                 21.06     0.2745748236174
                 7.495    0.44829431892377
                 2.797    0.28490261071525
                0.5215   0.015194859206082
 s    8 1.00
                  6665  -0.00029326965268655
                  1000  -0.0023180354739745
                   228  -0.011499786038565
                 64.71  -0.046826727009787
                 21.06   -0.12846616875047
                 7.495   -0.30126627246289
                 2.797   -0.25563070233011
                0.5215      1.093793361012
 s    1 1.00
                0.1596                   1
 p    3 1.00
                 9.439   0.056979251590039
                 2.002    0.31320721150073
                0.5456    0.76037674173753
 p    1 1.00
                0.1517                   1
 d    1 1.00
                  0.55                   1

26 0
 s    3 1.00
                 13.01   0.033498726389998
                 1.962    0.23480080117413
                0.4446     0.8136829578829
 s    1 1.00
                 0.122                   1
 p    1 1.00
                 0.727                   1

27 0
 s    3 1.00
                 13.01   0.033498726389998
                 1.962    0.23480080117413
                0.4446     0.8136829578829
 s    1 1.00
                 0.122                   1
 p    1 1.00
                 0.727                   1

28 0
 s    8 1.00
                  6665  0.00069158396281299
                  1000  0.0053257961529341
                   228   0.027060721042034
                 64.71    0.10165684614077
                 21.06     0.2745748236174
                 7.495    0.44829431892377
                 2.797    0.28490261071525
                0.5215   0.015194859206082
 s    8 1.00
                  6665  -0.00029326965268655
                  1000  -0.0023180354739745
                   228  -0.011499786038565
                 64.71  -0.046826727009787
                 21.06   -0.12846616875047
                 7.495   -0.30126627246289
                 2.797   -0.25563070233011
                0.5215      1.093793361012
 s    1 1.00
                0.1596                   1
 p    3 1.00
                 9.439   0.056979251590039
                 2.002    0.31320721150073
                0.5456    0.76037674173753
 p    1 1.00
                0.1517                   1
 d    1 1.00
                  0.55                   1

29 0
 s    3 1.00
                 13.01   0.033498726389998
                 1.962    0.23480080117413
                0.4446     0.8136829578829
 s    1 1.00
                 0.122                   1
 p    1 1.00
                 0.727                   1

30 0
 s    3 1.00
                 13.01   0.033498726389998
                 1.962    0.23480080117413
                0.4446     0.8136829578829
 s    1 1.00
                 0.122                   1
 p    1 1.00
                 0.727                   1

31 0
 s    8 1.00
                  6665  0.00069158396281299
                  1000  0.0053257961529341
                   228   0.027060721042034
                 64.71    0.10165684614077
                 21.06     0.2745748236174
                 7.495    0.44829431892377
                 2.797    0.28490261071525
                0.5215   0.015194859206082
 s    8 1.00
                  6665  -0.00029326965268655
                  1000  -0.0023180354739745
                   228  -0.011499786038565
                 64.71  -0.046826727009787
                 21.06   -0.12846616875047
                 7.495   -0.30126627246289
                 2.797   -0.25563070233011
                0.5215      1.093793361012
 s    1 1.00
                0.1596                   1
 p    3 1.00
                 9.439   0.056979251590039
                 2.002    0.31320721150073
                0.5456    0.76037674173753
 p    1 1.00
                0.1517                   1
 d    1 1.00
                  0.55                   1

32 0
 s    3 1.00
                 13.01   0.033498726389998
                 1.962    0.23480080117413
                0.4446     0.8136829578829
 s    1 1.00
                 0.122                   1
 p    1 1.00
                 0.727                   1

33 0
 s    3 1.00
                 13.01   0.033498726389998
                 1.962    0.23480080117413
                0.4446     0.8136829578829
 s    1 1.00
                 0.122                   1
 p    1 1.00
                 0.727                   1

34 0
 s    3 1.00
                 13.01   0.033498726389998
                 1.962    0.23480080117413
                0.4446     0.8136829578829
 s    1 1.00
                 0.122                   1
 p    1 1.00
                 0.727                   1

35 0
 s    3 1.00
                 13.01   0.033498726389998
                 1.962    0.23480080117413
                0.4446     0.8136829578829
 s    1 1.00
                 0.122                   1
 p    1 1.00
                 0.727                   1

36 0
 s    3 1.00
                 13.01   0.033498726389998
                 1.962    0.23480080117413
                0.4446     0.8136829578829
 s    1 1.00
                 0.122                   1
 p    1 1.00
                 0.727                   1

37 0
 s    3 1.00
                 13.01   0.033498726389998
                 1.962    0.23480080117413
                0.4446     0.8136829578829
 s    1 1.00
                 0.122                   1
 p    1 1.00
                 0.727                   1

[5d]
[7f]
[9g]

[MO]
 Sym= A
 Ene=               0
 Spin= Alpha
 Occup=    1.00000
   1    6.5670592675723e-05
   2    1.0323733176201e-05
   3    -3.6046289015936e-05
   4    -7.9134292182707e-07
   5    -2.5504043652415e-06
   6    -8.613909353711e-06
   7    1.2180948114053e-06
   8    1.7813197208161e-05
   9    -2.9473102391244e-05
  10    1.565235581764e-05
  11    3.1761555272769e-07
  12    -2.9301023451057e-06
  13    -2.9052681044342e-06
  14    -1.005171877442e-07
  15    3.6089343131095e-05
  16    0.00018804961973031
  17    1.3451325517469e-06
  18    -4.06956702083e-06
  19    -3.5102587788861e-05
  20    -1.3856816795795e-05
  21    -1.9101384633069e-05
  22    -1.9773932751029e-07
  23    -4.016793362832e-06
  24    9.3533058457755e-06
  25      -1.0014027361179
  26    -0.0020697471790021
  27    0.0070477748475917
  28    5.6520413847375e-06
  29    -1.5250731031518e-05
  30    0.0015975822811013
  31    -4.5738392060913e-07
  32    4.6520247185955e-06
  33    -0.0020618170159818
  34    -0.00010892125926616
  35    2.7088948471124e-06
  36    -1.3935865890305e-06
  37    -6.3699420630661e-05
  38    0.00016622002687047
  39    -0.00029927639825598
  40    -0.0004264978072737
  41    -0.0016424793680698
  42    -1.6535300145299e-05
  43    1.0146415823175e-05
  44    -4.6715272296886e-05
  45    -8.1922348699903e-05
  46    6.5666918874721e-05
  47    -0.0037720668647801
  48    0.00048500283991096
  49    8.0801173488447e-06
  50    -2.4621035235408e-06
  51    -3.1306395362636e-05
  52    0.00011414021777557
  53    8.3805400920338e-05
  54    0.00016415068756393
  55    -0.0013977870605682
  56    -7.9253245738393e-05
  57    7.2317583459329e-06
  58    3.3618827895299e-05
  59    0.00043012853747394
  60    -0.00048599514046118
  61    0.0010048408201598
  62    0.00011505628235514
  63    -0.00015021459781681
  64    0.00014410522515176
  65    -5.3849742830096e-05
  66    0.00012530779192448
  67    3.671949403577e-05
  68    9.2295026492404e-05
  69    -0.00051371140773163
  70    6.3018106887445e-05
  71    -4.2275045103852e-05
  72    6.175580497534e-05
  73    -0.0010302397052053
  74    0.00079122876294601
  75     0.000684567382959
  76    0.00013848535814829
  77    0.00012213351454521
  78    -9.005016831321e-05
  79    -5.793301849124e-05
  80    0.00014851217700456
  81    5.6677923643229e-05
  82    -0.00022379692309214
  83    -6.7866656985498e-05
  84    4.9811570966855e-05
  85    -4.6351260006122e-05
  86    -2.4869847008181e-05
  87    -4.8707247815182e-05
  88    0.00063056039162534
  89    1.5531207814594e-05
  90    1.7413892537482e-05
  91    -1.1003205741678e-05
  92    -0.00026547604941224
  93    -0.00066291095660245
  94    9.631428360089e-06
  95    -1.9568115333793e-05
  96    -1.1605631999948e-05
  97    -8.417713863544e-06
  98    1.854588376447e-05
  99    5.0335010854746e-05
 100    4.254660353026e-05
 101    0.00016960119071307
 102    -4.8286697810222e-06
 103    1.1052446476953e-05
 104    -7.8954111403495e-05
 105    2.0126468594726e-05
 106    0.00021059659647667
 107    6.3543032130148e-05
 108    -6.4378012515752e-06
 109    -7.7991256561254e-05
 110    -7.9514695259409e-05
 111    6.9992160498314e-05
 112    4.3428458159926e-05
 113    -2.1025700280342e-05
 114    -7.286551192473e-05
 115    4.8754731290146e-05
 116    9.9148046869866e-05
 117    -0.000877014914692
 118    2.3673316933302e-05
 119    1.1962081205983e-05
 120    -3.1808330215115e-05
 121    -0.00028275378607593
 122    -4.2350294504941e-05
 123    0.00016474940381889
 124    5.5904249051963e-06
 125    -1.0042186337362e-05
 126    -1.4875572617951e-05
 127    3.2635454658587e-05
 128    -5.2127926752588e-05
 129    2.0082405095524e-05
 130    0.00034492535178944
 131    -8.3867005145214e-06
 132    -5.9742397897668e-06
 133    -2.9936739380286e-05
 134    -2.514656018129e-05
 135    0.0001175107372365
 136    1.4124182398691e-05
 137    2.578654157146e-05
 138    2.785651039948e-05
 139    2.2285302611472e-05
 140    4.060273836219e-05
 141    -0.00031207862331992
 142    -7.6438887358442e-06
 143    3.2873245202729e-06
 144    6.0543466051442e-06
 145    0.00023097727316293
 146    -6.2814193037979e-05
 147    -5.788789520735e-05
 148    2.6046621572533e-06
 149    -3.5458274043874e-06
 150    5.124863231831e-06
 151    -1.3008388691382e-05
 152    4.615684910723e-06
 153    9.9252883271638e-05
 154    9.4150445522236e-05
 155    2.6700378072991e-05
 156    -2.7584811301531e-05
 157    -1.9641614013358e-05
 158    2.6603309840655e-05
 159    8.6676923143242e-05
 160    5.9439214998013e-05
 161    7.931850625171e-06
 162    -7.2376234501987e-06
 163    -2.4593750609267e-07
 164    1.785114328721e-06
 165    0.00027745048271742
 166    1.8093655057737e-05
 167    -1.4375155095466e-05
 168    -7.0308982719979e-06
 169    -0.00023109349228304
 170    0.00020915858758051
 171    0.00014508349923544
 172    2.1726233590281e-06
 173    -1.0014674401137e-05
 174       1.360077463e-05
 175    -2.9757398797918e-06
 176    1.7832645605009e-05
 177    1.6923282254322e-05
 178    -8.7404866950063e-05
 179    1.4395763305148e-06
 180    -1.4343116285686e-06
 181    4.502514466481e-06
 182    -1.667019189261e-05
 183    -2.9512509978647e-05
 184    8.3936369540365e-05
 185    4.4633409381977e-06
 186    -4.0064211901594e-06
 187    -5.3417974044961e-06
 188    -0.00013308961657841
 189    0.0001024440544514
 190    9.4641027354456e-05
 191    -1.1426502966281e-06
 192    -2.4616257397795e-06
 193    7.5565457581849e-06
 194    2.9937467815208e-06
 195    5.8617003236059e-06
 196    1.2661124912134e-05
 197    1.9606733967713e-05
 198    -5.6375903116683e-06
 199    -1.937211549297e-06
 200    3.0833888504493e-06
 201    1.2598160257296e-05
 202    -8.1054544590287e-07
 203    1.351424827696e-05
 204    -9.7636378153771e-06
 205    -1.181668670184e-05
 206    -9.5877221247272e-06
 207    -6.9564465285992e-05
 208    1.5976760962562e-05
 209    -3.8365270717361e-06
 210    -1.6171320344422e-05
 211    1.8771084231613e-05
 212    3.2594274630883e-05
 213    -0.00027311576419399
 214    -6.0507054642004e-06
 215    2.6890404429387e-06
 216    6.5905440609348e-06
 217    -0.00019542276028073
 218    5.1659964354223e-05
 219    8.1373091305316e-05
 220    1.9055342555198e-06
 221    1.6284506446189e-05
 222    -5.4325309614531e-06
 223    -9.5783824612802e-06
 224    1.8293696025717e-06
 225    -2.7264799115701e-05
 226    -5.8150977523487e-05
 227    1.2762390380023e-05
 228    2.2858966343052e-06
 229    9.5630469103607e-07
 230    -1.0374285068953e-05
 231    -5.4407142777262e-05
 232    4.1772077553903e-06
 233    -6.6008746393781e-06
 234    -1.2337149724107e-05
 235    -6.218620619594e-07
 236    -1.0873836091708e-06
 237    8.0500395113849e-05
 238    -2.1861384787717e-06
 239    -2.0948688980159e-06
 240    3.7631943366561e-06
 241    -3.7575290020439e-05
 242    6.4267288999174e-05
 243    -1.8373163342152e-05
 244    -2.0395283513272e-06
 245    -1.9739469261202e-06
 246    1.8497869905727e-06
 247    -9.0629193452666e-08
 248    -9.5449988642926e-07
 249    1.7665965737642e-05
 250    -1.0288361924947e-05
 251    4.363877666333e-06
 252    8.6770029794504e-07
 253    -2.1074928858688e-07
 254    1.6551390366728e-05
 255    -5.6852852073891e-05
 256    -4.0131208140418e-07
 257    -4.2800020522584e-06
 258    7.5593114207695e-07
 259    2.7627911608071e-06
 260    1.5623587973968e-05
 261    -7.1958556033041e-05
 262    2.4872502941878e-06
 263    1.9990154940202e-06