[Molden Format]
made by pyscf v[2.0.1]
[Atoms] (AU)
O   1   8     0.00000000000000     0.00000000000000     6.78435311142442
H   2   1     0.00000000000000     0.00000000000000     4.96095128952346
H   3   1    -0.05031916615174     1.78353065140343     7.16022480789109
O   4   8     0.00000000000000     0.00000000000000     2.31533471513237
C   5   6     0.00000000000000     0.00000000000000     0.00000000000000
C   6   6     2.01118073026938    -1.40227222164369    -1.50774939176400
C   7   6    -2.01249334291722     1.41331050329955    -1.50315905028694
H   8   1     3.32037363730244    -2.26721897153159    -0.13599698591495
C   9   6     3.45899267434009     0.28739631745591    -3.37437943254505
H   10   1     1.07662969841332    -2.94725144642667    -2.56541439481080
H   11   1    -2.67503415753480     0.18421555839588    -3.06194479365997
H   12   1    -1.07974048864772     3.03851734677796    -2.43674295017013
C   13   6    -4.21607110578555     2.32938802552922     0.11994162256091
H   14   1     4.24440173074564     1.93368664142019    -2.34976285512790
H   15   1     2.15020713235517     1.04714335134846    -4.81494497423699
C   16   6     5.60746363007797    -1.12419643481196    -4.70268606082550
H   17   1    -3.46838323670267     3.50951302338067     1.66946842715333
H   18   1    -5.11873485366228     0.68575958301209     1.04047743976495
C   19   6    -6.18314754751344     3.80909592987882    -1.39656589068747
H   20   1     6.93011263717176    -1.87550812453645    -3.26656317360070
C   21   6     7.06356622236532     0.52877932406334    -6.57829775293605
H   22   1     4.82318879258361    -2.78573437948532    -5.70504560381835
H   23   1    -6.91582688743803     2.61304780074712    -2.95074552451969
H   24   1    -5.26532430573853     5.45420349051338    -2.31005832200284
C   25   6    -8.39941882261433     4.73263980500213     0.21800571437956
H   26   1     7.83338371486801     2.19084139882824    -5.57093109900697
H   27   1     5.73544244039420     1.27376866537418    -8.01071492370229
C   28   6     9.21124858443101    -0.89699110072176    -7.88926949186242
H   29   1    -7.66272760055236     5.92277078003992     1.77035591474408
H   30   1    -9.31497248082589     3.08753015622020     1.12614408368786
C   31   6   -10.35481709231879     6.21833079391143    -1.30905206253246
H   32   1    10.58815905329501    -1.61074586756696    -6.49512691622620
H   33   1    10.23506248045667     0.32468009384095    -9.23072870921204
H   34   1     8.47665842847139    -2.53598436989925    -8.94921964622535
H   35   1    -9.48948872868064     7.90013588951020    -2.18823918416067
H   36   1   -11.93332513000955     6.86460487874102    -0.11255798845995
H   37   1   -11.15126291841033     5.04495968327630    -2.83849898862534
[GTO]
1 0
 s    8 1.00
                 11720  0.00070964594651845
                  1759  0.0054672722921914
                 400.8   0.027823118610189
                 113.7    0.10474773971146
                 37.03    0.28292084635691
                 13.27    0.44849523869833
                 5.025    0.27081688521277
                 1.013    0.01545029160744
 s    8 1.00
                 11720  -0.00031444341168873
                  1759  -0.0024821376810179
                 400.8  -0.012316355381583
                 113.7  -0.050538917343672
                 37.03   -0.13938490331632
                 13.27   -0.32507749481778
                 5.025   -0.22984830758785
                 1.013     1.0953793467883
 s    1 1.00
                0.3023                   1
 p    3 1.00
                  17.7   0.062679166281506
                 3.854    0.33353656587936
                 1.046    0.74123964163973
 p    1 1.00
                0.2753                   1
 d    1 1.00
                 1.185                   1

2 0
 s    3 1.00
                 13.01   0.033498726389998
                 1.962    0.23480080117413
                0.4446     0.8136829578829
 s    1 1.00
                 0.122                   1
 p    1 1.00
                 0.727                   1

3 0
 s    3 1.00
                 13.01   0.033498726389998
                 1.962    0.23480080117413
                0.4446     0.8136829578829
 s    1 1.00
                 0.122                   1
 p    1 1.00
                 0.727                   1

4 0
 s    8 1.00
                 11720  0.00070964594651845
                  1759  0.0054672722921914
                 400.8   0.027823118610189
                 113.7    0.10474773971146
                 37.03    0.28292084635691
                 13.27    0.44849523869833
                 5.025    0.27081688521277
                 1.013    0.01545029160744
 s    8 1.00
                 11720  -0.00031444341168873
                  1759  -0.0024821376810179
                 400.8  -0.012316355381583
                 113.7  -0.050538917343672
                 37.03   -0.13938490331632
                 13.27   -0.32507749481778
                 5.025   -0.22984830758785
                 1.013     1.0953793467883
 s    1 1.00
                0.3023                   1
 p    3 1.00
                  17.7   0.062679166281506
                 3.854    0.33353656587936
                 1.046    0.74123964163973
 p    1 1.00
                0.2753                   1
 d    1 1.00
                 1.185                   1

5 0
 s    8 1.00
                  6665  0.00069158396281299
                  1000  0.0053257961529341
                   228   0.027060721042034
                 64.71    0.10165684614077
                 21.06     0.2745748236174
                 7.495    0.44829431892377
                 2.797    0.28490261071525
                0.5215   0.015194859206082
 s    8 1.00
                  6665  -0.00029326965268655
                  1000  -0.0023180354739745
                   228  -0.011499786038565
                 64.71  -0.046826727009787
                 21.06   -0.12846616875047
                 7.495   -0.30126627246289
                 2.797   -0.25563070233011
                0.5215      1.093793361012
 s    1 1.00
                0.1596                   1
 p    3 1.00
                 9.439   0.056979251590039
                 2.002    0.31320721150073
                0.5456    0.76037674173753
 p    1 1.00
                0.1517                   1
 d    1 1.00
                  0.55                   1

6 0
 s    8 1.00
                  6665  0.00069158396281299
                  1000  0.0053257961529341
                   228   0.027060721042034
                 64.71    0.10165684614077
                 21.06     0.2745748236174
                 7.495    0.44829431892377
                 2.797    0.28490261071525
                0.5215   0.015194859206082
 s    8 1.00
                  6665  -0.00029326965268655
                  1000  -0.0023180354739745
                   228  -0.011499786038565
                 64.71  -0.046826727009787
                 21.06   -0.12846616875047
                 7.495   -0.30126627246289
                 2.797   -0.25563070233011
                0.5215      1.093793361012
 s    1 1.00
                0.1596                   1
 p    3 1.00
                 9.439   0.056979251590039
                 2.002    0.31320721150073
                0.5456    0.76037674173753
 p    1 1.00
                0.1517                   1
 d    1 1.00
                  0.55                   1

7 0
 s    8 1.00
                  6665  0.00069158396281299
                  1000  0.0053257961529341
                   228   0.027060721042034
                 64.71    0.10165684614077
                 21.06     0.2745748236174
                 7.495    0.44829431892377
                 2.797    0.28490261071525
                0.5215   0.015194859206082
 s    8 1.00
                  6665  -0.00029326965268655
                  1000  -0.0023180354739745
                   228  -0.011499786038565
                 64.71  -0.046826727009787
                 21.06   -0.12846616875047
                 7.495   -0.30126627246289
                 2.797   -0.25563070233011
                0.5215      1.093793361012
 s    1 1.00
                0.1596                   1
 p    3 1.00
                 9.439   0.056979251590039
                 2.002    0.31320721150073
                0.5456    0.76037674173753
 p    1 1.00
                0.1517                   1
 d    1 1.00
                  0.55                   1

8 0
 s    3 1.00
                 13.01   0.033498726389998
                 1.962    0.23480080117413
                0.4446     0.8136829578829
 s    1 1.00
                 0.122                   1
 p    1 1.00
                 0.727                   1

9 0
 s    8 1.00
                  6665  0.00069158396281299
                  1000  0.0053257961529341
                   228   0.027060721042034
                 64.71    0.10165684614077
                 21.06     0.2745748236174
                 7.495    0.44829431892377
                 2.797    0.28490261071525
                0.5215   0.015194859206082
 s    8 1.00
                  6665  -0.00029326965268655
                  1000  -0.0023180354739745
                   228  -0.011499786038565
                 64.71  -0.046826727009787
                 21.06   -0.12846616875047
                 7.495   -0.30126627246289
                 2.797   -0.25563070233011
                0.5215      1.093793361012
 s    1 1.00
                0.1596                   1
 p    3 1.00
                 9.439   0.056979251590039
                 2.002    0.31320721150073
                0.5456    0.76037674173753
 p    1 1.00
                0.1517                   1
 d    1 1.00
                  0.55                   1

10 0
 s    3 1.00
                 13.01   0.033498726389998
                 1.962    0.23480080117413
                0.4446     0.8136829578829
 s    1 1.00
                 0.122                   1
 p    1 1.00
                 0.727                   1

11 0
 s    3 1.00
                 13.01   0.033498726389998
                 1.962    0.23480080117413
                0.4446     0.8136829578829
 s    1 1.00
                 0.122                   1
 p    1 1.00
                 0.727                   1

12 0
 s    3 1.00
                 13.01   0.033498726389998
                 1.962    0.23480080117413
                0.4446     0.8136829578829
 s    1 1.00
                 0.122                   1
 p    1 1.00
                 0.727                   1

13 0
 s    8 1.00
                  6665  0.00069158396281299
                  1000  0.0053257961529341
                   228   0.027060721042034
                 64.71    0.10165684614077
                 21.06     0.2745748236174
                 7.495    0.44829431892377
                 2.797    0.28490261071525
                0.5215   0.015194859206082
 s    8 1.00
                  6665  -0.00029326965268655
                  1000  -0.0023180354739745
                   228  -0.011499786038565
                 64.71  -0.046826727009787
                 21.06   -0.12846616875047
                 7.495   -0.30126627246289
                 2.797   -0.25563070233011
                0.5215      1.093793361012
 s    1 1.00
                0.1596                   1
 p    3 1.00
                 9.439   0.056979251590039
                 2.002    0.31320721150073
                0.5456    0.76037674173753
 p    1 1.00
                0.1517                   1
 d    1 1.00
                  0.55                   1

14 0
 s    3 1.00
                 13.01   0.033498726389998
                 1.962    0.23480080117413
                0.4446     0.8136829578829
 s    1 1.00
                 0.122                   1
 p    1 1.00
                 0.727                   1

15 0
 s    3 1.00
                 13.01   0.033498726389998
                 1.962    0.23480080117413
                0.4446     0.8136829578829
 s    1 1.00
                 0.122                   1
 p    1 1.00
                 0.727                   1

16 0
 s    8 1.00
                  6665  0.00069158396281299
                  1000  0.0053257961529341
                   228   0.027060721042034
                 64.71    0.10165684614077
                 21.06     0.2745748236174
                 7.495    0.44829431892377
                 2.797    0.28490261071525
                0.5215   0.015194859206082
 s    8 1.00
                  6665  -0.00029326965268655
                  1000  -0.0023180354739745
                   228  -0.011499786038565
                 64.71  -0.046826727009787
                 21.06   -0.12846616875047
                 7.495   -0.30126627246289
                 2.797   -0.25563070233011
                0.5215      1.093793361012
 s    1 1.00
                0.1596                   1
 p    3 1.00
                 9.439   0.056979251590039
                 2.002    0.31320721150073
                0.5456    0.76037674173753
 p    1 1.00
                0.1517                   1
 d    1 1.00
                  0.55                   1

17 0
 s    3 1.00
                 13.01   0.033498726389998
                 1.962    0.23480080117413
                0.4446     0.8136829578829
 s    1 1.00
                 0.122                   1
 p    1 1.00
                 0.727                   1

18 0
 s    3 1.00
                 13.01   0.033498726389998
                 1.962    0.23480080117413
                0.4446     0.8136829578829
 s    1 1.00
                 0.122                   1
 p    1 1.00
                 0.727                   1

19 0
 s    8 1.00
                  6665  0.00069158396281299
                  1000  0.0053257961529341
                   228   0.027060721042034
                 64.71    0.10165684614077
                 21.06     0.2745748236174
                 7.495    0.44829431892377
                 2.797    0.28490261071525
                0.5215   0.015194859206082
 s    8 1.00
                  6665  -0.00029326965268655
                  1000  -0.0023180354739745
                   228  -0.011499786038565
                 64.71  -0.046826727009787
                 21.06   -0.12846616875047
                 7.495   -0.30126627246289
                 2.797   -0.25563070233011
                0.5215      1.093793361012
 s    1 1.00
                0.1596                   1
 p    3 1.00
                 9.439   0.056979251590039
                 2.002    0.31320721150073
                0.5456    0.76037674173753
 p    1 1.00
                0.1517                   1
 d    1 1.00
                  0.55                   1

20 0
 s    3 1.00
                 13.01   0.033498726389998
                 1.962    0.23480080117413
                0.4446     0.8136829578829
 s    1 1.00
                 0.122                   1
 p    1 1.00
                 0.727                   1

21 0
 s    8 1.00
                  6665  0.00069158396281299
                  1000  0.0053257961529341
                   228   0.027060721042034
                 64.71    0.10165684614077
                 21.06     0.2745748236174
                 7.495    0.44829431892377
                 2.797    0.28490261071525
                0.5215   0.015194859206082
 s    8 1.00
                  6665  -0.00029326965268655
                  1000  -0.0023180354739745
                   228  -0.011499786038565
                 64.71  -0.046826727009787
                 21.06   -0.12846616875047
                 7.495   -0.30126627246289
                 2.797   -0.25563070233011
                0.5215      1.093793361012
 s    1 1.00
                0.1596                   1
 p    3 1.00
                 9.439   0.056979251590039
                 2.002    0.31320721150073
                0.5456    0.76037674173753
 p    1 1.00
                0.1517                   1
 d    1 1.00
                  0.55                   1

22 0
 s    3 1.00
                 13.01   0.033498726389998
                 1.962    0.23480080117413
                0.4446     0.8136829578829
 s    1 1.00
                 0.122                   1
 p    1 1.00
                 0.727                   1

23 0
 s    3 1.00
                 13.01   0.033498726389998
                 1.962    0.23480080117413
                0.4446     0.8136829578829
 s    1 1.00
                 0.122                   1
 p    1 1.00
                 0.727                   1

24 0
 s    3 1.00
                 13.01   0.033498726389998
                 1.962    0.23480080117413
                0.4446     0.8136829578829
 s    1 1.00
                 0.122                   1
 p    1 1.00
                 0.727                   1

25 0
 s    8 1.00
                  6665  0.00069158396281299
                  1000  0.0053257961529341
                   228   0.027060721042034
                 64.71    0.10165684614077
                 21.06     0.2745748236174
                 7.495    0.44829431892377
                 2.797    0.28490261071525
                0.5215   0.015194859206082
 s    8 1.00
                  6665  -0.00029326965268655
                  1000  -0.0023180354739745
                   228  -0.011499786038565
                 64.71  -0.046826727009787
                 21.06   -0.12846616875047
                 7.495   -0.30126627246289
                 2.797   -0.25563070233011
                0.5215      1.093793361012
 s    1 1.00
                0.1596                   1
 p    3 1.00
                 9.439   0.056979251590039
                 2.002    0.31320721150073
                0.5456    0.76037674173753
 p    1 1.00
                0.1517                   1
 d    1 1.00
                  0.55                   1

26 0
 s    3 1.00
                 13.01   0.033498726389998
                 1.962    0.23480080117413
                0.4446     0.8136829578829
 s    1 1.00
                 0.122                   1
 p    1 1.00
                 0.727                   1

27 0
 s    3 1.00
                 13.01   0.033498726389998
                 1.962    0.23480080117413
                0.4446     0.8136829578829
 s    1 1.00
                 0.122                   1
 p    1 1.00
                 0.727                   1

28 0
 s    8 1.00
                  6665  0.00069158396281299
                  1000  0.0053257961529341
                   228   0.027060721042034
                 64.71    0.10165684614077
                 21.06     0.2745748236174
                 7.495    0.44829431892377
                 2.797    0.28490261071525
                0.5215   0.015194859206082
 s    8 1.00
                  6665  -0.00029326965268655
                  1000  -0.0023180354739745
                   228  -0.011499786038565
                 64.71  -0.046826727009787
                 21.06   -0.12846616875047
                 7.495   -0.30126627246289
                 2.797   -0.25563070233011
                0.5215      1.093793361012
 s    1 1.00
                0.1596                   1
 p    3 1.00
                 9.439   0.056979251590039
                 2.002    0.31320721150073
                0.5456    0.76037674173753
 p    1 1.00
                0.1517                   1
 d    1 1.00
                  0.55                   1

29 0
 s    3 1.00
                 13.01   0.033498726389998
                 1.962    0.23480080117413
                0.4446     0.8136829578829
 s    1 1.00
                 0.122                   1
 p    1 1.00
                 0.727                   1

30 0
 s    3 1.00
                 13.01   0.033498726389998
                 1.962    0.23480080117413
                0.4446     0.8136829578829
 s    1 1.00
                 0.122                   1
 p    1 1.00
                 0.727                   1

31 0
 s    8 1.00
                  6665  0.00069158396281299
                  1000  0.0053257961529341
                   228   0.027060721042034
                 64.71    0.10165684614077
                 21.06     0.2745748236174
                 7.495    0.44829431892377
                 2.797    0.28490261071525
                0.5215   0.015194859206082
 s    8 1.00
                  6665  -0.00029326965268655
                  1000  -0.0023180354739745
                   228  -0.011499786038565
                 64.71  -0.046826727009787
                 21.06   -0.12846616875047
                 7.495   -0.30126627246289
                 2.797   -0.25563070233011
                0.5215      1.093793361012
 s    1 1.00
                0.1596                   1
 p    3 1.00
                 9.439   0.056979251590039
                 2.002    0.31320721150073
                0.5456    0.76037674173753
 p    1 1.00
                0.1517                   1
 d    1 1.00
                  0.55                   1

32 0
 s    3 1.00
                 13.01   0.033498726389998
                 1.962    0.23480080117413
                0.4446     0.8136829578829
 s    1 1.00
                 0.122                   1
 p    1 1.00
                 0.727                   1

33 0
 s    3 1.00
                 13.01   0.033498726389998
                 1.962    0.23480080117413
                0.4446     0.8136829578829
 s    1 1.00
                 0.122                   1
 p    1 1.00
                 0.727                   1

34 0
 s    3 1.00
                 13.01   0.033498726389998
                 1.962    0.23480080117413
                0.4446     0.8136829578829
 s    1 1.00
                 0.122                   1
 p    1 1.00
                 0.727                   1

35 0
 s    3 1.00
                 13.01   0.033498726389998
                 1.962    0.23480080117413
                0.4446     0.8136829578829
 s    1 1.00
                 0.122                   1
 p    1 1.00
                 0.727                   1

36 0
 s    3 1.00
                 13.01   0.033498726389998
                 1.962    0.23480080117413
                0.4446     0.8136829578829
 s    1 1.00
                 0.122                   1
 p    1 1.00
                 0.727                   1

37 0
 s    3 1.00
                 13.01   0.033498726389998
                 1.962    0.23480080117413
                0.4446     0.8136829578829
 s    1 1.00
                 0.122                   1
 p    1 1.00
                 0.727                   1

[5d]
[7f]
[9g]

[MO]
 Sym= A
 Ene=               0
 Spin= Alpha
 Occup=    1.00000
   1    7.7477799265247e-05
   2    2.2004419136529e-06
   3    0.00012917507034425
   4    -1.1727362680892e-06
   5    -4.6057696889234e-07
   6    -5.2716310989506e-05
   7    2.153128555484e-06
   8    1.473476791993e-05
   9    -0.00013689006963731
  10    6.1341260188508e-05
  11    2.813522868897e-07
  12    -2.8233827059406e-06
  13    -4.6548134670574e-06
  14    -2.0230747115314e-07
  15    -4.7120536133297e-05
  16    0.00012406512971034
  17    1.5030649629202e-06
  18    -5.1142492788901e-06
  19    -0.00016188034814968
  20    -2.8393500376398e-05
  21    8.8180616050436e-06
  22    -2.3441276984273e-07
  23    -6.0380546369984e-06
  24    1.0123325469549e-05
  25       -1.001412774441
  26    -0.0021239236422608
  27    0.0070310600633192
  28    5.3786974041288e-06
  29    -1.6827744232314e-05
  30    0.0015700471422393
  31    -1.199521268278e-06
  32    4.6918829043889e-06
  33    -0.0021226806772327
  34    -0.00013955892991169
  35    2.646935743968e-06
  36    -1.0848536350276e-06
  37    -6.2035207862884e-05
  38    0.00016258527240496
  39    -0.0003001147329756
  40    -0.00042690659921162
  41    -0.0017244930075752
  42    -1.6497984684176e-05
  43    1.0490501348391e-05
  44    -5.2548030073131e-05
  45    -7.112741797398e-05
  46    5.8961806522563e-05
  47    -0.0037357476739681
  48     0.000490936951333
  49    7.7222798816165e-06
  50    -1.7886020772349e-06
  51    -3.3209919791764e-05
  52    0.0001187854877393
  53    8.4134122764048e-05
  54    0.00016514649938307
  55    -0.0013786127086298
  56    -8.0587266067374e-05
  57    8.572281526277e-06
  58    3.5608190627596e-05
  59    0.00040821439505259
  60    -0.00047527401395945
  61    0.00099327399856048
  62    0.0001134574646559
  63    -0.00015294449687926
  64    0.0001461397152142
  65    -5.3812820215594e-05
  66    0.00012511239927463
  67    3.5856893364238e-05
  68    9.1339270420949e-05
  69    -0.00047007160502662
  70    6.4608869125354e-05
  71    -4.3091412210767e-05
  72    6.3771816280212e-05
  73    -0.0010103857915744
  74    0.00077329672863458
  75    0.0006908123477517
  76    0.0001365428433051
  77    0.00012476558751712
  78    -9.1554660303157e-05
  79    -5.7568966191689e-05
  80    0.0001472576444389
  81    6.0308325125943e-05
  82    -0.0002122719936278
  83    -6.8151508790358e-05
  84    5.0206401979634e-05
  85    -4.8267432907312e-05
  86    -2.4729606608639e-05
  87    -4.8523240657422e-05
  88    0.00061971848465652
  89    1.5338382418379e-05
  90    1.7221901926938e-05
  91    -1.194798885443e-05
  92    -0.00026513306311986
  93    -0.00065143309281308
  94    2.0665441938606e-05
  95    -1.935763621187e-05
  96    -1.1303256220324e-05
  97    -8.3156920847881e-06
  98    1.8477682406248e-05
  99    5.0403839619263e-05
 100    3.9743565842724e-05
 101    0.00016738288094093
 102    -4.7285744385836e-06
 103    1.0550649203144e-05
 104    -7.8058990417185e-05
 105    1.8333610589257e-05
 106    0.00020725257356645
 107    6.2921127689767e-05
 108    -6.0769252113606e-06
 109    -7.787751741255e-05
 110    -8.0455989269922e-05
 111    7.2021623540259e-05
 112    4.3083436888721e-05
 113    -2.0794928137795e-05
 114    -7.227297602591e-05
 115    5.1220226912098e-05
 116    0.00010348259212096
 117    -0.00090232289585739
 118    2.4080558614641e-05
 119    1.1724564181209e-05
 120    -3.252524088549e-05
 121    -0.00027575325751409
 122    -4.5618396310251e-05
 123    0.00017113128045526
 124    5.3829994662299e-06
 125    -1.1511827136661e-05
 126    -1.4106461937134e-05
 127    3.2557395767328e-05
 128    -5.106592169521e-05
 129    1.7634077177464e-05
 130    0.00034020112529956
 131    -8.1678393133846e-06
 132    -5.8009064969106e-06
 133    -3.0057654387768e-05
 134    -2.3608449853954e-05
 135    0.00011544005784759
 136    1.4809986633649e-05
 137    2.5352210160219e-05
 138     2.62401891673e-05
 139    2.1091276631988e-05
 140    3.8506548634622e-05
 141    -0.00029878828375792
 142    -7.3782326969104e-06
 143    3.5154350771765e-06
 144    6.258141849138e-06
 145    0.00021881552879217
 146    -6.3191846356467e-05
 147    -5.6140397006418e-05
 148    2.3823977409567e-06
 149    -3.8703354793433e-06
 150    5.1156366246273e-06
 151    -1.2404327941878e-05
 152    4.201162281375e-06
 153    9.8634365341754e-05
 154    9.8353613111907e-05
 155    2.6193301348913e-05
 156    -2.7794772821798e-05
 157    -2.0216686243898e-05
 158    2.6215533255634e-05
 159    9.1645226199323e-05
 160    5.9192362978287e-05
 161    8.490093274362e-06
 162    -7.8639285152342e-06
 163    -1.6496081475282e-06
 164    -7.0782937086116e-07
 165    0.00029451737503541
 166    1.8229331998907e-05
 167    -1.4489932733313e-05
 168    -6.4531666104412e-06
 169    -0.00021645264008019
 170    0.00019947720033897
 171    0.0001466675533872
 172    1.7204970595079e-06
 173    -9.1729151901993e-06
 174    1.2953920755795e-05
 175    -2.672521560214e-06
 176    1.6731322184776e-05
 177    1.7116645577115e-05
 178    -8.6157197492164e-05
 179    1.8920893420266e-06
 180    -1.2020882438789e-06
 181    4.3262522910014e-06
 182    -1.6632828130498e-05
 183    -2.948143122753e-05
 184    8.3159734141837e-05
 185    4.490424148264e-06
 186    -4.0132159846695e-06
 187    -5.4713612019841e-06
 188    -0.00013265076569743
 189    0.00010271198864807
 190    9.8381708095918e-05
 191    -8.7259054591369e-07
 192    -2.4664241956272e-06
 193    7.3250623278834e-06
 194    2.8710966790102e-06
 195    5.8570366657979e-06
 196    1.103774386168e-05
 197    1.7824153852699e-05
 198    -5.2933105706478e-06
 199    -1.9358374455293e-06
 200    3.0034777218705e-06
 201    1.139858081352e-05
 202    -4.7861917839923e-07
 203    1.2923209241227e-05
 204    -9.3808646117541e-06
 205    -1.1655182642187e-05
 206    -1.0482351994001e-05
 207    -6.9675102118228e-05
 208    1.5353661207225e-05
 209    -3.4372220456337e-06
 210    -1.6035772573586e-05
 211    1.8474468290893e-05
 212    3.1880812417296e-05
 213    -0.00026669789328543
 214    -5.5757637470751e-06
 215    2.2229947296005e-06
 216    6.3720942343034e-06
 217    -0.00019514012988831
 218    5.2378694652327e-05
 219    8.0254350693834e-05
 220    2.1091332910113e-06
 221    1.6533381196935e-05
 222    -5.4932514494984e-06
 223    -9.5083142494096e-06
 224    1.9306941385058e-06
 225    -2.7498296933586e-05
 226    -5.8901982889779e-05
 227    1.2787859084153e-05
 228    2.3223812564692e-06
 229    8.2209331549063e-07
 230    -1.019330499256e-05
 231    -5.2006038331494e-05
 232    4.2856501847101e-06
 233    -6.6962393825573e-06
 234    -1.2276755852856e-05
 235    -1.0032930237334e-06
 236    -1.7582474907849e-06
 237    8.3317300645715e-05
 238    -2.1656301484934e-06
 239    -1.9599270064749e-06
 240    3.6861749992557e-06
 241    -3.9742831684792e-05
 242    6.3741602649441e-05
 243    -1.708208470581e-05
 244    -2.0924627079954e-06
 245    -2.0802613767958e-06
 246    1.7708765951738e-06
 247    8.5647807605487e-08
 248    -1.0999173651611e-06
 249    1.7807614435731e-05
 250    -1.0996175066429e-05
 251    4.4273506070537e-06
 252    9.2607121658047e-07
 253    3.5743175942866e-08
 254    1.6614233245927e-05
 255    -5.7667108159238e-05
 256    -4.161539516924e-07
 257    -4.4039475746416e-06
 258    9.068191089892e-07
 259    9.9364609068329e-06
 260    1.773727682522e-05
 261    -7.0498935542925e-05
 262    3.1726249392967e-06
 263    -1.2280266588951e-06