[Molden Format]
made by pyscf v[2.0.1]
[Atoms] (AU)
O   1   8     0.00000000000000     0.00000000000000    10.56380536055454
H   2   1     0.00000000000000     0.00000000000000     8.74040353865358
H   3   1    -0.05031916615174     1.78353065140343    10.93967705702121
O   4   8     0.00000000000000     0.00000000000000     2.31533471513237
C   5   6     0.00000000000000     0.00000000000000     0.00000000000000
C   6   6     2.01118073026938    -1.40227222164369    -1.50774939176400
C   7   6    -2.01249334291722     1.41331050329955    -1.50315905028694
H   8   1     3.32037363730244    -2.26721897153159    -0.13599698591495
C   9   6     3.45899267434009     0.28739631745591    -3.37437943254505
H   10   1     1.07662969841332    -2.94725144642667    -2.56541439481080
H   11   1    -2.67503415753480     0.18421555839588    -3.06194479365997
H   12   1    -1.07974048864772     3.03851734677796    -2.43674295017013
C   13   6    -4.21607110578555     2.32938802552922     0.11994162256091
H   14   1     4.24440173074564     1.93368664142019    -2.34976285512790
H   15   1     2.15020713235517     1.04714335134846    -4.81494497423699
C   16   6     5.60746363007797    -1.12419643481196    -4.70268606082550
H   17   1    -3.46838323670267     3.50951302338067     1.66946842715333
H   18   1    -5.11873485366228     0.68575958301209     1.04047743976495
C   19   6    -6.18314754751344     3.80909592987882    -1.39656589068747
H   20   1     6.93011263717176    -1.87550812453645    -3.26656317360070
C   21   6     7.06356622236532     0.52877932406334    -6.57829775293605
H   22   1     4.82318879258361    -2.78573437948532    -5.70504560381835
H   23   1    -6.91582688743803     2.61304780074712    -2.95074552451969
H   24   1    -5.26532430573853     5.45420349051338    -2.31005832200284
C   25   6    -8.39941882261433     4.73263980500213     0.21800571437956
H   26   1     7.83338371486801     2.19084139882824    -5.57093109900697
H   27   1     5.73544244039420     1.27376866537418    -8.01071492370229
C   28   6     9.21124858443101    -0.89699110072176    -7.88926949186242
H   29   1    -7.66272760055236     5.92277078003992     1.77035591474408
H   30   1    -9.31497248082589     3.08753015622020     1.12614408368786
C   31   6   -10.35481709231879     6.21833079391143    -1.30905206253246
H   32   1    10.58815905329501    -1.61074586756696    -6.49512691622620
H   33   1    10.23506248045667     0.32468009384095    -9.23072870921204
H   34   1     8.47665842847139    -2.53598436989925    -8.94921964622535
H   35   1    -9.48948872868064     7.90013588951020    -2.18823918416067
H   36   1   -11.93332513000955     6.86460487874102    -0.11255798845995
H   37   1   -11.15126291841033     5.04495968327630    -2.83849898862534
[GTO]
1 0
 s    8 1.00
                 11720  0.00070964594651845
                  1759  0.0054672722921914
                 400.8   0.027823118610189
                 113.7    0.10474773971146
                 37.03    0.28292084635691
                 13.27    0.44849523869833
                 5.025    0.27081688521277
                 1.013    0.01545029160744
 s    8 1.00
                 11720  -0.00031444341168873
                  1759  -0.0024821376810179
                 400.8  -0.012316355381583
                 113.7  -0.050538917343672
                 37.03   -0.13938490331632
                 13.27   -0.32507749481778
                 5.025   -0.22984830758785
                 1.013     1.0953793467883
 s    1 1.00
                0.3023                   1
 p    3 1.00
                  17.7   0.062679166281506
                 3.854    0.33353656587936
                 1.046    0.74123964163973
 p    1 1.00
                0.2753                   1
 d    1 1.00
                 1.185                   1

2 0
 s    3 1.00
                 13.01   0.033498726389998
                 1.962    0.23480080117413
                0.4446     0.8136829578829
 s    1 1.00
                 0.122                   1
 p    1 1.00
                 0.727                   1

3 0
 s    3 1.00
                 13.01   0.033498726389998
                 1.962    0.23480080117413
                0.4446     0.8136829578829
 s    1 1.00
                 0.122                   1
 p    1 1.00
                 0.727                   1

4 0
 s    8 1.00
                 11720  0.00070964594651845
                  1759  0.0054672722921914
                 400.8   0.027823118610189
                 113.7    0.10474773971146
                 37.03    0.28292084635691
                 13.27    0.44849523869833
                 5.025    0.27081688521277
                 1.013    0.01545029160744
 s    8 1.00
                 11720  -0.00031444341168873
                  1759  -0.0024821376810179
                 400.8  -0.012316355381583
                 113.7  -0.050538917343672
                 37.03   -0.13938490331632
                 13.27   -0.32507749481778
                 5.025   -0.22984830758785
                 1.013     1.0953793467883
 s    1 1.00
                0.3023                   1
 p    3 1.00
                  17.7   0.062679166281506
                 3.854    0.33353656587936
                 1.046    0.74123964163973
 p    1 1.00
                0.2753                   1
 d    1 1.00
                 1.185                   1

5 0
 s    8 1.00
                  6665  0.00069158396281299
                  1000  0.0053257961529341
                   228   0.027060721042034
                 64.71    0.10165684614077
                 21.06     0.2745748236174
                 7.495    0.44829431892377
                 2.797    0.28490261071525
                0.5215   0.015194859206082
 s    8 1.00
                  6665  -0.00029326965268655
                  1000  -0.0023180354739745
                   228  -0.011499786038565
                 64.71  -0.046826727009787
                 21.06   -0.12846616875047
                 7.495   -0.30126627246289
                 2.797   -0.25563070233011
                0.5215      1.093793361012
 s    1 1.00
                0.1596                   1
 p    3 1.00
                 9.439   0.056979251590039
                 2.002    0.31320721150073
                0.5456    0.76037674173753
 p    1 1.00
                0.1517                   1
 d    1 1.00
                  0.55                   1

6 0
 s    8 1.00
                  6665  0.00069158396281299
                  1000  0.0053257961529341
                   228   0.027060721042034
                 64.71    0.10165684614077
                 21.06     0.2745748236174
                 7.495    0.44829431892377
                 2.797    0.28490261071525
                0.5215   0.015194859206082
 s    8 1.00
                  6665  -0.00029326965268655
                  1000  -0.0023180354739745
                   228  -0.011499786038565
                 64.71  -0.046826727009787
                 21.06   -0.12846616875047
                 7.495   -0.30126627246289
                 2.797   -0.25563070233011
                0.5215      1.093793361012
 s    1 1.00
                0.1596                   1
 p    3 1.00
                 9.439   0.056979251590039
                 2.002    0.31320721150073
                0.5456    0.76037674173753
 p    1 1.00
                0.1517                   1
 d    1 1.00
                  0.55                   1

7 0
 s    8 1.00
                  6665  0.00069158396281299
                  1000  0.0053257961529341
                   228   0.027060721042034
                 64.71    0.10165684614077
                 21.06     0.2745748236174
                 7.495    0.44829431892377
                 2.797    0.28490261071525
                0.5215   0.015194859206082
 s    8 1.00
                  6665  -0.00029326965268655
                  1000  -0.0023180354739745
                   228  -0.011499786038565
                 64.71  -0.046826727009787
                 21.06   -0.12846616875047
                 7.495   -0.30126627246289
                 2.797   -0.25563070233011
                0.5215      1.093793361012
 s    1 1.00
                0.1596                   1
 p    3 1.00
                 9.439   0.056979251590039
                 2.002    0.31320721150073
                0.5456    0.76037674173753
 p    1 1.00
                0.1517                   1
 d    1 1.00
                  0.55                   1

8 0
 s    3 1.00
                 13.01   0.033498726389998
                 1.962    0.23480080117413
                0.4446     0.8136829578829
 s    1 1.00
                 0.122                   1
 p    1 1.00
                 0.727                   1

9 0
 s    8 1.00
                  6665  0.00069158396281299
                  1000  0.0053257961529341
                   228   0.027060721042034
                 64.71    0.10165684614077
                 21.06     0.2745748236174
                 7.495    0.44829431892377
                 2.797    0.28490261071525
                0.5215   0.015194859206082
 s    8 1.00
                  6665  -0.00029326965268655
                  1000  -0.0023180354739745
                   228  -0.011499786038565
                 64.71  -0.046826727009787
                 21.06   -0.12846616875047
                 7.495   -0.30126627246289
                 2.797   -0.25563070233011
                0.5215      1.093793361012
 s    1 1.00
                0.1596                   1
 p    3 1.00
                 9.439   0.056979251590039
                 2.002    0.31320721150073
                0.5456    0.76037674173753
 p    1 1.00
                0.1517                   1
 d    1 1.00
                  0.55                   1

10 0
 s    3 1.00
                 13.01   0.033498726389998
                 1.962    0.23480080117413
                0.4446     0.8136829578829
 s    1 1.00
                 0.122                   1
 p    1 1.00
                 0.727                   1

11 0
 s    3 1.00
                 13.01   0.033498726389998
                 1.962    0.23480080117413
                0.4446     0.8136829578829
 s    1 1.00
                 0.122                   1
 p    1 1.00
                 0.727                   1

12 0
 s    3 1.00
                 13.01   0.033498726389998
                 1.962    0.23480080117413
                0.4446     0.8136829578829
 s    1 1.00
                 0.122                   1
 p    1 1.00
                 0.727                   1

13 0
 s    8 1.00
                  6665  0.00069158396281299
                  1000  0.0053257961529341
                   228   0.027060721042034
                 64.71    0.10165684614077
                 21.06     0.2745748236174
                 7.495    0.44829431892377
                 2.797    0.28490261071525
                0.5215   0.015194859206082
 s    8 1.00
                  6665  -0.00029326965268655
                  1000  -0.0023180354739745
                   228  -0.011499786038565
                 64.71  -0.046826727009787
                 21.06   -0.12846616875047
                 7.495   -0.30126627246289
                 2.797   -0.25563070233011
                0.5215      1.093793361012
 s    1 1.00
                0.1596                   1
 p    3 1.00
                 9.439   0.056979251590039
                 2.002    0.31320721150073
                0.5456    0.76037674173753
 p    1 1.00
                0.1517                   1
 d    1 1.00
                  0.55                   1

14 0
 s    3 1.00
                 13.01   0.033498726389998
                 1.962    0.23480080117413
                0.4446     0.8136829578829
 s    1 1.00
                 0.122                   1
 p    1 1.00
                 0.727                   1

15 0
 s    3 1.00
                 13.01   0.033498726389998
                 1.962    0.23480080117413
                0.4446     0.8136829578829
 s    1 1.00
                 0.122                   1
 p    1 1.00
                 0.727                   1

16 0
 s    8 1.00
                  6665  0.00069158396281299
                  1000  0.0053257961529341
                   228   0.027060721042034
                 64.71    0.10165684614077
                 21.06     0.2745748236174
                 7.495    0.44829431892377
                 2.797    0.28490261071525
                0.5215   0.015194859206082
 s    8 1.00
                  6665  -0.00029326965268655
                  1000  -0.0023180354739745
                   228  -0.011499786038565
                 64.71  -0.046826727009787
                 21.06   -0.12846616875047
                 7.495   -0.30126627246289
                 2.797   -0.25563070233011
                0.5215      1.093793361012
 s    1 1.00
                0.1596                   1
 p    3 1.00
                 9.439   0.056979251590039
                 2.002    0.31320721150073
                0.5456    0.76037674173753
 p    1 1.00
                0.1517                   1
 d    1 1.00
                  0.55                   1

17 0
 s    3 1.00
                 13.01   0.033498726389998
                 1.962    0.23480080117413
                0.4446     0.8136829578829
 s    1 1.00
                 0.122                   1
 p    1 1.00
                 0.727                   1

18 0
 s    3 1.00
                 13.01   0.033498726389998
                 1.962    0.23480080117413
                0.4446     0.8136829578829
 s    1 1.00
                 0.122                   1
 p    1 1.00
                 0.727                   1

19 0
 s    8 1.00
                  6665  0.00069158396281299
                  1000  0.0053257961529341
                   228   0.027060721042034
                 64.71    0.10165684614077
                 21.06     0.2745748236174
                 7.495    0.44829431892377
                 2.797    0.28490261071525
                0.5215   0.015194859206082
 s    8 1.00
                  6665  -0.00029326965268655
                  1000  -0.0023180354739745
                   228  -0.011499786038565
                 64.71  -0.046826727009787
                 21.06   -0.12846616875047
                 7.495   -0.30126627246289
                 2.797   -0.25563070233011
                0.5215      1.093793361012
 s    1 1.00
                0.1596                   1
 p    3 1.00
                 9.439   0.056979251590039
                 2.002    0.31320721150073
                0.5456    0.76037674173753
 p    1 1.00
                0.1517                   1
 d    1 1.00
                  0.55                   1

20 0
 s    3 1.00
                 13.01   0.033498726389998
                 1.962    0.23480080117413
                0.4446     0.8136829578829
 s    1 1.00
                 0.122                   1
 p    1 1.00
                 0.727                   1

21 0
 s    8 1.00
                  6665  0.00069158396281299
                  1000  0.0053257961529341
                   228   0.027060721042034
                 64.71    0.10165684614077
                 21.06     0.2745748236174
                 7.495    0.44829431892377
                 2.797    0.28490261071525
                0.5215   0.015194859206082
 s    8 1.00
                  6665  -0.00029326965268655
                  1000  -0.0023180354739745
                   228  -0.011499786038565
                 64.71  -0.046826727009787
                 21.06   -0.12846616875047
                 7.495   -0.30126627246289
                 2.797   -0.25563070233011
                0.5215      1.093793361012
 s    1 1.00
                0.1596                   1
 p    3 1.00
                 9.439   0.056979251590039
                 2.002    0.31320721150073
                0.5456    0.76037674173753
 p    1 1.00
                0.1517                   1
 d    1 1.00
                  0.55                   1

22 0
 s    3 1.00
                 13.01   0.033498726389998
                 1.962    0.23480080117413
                0.4446     0.8136829578829
 s    1 1.00
                 0.122                   1
 p    1 1.00
                 0.727                   1

23 0
 s    3 1.00
                 13.01   0.033498726389998
                 1.962    0.23480080117413
                0.4446     0.8136829578829
 s    1 1.00
                 0.122                   1
 p    1 1.00
                 0.727                   1

24 0
 s    3 1.00
                 13.01   0.033498726389998
                 1.962    0.23480080117413
                0.4446     0.8136829578829
 s    1 1.00
                 0.122                   1
 p    1 1.00
                 0.727                   1

25 0
 s    8 1.00
                  6665  0.00069158396281299
                  1000  0.0053257961529341
                   228   0.027060721042034
                 64.71    0.10165684614077
                 21.06     0.2745748236174
                 7.495    0.44829431892377
                 2.797    0.28490261071525
                0.5215   0.015194859206082
 s    8 1.00
                  6665  -0.00029326965268655
                  1000  -0.0023180354739745
                   228  -0.011499786038565
                 64.71  -0.046826727009787
                 21.06   -0.12846616875047
                 7.495   -0.30126627246289
                 2.797   -0.25563070233011
                0.5215      1.093793361012
 s    1 1.00
                0.1596                   1
 p    3 1.00
                 9.439   0.056979251590039
                 2.002    0.31320721150073
                0.5456    0.76037674173753
 p    1 1.00
                0.1517                   1
 d    1 1.00
                  0.55                   1

26 0
 s    3 1.00
                 13.01   0.033498726389998
                 1.962    0.23480080117413
                0.4446     0.8136829578829
 s    1 1.00
                 0.122                   1
 p    1 1.00
                 0.727                   1

27 0
 s    3 1.00
                 13.01   0.033498726389998
                 1.962    0.23480080117413
                0.4446     0.8136829578829
 s    1 1.00
                 0.122                   1
 p    1 1.00
                 0.727                   1

28 0
 s    8 1.00
                  6665  0.00069158396281299
                  1000  0.0053257961529341
                   228   0.027060721042034
                 64.71    0.10165684614077
                 21.06     0.2745748236174
                 7.495    0.44829431892377
                 2.797    0.28490261071525
                0.5215   0.015194859206082
 s    8 1.00
                  6665  -0.00029326965268655
                  1000  -0.0023180354739745
                   228  -0.011499786038565
                 64.71  -0.046826727009787
                 21.06   -0.12846616875047
                 7.495   -0.30126627246289
                 2.797   -0.25563070233011
                0.5215      1.093793361012
 s    1 1.00
                0.1596                   1
 p    3 1.00
                 9.439   0.056979251590039
                 2.002    0.31320721150073
                0.5456    0.76037674173753
 p    1 1.00
                0.1517                   1
 d    1 1.00
                  0.55                   1

29 0
 s    3 1.00
                 13.01   0.033498726389998
                 1.962    0.23480080117413
                0.4446     0.8136829578829
 s    1 1.00
                 0.122                   1
 p    1 1.00
                 0.727                   1

30 0
 s    3 1.00
                 13.01   0.033498726389998
                 1.962    0.23480080117413
                0.4446     0.8136829578829
 s    1 1.00
                 0.122                   1
 p    1 1.00
                 0.727                   1

31 0
 s    8 1.00
                  6665  0.00069158396281299
                  1000  0.0053257961529341
                   228   0.027060721042034
                 64.71    0.10165684614077
                 21.06     0.2745748236174
                 7.495    0.44829431892377
                 2.797    0.28490261071525
                0.5215   0.015194859206082
 s    8 1.00
                  6665  -0.00029326965268655
                  1000  -0.0023180354739745
                   228  -0.011499786038565
                 64.71  -0.046826727009787
                 21.06   -0.12846616875047
                 7.495   -0.30126627246289
                 2.797   -0.25563070233011
                0.5215      1.093793361012
 s    1 1.00
                0.1596                   1
 p    3 1.00
                 9.439   0.056979251590039
                 2.002    0.31320721150073
                0.5456    0.76037674173753
 p    1 1.00
                0.1517                   1
 d    1 1.00
                  0.55                   1

32 0
 s    3 1.00
                 13.01   0.033498726389998
                 1.962    0.23480080117413
                0.4446     0.8136829578829
 s    1 1.00
                 0.122                   1
 p    1 1.00
                 0.727                   1

33 0
 s    3 1.00
                 13.01   0.033498726389998
                 1.962    0.23480080117413
                0.4446     0.8136829578829
 s    1 1.00
                 0.122                   1
 p    1 1.00
                 0.727                   1

34 0
 s    3 1.00
                 13.01   0.033498726389998
                 1.962    0.23480080117413
                0.4446     0.8136829578829
 s    1 1.00
                 0.122                   1
 p    1 1.00
                 0.727                   1

35 0
 s    3 1.00
                 13.01   0.033498726389998
                 1.962    0.23480080117413
                0.4446     0.8136829578829
 s    1 1.00
                 0.122                   1
 p    1 1.00
                 0.727                   1

36 0
 s    3 1.00
                 13.01   0.033498726389998
                 1.962    0.23480080117413
                0.4446     0.8136829578829
 s    1 1.00
                 0.122                   1
 p    1 1.00
                 0.727                   1

37 0
 s    3 1.00
                 13.01   0.033498726389998
                 1.962    0.23480080117413
                0.4446     0.8136829578829
 s    1 1.00
                 0.122                   1
 p    1 1.00
                 0.727                   1

[5d]
[7f]
[9g]

[MO]
 Sym= A
 Ene=               0
 Spin= Alpha
 Occup=    1.00000
   1    -3.5394424083932e-05
   2    -2.1571303693204e-05
   3    8.1524055171247e-05
   4    -7.2917856930643e-08
   5    3.1223103615257e-06
   6    1.5589766114599e-07
   7    4.6863648120342e-07
   8    -1.7463342188967e-05
   9    -5.9506584392681e-05
  10    1.0849939498555e-05
  11    1.314219021797e-08
  12    -7.5475932635658e-07
  13    5.7437659467422e-07
  14    3.028353826018e-08
  15    -1.0383039943764e-05
  16    -0.00011891902248241
  17    -6.0191660196738e-08
  18    1.0984603336206e-06
  19    -3.2947321326539e-05
  20    -4.8667314481759e-06
  21    4.7471041964473e-05
  22    1.5706029590173e-07
  23    -5.3052973235375e-06
  24    1.8216719182175e-06
  25       1.0013608498665
  26    0.0019494741194658
  27    -0.0067797037997048
  28    -4.6258604053099e-06
  29     7.91787392685e-06
  30    -0.0016571723357072
  31    -2.9847103329194e-07
  32    -1.3066821681465e-06
  33    0.0018210400392663
  34    0.00012804519682816
  35    -3.0016904659769e-06
  36    1.3361148416391e-06
  37    6.7582040731773e-05
  38    -0.00017601953913783
  39    0.0002730046459318
  40    0.00037076814104459
  41    0.0014066866509424
  42    1.4988932392975e-05
  43    -9.941835756706e-06
  44    -1.1333405344202e-05
  45    8.1661218541834e-05
  46    -6.3126062619323e-05
  47    0.0035438406695005
  48    -0.0005368403478645
  49    -8.5053332175923e-06
  50    2.4573399157815e-06
  51    2.8628474551366e-05
  52    -0.00010709525824273
  53    -8.5045492829338e-05
  54    -0.00016635499971499
  55      0.00136869388511
  56    7.8103760811289e-05
  57    -7.4698878299786e-06
  58    -3.6120480413595e-05
  59    -0.00042353567160582
  60    0.00047638381808656
  61    -0.00092449986513418
  62    -0.00011775933397607
  63    0.00015015260430992
  64    -0.00014284189268467
  65    5.5173022690343e-05
  66    -0.00013029139094109
  67    -4.0372953979438e-05
  68    -9.8579026456699e-05
  69    0.00051095208235856
  70    -6.0791640286277e-05
  71    3.9833270892282e-05
  72    -6.2700753869483e-05
  73    0.00099973717496522
  74    -0.00077010310952869
  75    -0.00063593490874818
  76    -0.00014125209836999
  77    -0.00012066215854634
  78    8.9651928984929e-05
  79    5.9095641103247e-05
  80    -0.00015211965488219
  81    -6.4828409207669e-05
  82    0.00020679049536094
  83    6.595567964995e-05
  84    -4.8447835705891e-05
  85    4.9041527377295e-05
  86    2.4995072635862e-05
  87    4.8970059505056e-05
  88    -0.00060401005662775
  89    -1.5877426216408e-05
  90    -1.7091287933503e-05
  91    1.2130962066443e-05
  92    0.00025616122057494
  93    0.00062392717461199
  94    -1.891320702028e-05
  95    1.8021959750759e-05
  96    1.1155953408575e-05
  97    7.1966494401312e-06
  98    -2.0688475583585e-05
  99    -4.5545078043908e-05
 100    -3.7053110137018e-05
 101    -0.00015783024617938
 102    9.3785408503465e-06
 103    -9.7746995149595e-06
 104    7.4321881486996e-05
 105    -1.786697650274e-05
 106    -0.00020049614193623
 107    -6.4451542527113e-05
 108    1.1293669488318e-05
 109    7.4539038811893e-05
 110    7.7253810028453e-05
 111    -5.850417371733e-05
 112    -4.5557152476799e-05
 113    1.8387771791989e-05
 114    6.9532279838455e-05
 115    -4.9826655269692e-05
 116    -0.00010135504965786
 117    0.00084079737408797
 118    -2.6179735696031e-05
 119    -9.9336574321887e-06
 120    3.2582090860243e-05
 121    0.00029596153348507
 122    3.0108676417037e-05
 123    -0.00013560195130911
 124    -6.4279687237615e-06
 125    1.2521665511794e-05
 126    1.5774803314666e-05
 127    -3.2141024334592e-05
 128    4.9820711612936e-05
 129    -1.8960324608637e-05
 130    -0.00032138201259746
 131    7.4896277532012e-06
 132    5.8591595706182e-06
 133    2.9158874188169e-05
 134    2.5919917181579e-05
 135    -0.00011849994301721
 136    -1.3442929626318e-05
 137    -2.4035800058279e-05
 138    -2.6571990685478e-05
 139    -2.1127453161196e-05
 140    -3.8503928456326e-05
 141    0.00028639332254431
 142    7.9449190595332e-06
 143    -2.4677715643719e-06
 144    -6.1771692032172e-06
 145    -0.00022970776251133
 146    5.1618028255554e-05
 147    6.4275391102788e-05
 148    -2.3782342517013e-06
 149    3.0374982945656e-06
 150    -3.4594838757298e-06
 151    1.191185635077e-05
 152    -4.9696138388091e-06
 153    -9.6903990267187e-05
 154    -0.00011288981831299
 155    -2.5830024774607e-05
 156    2.9874906596936e-05
 157    2.0412235739934e-05
 158    -2.5757986336616e-05
 159    -8.9530748736627e-05
 160    -5.9412698094115e-05
 161    -7.136110674143e-06
 162    6.1551408143839e-06
 163    -2.2575773009743e-06
 164    -6.2181573751477e-06
 165    -0.00023952024401181
 166    -1.7487744041579e-05
 167    1.4148593594074e-05
 168    6.5603351819737e-06
 169    0.00023832671952113
 170    -0.00021353858686174
 171    -0.00013206189494628
 172    -2.9117048773194e-06
 173    9.992787429831e-06
 174    -1.3564475192967e-05
 175    3.2935652540516e-06
 176    -1.8305184990179e-05
 177    -1.5947661970923e-05
 178    8.344331153299e-05
 179    -7.5419968069522e-07
 180    1.9922399901926e-06
 181    -4.9779563236111e-06
 182    1.5108077766247e-05
 183    2.6841926849287e-05
 184    -6.5337683231872e-05
 185    -4.8428252532296e-06
 186    3.4947887808256e-06
 187    5.583132447841e-06
 188    0.00012636181184339
 189    -0.00010219751546437
 190    -8.4331780016257e-05
 191    1.2909839139777e-06
 192    1.9978375570546e-06
 193    -7.6940785585197e-06
 194    -3.0881746395309e-06
 195    -5.0651301605646e-06
 196    -1.3829249524031e-05
 197    -1.8534000394884e-05
 198    5.6458228981072e-06
 199    1.9645357536458e-06
 200    -3.5795129005319e-06
 201    -1.3281429281853e-05
 202    3.9708131395341e-06
 203    -1.2976501059721e-05
 204    1.0045528070849e-05
 205    1.1795724206312e-05
 206    8.4332913909757e-06
 207    6.8152939461916e-05
 208    -1.6187698914771e-05
 209    3.9323129259475e-06
 210    1.5563078860376e-05
 211    -1.773943835785e-05
 212    -3.0941197481294e-05
 213    0.00025470003059288
 214    4.9983125573522e-06
 215    -2.2933765878807e-06
 216    -6.4212918293488e-06
 217    0.00019592690490035
 218    -5.385565471975e-05
 219    -7.6825530494135e-05
 220    -1.7803919403654e-06
 221    -1.6304014761487e-05
 222    5.4268466818274e-06
 223    9.2837138130841e-06
 224    -1.6646067102805e-06
 225    2.5246126404739e-05
 226    5.4016066488836e-05
 227    -1.2227507192341e-05
 228    -1.8804900508872e-06
 229    -9.8910187889348e-07
 230    9.6640640091839e-06
 231    5.4380154168755e-05
 232    -3.9497499006558e-06
 233    6.2839118991759e-06
 234     1.19504567837e-05
 235    3.9311235761658e-07
 236    6.4262187508988e-07
 237    -7.8223326353228e-05
 238    2.3369195815758e-06
 239    2.0016813958599e-06
 240    -3.8009744338301e-06
 241    3.5186070040457e-05
 242    -6.2491233792546e-05
 243    1.774796387967e-05
 244    1.8885422710583e-06
 245    1.8027477907801e-06
 246    -1.922658066607e-06
 247    1.7362598046917e-07
 248    9.2829290060704e-07
 249    -1.7705986916736e-05
 250    1.4022587176573e-05
 251    -4.600510991287e-06
 252    -9.5702195680196e-07
 253    -2.1232161190814e-07
 254    -1.5828216203081e-05
 255    5.6023305992044e-05
 256    -8.5154442112446e-08
 257    4.4372358557134e-06
 258    -9.0586903160072e-07
 259    -2.7942209422267e-06
 260    -1.6586371877174e-05
 261    8.208580413131e-05
 262    -2.6340869449194e-06