[Molden Format]
made by pyscf v[2.0.1]
[Atoms] (AU)
O   1   8     0.00000000000000     0.00000000000000     6.40640788651141
H   2   1     0.00000000000000     0.00000000000000     4.58300606461044
H   3   1    -0.05031916615174     1.78353439551780     6.78227958297808
O   4   8     0.00000000000000     0.00000000000000     2.31533471513237
C   5   6     0.00000000000000     0.00000000000000     0.00000000000000
C   6   6     2.01118073026938    -1.40227222164369    -1.50774939176400
C   7   6    -2.01249334291722     1.41331050329955    -1.50319235519811
H   8   1     3.32037363730244    -2.26721897153159    -0.13599698591495
C   9   6     3.45899267434009     0.28739631745591    -3.37437943254505
H   10   1     1.07662969841332    -2.94725144642667    -2.56541439481080
H   11   1    -2.67503415753480     0.18421555839588    -3.06194479365997
H   12   1    -1.08005520873877     3.03851734677796    -2.43674295017013
C   13   6    -4.21607110578555     2.32938802552922     0.11994192435017
H   14   1     4.24440173074564     1.93368664387684    -2.34976285512790
H   15   1     2.18907033049676     1.04714335134846    -4.81494497423699
C   16   6     5.60746363007797    -1.12419643481196    -4.70268606082550
H   17   1    -3.46838323670267     3.50951302338067     1.66946842715333
H   18   1    -5.11873485366228     0.68575958301209     1.04047743976495
C   19   6    -6.18314754751344     3.80909592987882    -1.39656589068747
H   20   1     6.93011263717176    -1.87550812453645    -3.26656317360070
C   21   6     7.10306991577580     0.52877932406334    -6.57829775293605
H   22   1     4.82318879258361    -2.78573437948532    -5.70504560381835
H   23   1    -6.91582688743803     2.61304780074712    -2.95074552451969
H   24   1    -5.26532430573853     5.45420349051338    -2.31005832200284
C   25   6    -8.39941882261433     4.73263980500213     0.21800571437956
H   26   1     7.83338371486801     2.19084139882824    -5.57093109900697
H   27   1     5.73544244039420     1.27376866537418    -8.01071492370229
C   28   6     9.21124858443101    -0.89699110072176    -7.88926949186242
H   29   1    -7.66272760055236     5.92277078003992     1.77035591474408
H   30   1    -9.31497248082589     3.08753015622020     1.12614408368786
C   31   6   -10.35481709231879     6.21833079391143    -1.30905206253246
H   32   1    10.58815905329501    -1.61099162890610    -6.52093739071026
H   33   1    10.23506248045667     0.32468009384095    -9.23072870921204
H   34   1     8.47665842847139    -2.53598436989925    -8.94921964622535
H   35   1    -9.48948872868064     7.90013588951020    -2.18823918416067
H   36   1   -11.93332774482359     6.86460487874102    -0.11255798845995
H   37   1   -11.15126291841033     5.04495968327630    -2.83849898862534
[GTO]
1 0
 s    8 1.00
                 11720  0.00070964594651845
                  1759  0.0054672722921914
                 400.8   0.027823118610189
                 113.7    0.10474773971146
                 37.03    0.28292084635691
                 13.27    0.44849523869833
                 5.025    0.27081688521277
                 1.013    0.01545029160744
 s    8 1.00
                 11720  -0.00031444341168873
                  1759  -0.0024821376810179
                 400.8  -0.012316355381583
                 113.7  -0.050538917343672
                 37.03   -0.13938490331632
                 13.27   -0.32507749481778
                 5.025   -0.22984830758785
                 1.013     1.0953793467883
 s    1 1.00
                0.3023                   1
 p    3 1.00
                  17.7   0.062679166281506
                 3.854    0.33353656587936
                 1.046    0.74123964163973
 p    1 1.00
                0.2753                   1
 d    1 1.00
                 1.185                   1

2 0
 s    3 1.00
                 13.01   0.033498726389998
                 1.962    0.23480080117413
                0.4446     0.8136829578829
 s    1 1.00
                 0.122                   1
 p    1 1.00
                 0.727                   1

3 0
 s    3 1.00
                 13.01   0.033498726389998
                 1.962    0.23480080117413
                0.4446     0.8136829578829
 s    1 1.00
                 0.122                   1
 p    1 1.00
                 0.727                   1

4 0
 s    8 1.00
                 11720  0.00070964594651845
                  1759  0.0054672722921914
                 400.8   0.027823118610189
                 113.7    0.10474773971146
                 37.03    0.28292084635691
                 13.27    0.44849523869833
                 5.025    0.27081688521277
                 1.013    0.01545029160744
 s    8 1.00
                 11720  -0.00031444341168873
                  1759  -0.0024821376810179
                 400.8  -0.012316355381583
                 113.7  -0.050538917343672
                 37.03   -0.13938490331632
                 13.27   -0.32507749481778
                 5.025   -0.22984830758785
                 1.013     1.0953793467883
 s    1 1.00
                0.3023                   1
 p    3 1.00
                  17.7   0.062679166281506
                 3.854    0.33353656587936
                 1.046    0.74123964163973
 p    1 1.00
                0.2753                   1
 d    1 1.00
                 1.185                   1

5 0
 s    8 1.00
                  6665  0.00069158396281299
                  1000  0.0053257961529341
                   228   0.027060721042034
                 64.71    0.10165684614077
                 21.06     0.2745748236174
                 7.495    0.44829431892377
                 2.797    0.28490261071525
                0.5215   0.015194859206082
 s    8 1.00
                  6665  -0.00029326965268655
                  1000  -0.0023180354739745
                   228  -0.011499786038565
                 64.71  -0.046826727009787
                 21.06   -0.12846616875047
                 7.495   -0.30126627246289
                 2.797   -0.25563070233011
                0.5215      1.093793361012
 s    1 1.00
                0.1596                   1
 p    3 1.00
                 9.439   0.056979251590039
                 2.002    0.31320721150073
                0.5456    0.76037674173753
 p    1 1.00
                0.1517                   1
 d    1 1.00
                  0.55                   1

6 0
 s    8 1.00
                  6665  0.00069158396281299
                  1000  0.0053257961529341
                   228   0.027060721042034
                 64.71    0.10165684614077
                 21.06     0.2745748236174
                 7.495    0.44829431892377
                 2.797    0.28490261071525
                0.5215   0.015194859206082
 s    8 1.00
                  6665  -0.00029326965268655
                  1000  -0.0023180354739745
                   228  -0.011499786038565
                 64.71  -0.046826727009787
                 21.06   -0.12846616875047
                 7.495   -0.30126627246289
                 2.797   -0.25563070233011
                0.5215      1.093793361012
 s    1 1.00
                0.1596                   1
 p    3 1.00
                 9.439   0.056979251590039
                 2.002    0.31320721150073
                0.5456    0.76037674173753
 p    1 1.00
                0.1517                   1
 d    1 1.00
                  0.55                   1

7 0
 s    8 1.00
                  6665  0.00069158396281299
                  1000  0.0053257961529341
                   228   0.027060721042034
                 64.71    0.10165684614077
                 21.06     0.2745748236174
                 7.495    0.44829431892377
                 2.797    0.28490261071525
                0.5215   0.015194859206082
 s    8 1.00
                  6665  -0.00029326965268655
                  1000  -0.0023180354739745
                   228  -0.011499786038565
                 64.71  -0.046826727009787
                 21.06   -0.12846616875047
                 7.495   -0.30126627246289
                 2.797   -0.25563070233011
                0.5215      1.093793361012
 s    1 1.00
                0.1596                   1
 p    3 1.00
                 9.439   0.056979251590039
                 2.002    0.31320721150073
                0.5456    0.76037674173753
 p    1 1.00
                0.1517                   1
 d    1 1.00
                  0.55                   1

8 0
 s    3 1.00
                 13.01   0.033498726389998
                 1.962    0.23480080117413
                0.4446     0.8136829578829
 s    1 1.00
                 0.122                   1
 p    1 1.00
                 0.727                   1

9 0
 s    8 1.00
                  6665  0.00069158396281299
                  1000  0.0053257961529341
                   228   0.027060721042034
                 64.71    0.10165684614077
                 21.06     0.2745748236174
                 7.495    0.44829431892377
                 2.797    0.28490261071525
                0.5215   0.015194859206082
 s    8 1.00
                  6665  -0.00029326965268655
                  1000  -0.0023180354739745
                   228  -0.011499786038565
                 64.71  -0.046826727009787
                 21.06   -0.12846616875047
                 7.495   -0.30126627246289
                 2.797   -0.25563070233011
                0.5215      1.093793361012
 s    1 1.00
                0.1596                   1
 p    3 1.00
                 9.439   0.056979251590039
                 2.002    0.31320721150073
                0.5456    0.76037674173753
 p    1 1.00
                0.1517                   1
 d    1 1.00
                  0.55                   1

10 0
 s    3 1.00
                 13.01   0.033498726389998
                 1.962    0.23480080117413
                0.4446     0.8136829578829
 s    1 1.00
                 0.122                   1
 p    1 1.00
                 0.727                   1

11 0
 s    3 1.00
                 13.01   0.033498726389998
                 1.962    0.23480080117413
                0.4446     0.8136829578829
 s    1 1.00
                 0.122                   1
 p    1 1.00
                 0.727                   1

12 0
 s    3 1.00
                 13.01   0.033498726389998
                 1.962    0.23480080117413
                0.4446     0.8136829578829
 s    1 1.00
                 0.122                   1
 p    1 1.00
                 0.727                   1

13 0
 s    8 1.00
                  6665  0.00069158396281299
                  1000  0.0053257961529341
                   228   0.027060721042034
                 64.71    0.10165684614077
                 21.06     0.2745748236174
                 7.495    0.44829431892377
                 2.797    0.28490261071525
                0.5215   0.015194859206082
 s    8 1.00
                  6665  -0.00029326965268655
                  1000  -0.0023180354739745
                   228  -0.011499786038565
                 64.71  -0.046826727009787
                 21.06   -0.12846616875047
                 7.495   -0.30126627246289
                 2.797   -0.25563070233011
                0.5215      1.093793361012
 s    1 1.00
                0.1596                   1
 p    3 1.00
                 9.439   0.056979251590039
                 2.002    0.31320721150073
                0.5456    0.76037674173753
 p    1 1.00
                0.1517                   1
 d    1 1.00
                  0.55                   1

14 0
 s    3 1.00
                 13.01   0.033498726389998
                 1.962    0.23480080117413
                0.4446     0.8136829578829
 s    1 1.00
                 0.122                   1
 p    1 1.00
                 0.727                   1

15 0
 s    3 1.00
                 13.01   0.033498726389998
                 1.962    0.23480080117413
                0.4446     0.8136829578829
 s    1 1.00
                 0.122                   1
 p    1 1.00
                 0.727                   1

16 0
 s    8 1.00
                  6665  0.00069158396281299
                  1000  0.0053257961529341
                   228   0.027060721042034
                 64.71    0.10165684614077
                 21.06     0.2745748236174
                 7.495    0.44829431892377
                 2.797    0.28490261071525
                0.5215   0.015194859206082
 s    8 1.00
                  6665  -0.00029326965268655
                  1000  -0.0023180354739745
                   228  -0.011499786038565
                 64.71  -0.046826727009787
                 21.06   -0.12846616875047
                 7.495   -0.30126627246289
                 2.797   -0.25563070233011
                0.5215      1.093793361012
 s    1 1.00
                0.1596                   1
 p    3 1.00
                 9.439   0.056979251590039
                 2.002    0.31320721150073
                0.5456    0.76037674173753
 p    1 1.00
                0.1517                   1
 d    1 1.00
                  0.55                   1

17 0
 s    3 1.00
                 13.01   0.033498726389998
                 1.962    0.23480080117413
                0.4446     0.8136829578829
 s    1 1.00
                 0.122                   1
 p    1 1.00
                 0.727                   1

18 0
 s    3 1.00
                 13.01   0.033498726389998
                 1.962    0.23480080117413
                0.4446     0.8136829578829
 s    1 1.00
                 0.122                   1
 p    1 1.00
                 0.727                   1

19 0
 s    8 1.00
                  6665  0.00069158396281299
                  1000  0.0053257961529341
                   228   0.027060721042034
                 64.71    0.10165684614077
                 21.06     0.2745748236174
                 7.495    0.44829431892377
                 2.797    0.28490261071525
                0.5215   0.015194859206082
 s    8 1.00
                  6665  -0.00029326965268655
                  1000  -0.0023180354739745
                   228  -0.011499786038565
                 64.71  -0.046826727009787
                 21.06   -0.12846616875047
                 7.495   -0.30126627246289
                 2.797   -0.25563070233011
                0.5215      1.093793361012
 s    1 1.00
                0.1596                   1
 p    3 1.00
                 9.439   0.056979251590039
                 2.002    0.31320721150073
                0.5456    0.76037674173753
 p    1 1.00
                0.1517                   1
 d    1 1.00
                  0.55                   1

20 0
 s    3 1.00
                 13.01   0.033498726389998
                 1.962    0.23480080117413
                0.4446     0.8136829578829
 s    1 1.00
                 0.122                   1
 p    1 1.00
                 0.727                   1

21 0
 s    8 1.00
                  6665  0.00069158396281299
                  1000  0.0053257961529341
                   228   0.027060721042034
                 64.71    0.10165684614077
                 21.06     0.2745748236174
                 7.495    0.44829431892377
                 2.797    0.28490261071525
                0.5215   0.015194859206082
 s    8 1.00
                  6665  -0.00029326965268655
                  1000  -0.0023180354739745
                   228  -0.011499786038565
                 64.71  -0.046826727009787
                 21.06   -0.12846616875047
                 7.495   -0.30126627246289
                 2.797   -0.25563070233011
                0.5215      1.093793361012
 s    1 1.00
                0.1596                   1
 p    3 1.00
                 9.439   0.056979251590039
                 2.002    0.31320721150073
                0.5456    0.76037674173753
 p    1 1.00
                0.1517                   1
 d    1 1.00
                  0.55                   1

22 0
 s    3 1.00
                 13.01   0.033498726389998
                 1.962    0.23480080117413
                0.4446     0.8136829578829
 s    1 1.00
                 0.122                   1
 p    1 1.00
                 0.727                   1

23 0
 s    3 1.00
                 13.01   0.033498726389998
                 1.962    0.23480080117413
                0.4446     0.8136829578829
 s    1 1.00
                 0.122                   1
 p    1 1.00
                 0.727                   1

24 0
 s    3 1.00
                 13.01   0.033498726389998
                 1.962    0.23480080117413
                0.4446     0.8136829578829
 s    1 1.00
                 0.122                   1
 p    1 1.00
                 0.727                   1

25 0
 s    8 1.00
                  6665  0.00069158396281299
                  1000  0.0053257961529341
                   228   0.027060721042034
                 64.71    0.10165684614077
                 21.06     0.2745748236174
                 7.495    0.44829431892377
                 2.797    0.28490261071525
                0.5215   0.015194859206082
 s    8 1.00
                  6665  -0.00029326965268655
                  1000  -0.0023180354739745
                   228  -0.011499786038565
                 64.71  -0.046826727009787
                 21.06   -0.12846616875047
                 7.495   -0.30126627246289
                 2.797   -0.25563070233011
                0.5215      1.093793361012
 s    1 1.00
                0.1596                   1
 p    3 1.00
                 9.439   0.056979251590039
                 2.002    0.31320721150073
                0.5456    0.76037674173753
 p    1 1.00
                0.1517                   1
 d    1 1.00
                  0.55                   1

26 0
 s    3 1.00
                 13.01   0.033498726389998
                 1.962    0.23480080117413
                0.4446     0.8136829578829
 s    1 1.00
                 0.122                   1
 p    1 1.00
                 0.727                   1

27 0
 s    3 1.00
                 13.01   0.033498726389998
                 1.962    0.23480080117413
                0.4446     0.8136829578829
 s    1 1.00
                 0.122                   1
 p    1 1.00
                 0.727                   1

28 0
 s    8 1.00
                  6665  0.00069158396281299
                  1000  0.0053257961529341
                   228   0.027060721042034
                 64.71    0.10165684614077
                 21.06     0.2745748236174
                 7.495    0.44829431892377
                 2.797    0.28490261071525
                0.5215   0.015194859206082
 s    8 1.00
                  6665  -0.00029326965268655
                  1000  -0.0023180354739745
                   228  -0.011499786038565
                 64.71  -0.046826727009787
                 21.06   -0.12846616875047
                 7.495   -0.30126627246289
                 2.797   -0.25563070233011
                0.5215      1.093793361012
 s    1 1.00
                0.1596                   1
 p    3 1.00
                 9.439   0.056979251590039
                 2.002    0.31320721150073
                0.5456    0.76037674173753
 p    1 1.00
                0.1517                   1
 d    1 1.00
                  0.55                   1

29 0
 s    3 1.00
                 13.01   0.033498726389998
                 1.962    0.23480080117413
                0.4446     0.8136829578829
 s    1 1.00
                 0.122                   1
 p    1 1.00
                 0.727                   1

30 0
 s    3 1.00
                 13.01   0.033498726389998
                 1.962    0.23480080117413
                0.4446     0.8136829578829
 s    1 1.00
                 0.122                   1
 p    1 1.00
                 0.727                   1

31 0
 s    8 1.00
                  6665  0.00069158396281299
                  1000  0.0053257961529341
                   228   0.027060721042034
                 64.71    0.10165684614077
                 21.06     0.2745748236174
                 7.495    0.44829431892377
                 2.797    0.28490261071525
                0.5215   0.015194859206082
 s    8 1.00
                  6665  -0.00029326965268655
                  1000  -0.0023180354739745
                   228  -0.011499786038565
                 64.71  -0.046826727009787
                 21.06   -0.12846616875047
                 7.495   -0.30126627246289
                 2.797   -0.25563070233011
                0.5215      1.093793361012
 s    1 1.00
                0.1596                   1
 p    3 1.00
                 9.439   0.056979251590039
                 2.002    0.31320721150073
                0.5456    0.76037674173753
 p    1 1.00
                0.1517                   1
 d    1 1.00
                  0.55                   1

32 0
 s    3 1.00
                 13.01   0.033498726389998
                 1.962    0.23480080117413
                0.4446     0.8136829578829
 s    1 1.00
                 0.122                   1
 p    1 1.00
                 0.727                   1

33 0
 s    3 1.00
                 13.01   0.033498726389998
                 1.962    0.23480080117413
                0.4446     0.8136829578829
 s    1 1.00
                 0.122                   1
 p    1 1.00
                 0.727                   1

34 0
 s    3 1.00
                 13.01   0.033498726389998
                 1.962    0.23480080117413
                0.4446     0.8136829578829
 s    1 1.00
                 0.122                   1
 p    1 1.00
                 0.727                   1

35 0
 s    3 1.00
                 13.01   0.033498726389998
                 1.962    0.23480080117413
                0.4446     0.8136829578829
 s    1 1.00
                 0.122                   1
 p    1 1.00
                 0.727                   1

36 0
 s    3 1.00
                 13.01   0.033498726389998
                 1.962    0.23480080117413
                0.4446     0.8136829578829
 s    1 1.00
                 0.122                   1
 p    1 1.00
                 0.727                   1

37 0
 s    3 1.00
                 13.01   0.033498726389998
                 1.962    0.23480080117413
                0.4446     0.8136829578829
 s    1 1.00
                 0.122                   1
 p    1 1.00
                 0.727                   1

[5d]
[7f]
[9g]

[MO]
 Sym= A
 Ene=               0
 Spin= Alpha
 Occup=    1.00000
   1    -0.0001049711917414
   2    -2.7833817902818e-05
   3    -0.0002962804377577
   4    1.5387104756721e-06
   5    -8.1951339260406e-07
   6    0.00012372623251207
   7    -3.3681254360679e-06
   8    -9.207271239827e-06
   9    0.00024162718538357
  10    -0.00010944796929162
  11    -1.1500149400877e-07
  12    1.6204705141803e-06
  13    5.0530701200524e-06
  14    2.7242493261223e-07
  15    5.815519640847e-05
  16    -7.3421962581338e-05
  17    -1.341028512312e-06
  18    5.4171419995881e-06
  19    0.00039340000930247
  20    3.7978494170322e-05
  21    -3.3948165175655e-05
  22    2.4751993834788e-07
  23    8.7621822877055e-06
  24    -5.6870511787346e-06
  25       1.0014278239601
  26    0.0022199968941431
  27    -0.0068848114621405
  28    -4.4456366043417e-06
  29    1.8659115874032e-05
  30    -0.001480025449829
  31    1.7865777872323e-06
  32    -4.9130685904331e-06
  33    0.0022348787163246
  34    0.00023336072839328
  35    -2.6061436121124e-06
  36    5.4621065878683e-07
  37    5.9643171557622e-05
  38    -0.00015793223466912
  39    0.00030032588770023
  40    0.00042220225237056
  41     0.001819234712329
  42    1.5952953540815e-05
  43    -1.094156579454e-05
  44    4.728008175469e-05
  45    5.7473003954065e-05
  46    -4.9567558926257e-05
  47    0.0036362249018636
  48    -0.00051842565225089
  49    -7.3874378785578e-06
  50    8.7996482243408e-07
  51    3.6148207777799e-05
  52    -0.00012563396007282
  53    -8.5253067063851e-05
  54    -0.00016783245602854
  55    0.0013417503226645
  56    8.3090652343825e-05
  57    -1.1031663607347e-05
  58    -3.9211579761576e-05
  59    -0.00037444024656813
  60    0.00045767932486273
  61    -0.00096771576808933
  62    -0.00011127991299897
  63    0.00015795239518081
  64    -0.00014975594641166
  65    5.378883517418e-05
  66    -0.00012602505542489
  67    -3.6068990068253e-05
  68    -9.2509291007849e-05
  69    0.00041162941923756
  70    -6.704981598718e-05
  71    4.3886767839082e-05
  72    -6.728759307894e-05
  73    0.0009695742515549
  74    -0.00073845612352705
  75    -0.00068929477249639
  76    -0.0001338098366195
  77    -0.00012960125534921
  78    9.4637070065556e-05
  79    5.7412169731462e-05
  80    -0.00014652167704136
  81    -6.7035546232293e-05
  82    0.00019561303516195
  83    6.7963220317911e-05
  84    -5.0276158724162e-05
  85    5.1899557415799e-05
  86    2.5445933907938e-05
  87    4.9996794268604e-05
  88    -0.0006020660234672
  89    -1.5572146736959e-05
  90    -1.6330940296186e-05
  91    1.2853963221108e-05
  92    0.00026788820853879
  93    0.00062889109477686
  94    -3.8279538243687e-05
  95    1.9029052470475e-05
  96    1.0982575419448e-05
  97    7.0044167457069e-06
  98    -1.996302692799e-05
  99    -5.0105138687583e-05
 100    -3.4987228252312e-05
 101    -0.000163498452965
 102    5.7391700133209e-06
 103    -9.9446548715151e-06
 104    7.6129097492333e-05
 105    -1.5445542328542e-05
 106    -0.00020208694352196
 107    -6.240741761019e-05
 108    6.1551088510009e-06
 109    7.6728814399678e-05
 110    8.1393425844633e-05
 111    -7.5321162942608e-05
 112    -4.2947798514736e-05
 113    2.0079143860033e-05
 114    7.0653501422273e-05
 115    -5.3665475229904e-05
 116    -0.00010778121182781
 117    0.00091561480239044
 118    -2.5386864234921e-05
 119    -1.0729728072182e-05
 120    3.3639290348324e-05
 121    0.00026202394808704
 122    4.734267366135e-05
 123    -0.00017647766927183
 124    -5.651345078873e-06
 125    1.4576311094554e-05
 126    1.2555813753229e-05
 127    -3.2394038497347e-05
 128    4.864548941954e-05
 129    -1.4045648053097e-05
 130    -0.00033009451249187
 131    7.6002168570388e-06
 132    5.4502681136658e-06
 133    3.0289122302395e-05
 134    2.0478409685169e-05
 135    -0.0001098894392039
 136    -1.7901720069392e-05
 137    -2.5371294434014e-05
 138    -2.3896783478223e-05
 139    -1.8870355493777e-05
 140    -3.4536458519329e-05
 141    0.00027291232490145
 142    6.942075649103e-06
 143    -3.5758262801106e-06
 144    -6.5108744705958e-06
 145    -0.00019975016548227
 146    6.0569365617373e-05
 147    5.3912727387015e-05
 148    -2.1574343547527e-06
 149    4.2636602681092e-06
 150    -4.6493771678886e-06
 151    1.1384939869434e-05
 152    -3.4769429316802e-06
 153    -9.6603782344968e-05
 154    -9.8821088331091e-05
 155    -2.5631398592345e-05
 156    2.7612772301194e-05
 157    2.0178848354947e-05
 158    -2.5354551779944e-05
 159    -9.6506699847529e-05
 160    -5.8254397915474e-05
 161    -8.6026249032194e-06
 162    8.5199592813398e-06
 163    3.3765747454249e-06
 164    3.3849362769607e-06
 165    -0.00031168987591452
 166    -1.7891864160363e-05
 167    1.4446119186432e-05
 168    5.1859294154271e-06
 169    0.00019606555396779
 170    -0.00018426904995393
 171    -0.00014629644025558
 172    -1.0852184431184e-06
 173    7.8012789516591e-06
 174    -1.1856460487852e-05
 175    2.4009532462619e-06
 176    -1.5063536947496e-05
 177    -1.6923425848519e-05
 178    8.2383398966641e-05
 179    -2.4110475650322e-06
 180    9.3503302593054e-07
 181    -4.0509481230231e-06
 182    1.6122402474652e-05
 183    2.8711473291745e-05
 184    -7.0568470794411e-05
 185    -5.0568108128689e-06
 186    3.8682013259813e-06
 187    5.9941959072725e-06
 188    0.00013581143946043
 189    -0.0001064598250869
 190    -0.00010404017076572
 191    4.7325374186479e-07
 192    2.0164033010207e-06
 193    -6.6884079914252e-06
 194    -2.5573173314333e-06
 195    -5.5826233523792e-06
 196    -8.9629522749894e-06
 197    -1.4950256698555e-05
 198    4.6336218270386e-06
 199    1.961897012383e-06
 200    -2.976931487608e-06
 201    -9.552777840008e-06
 202    7.4632847517048e-07
 203    -1.1996954736958e-05
 204    8.7951421683437e-06
 205    1.1292907394735e-05
 206    1.148341067839e-05
 207    6.883325243482e-05
 208    -1.4312713953408e-05
 209    2.8369075789435e-06
 210    1.563614735013e-05
 211    -1.7703931533689e-05
 212    -3.0738509306459e-05
 213    0.00025527548881951
 214    5.1921203815564e-06
 215    -2.1104070886995e-06
 216    -6.5375276972539e-06
 217    0.0001917286090139
 218    -5.2664854826097e-05
 219    -7.7357553831626e-05
 220    -1.7547139443806e-06
 221    -1.5923810509553e-05
 222    5.3022239215395e-06
 223    9.3254571745634e-06
 224    -1.7064106695658e-06
 225    2.7912051094561e-05
 226    6.0520870290753e-05
 227    -1.2916602018927e-05
 228    -2.0693855585574e-06
 229    -5.0788618535333e-07
 230    1.0635035597317e-05
 231    4.8178449669559e-05
 232    -3.9828754752995e-06
 233    6.8290699096628e-06
 234    1.232370956905e-05
 235    1.8577243902856e-06
 236    3.2102392191325e-06
 237    -9.5737356400061e-05
 238    2.417403632766e-06
 239    1.5790756516272e-06
 240    -3.6581471760566e-06
 241    4.4160850466957e-05
 242    -6.5151708378636e-05
 243    1.1886715372922e-05
 244    2.0111197264489e-06
 245    2.3637840212243e-06
 246    -1.8522757240068e-06
 247    -2.8215780067408e-07
 248    1.4548699388916e-06
 249    -1.7072808381542e-05
 250    1.2534906427097e-05
 251    -4.455222509021e-06
 252    -8.3473882532588e-07
 253    -2.3987584780192e-07
 254    -1.6415502818224e-05
 255    5.7679526839892e-05
 256    4.3911690610216e-07
 257    4.4733957121714e-06
 258    -1.0585611023949e-06
 259    -2.1088664063685e-06
 260    -1.3717776276946e-05
 261    7.116048222842e-05
 262    -1.7373920404974e-06
 263    -2.6477213967543e-06