[Molden Format]
made by pyscf v[2.0.1]
[Atoms] (AU)
O   1   8     0.00000000000000     0.00000000000000    10.18586013564153
H   2   1     0.00000000000000     0.00000000000000     8.36245831374057
H   3   1    -0.05031916615174     1.78353065140343    10.56173183210820
O   4   8     0.00000000000000     0.00000000000000     2.31533471513237
C   5   6     0.00000000000000     0.00000000000000     0.00000000000000
C   6   6     2.01118073026938    -1.40227222164369    -1.50774939176400
C   7   6    -2.01249334291722     1.41331050329955    -1.50315905028694
H   8   1     3.32037363730244    -2.26721897153159    -0.13599698591495
C   9   6     3.45899267434009     0.28739631745591    -3.37437943254505
H   10   1     1.07662969841332    -2.94725144642667    -2.56541439481080
H   11   1    -2.67503415753480     0.18421555839588    -3.06194479365997
H   12   1    -1.07974048864772     3.03851734677796    -2.43674295017013
C   13   6    -4.21607110578555     2.32938802552922     0.11994162256091
H   14   1     4.24440173074564     1.93368664142019    -2.34976285512790
H   15   1     2.15020713235517     1.04714335134846    -4.81494497423699
C   16   6     5.60746363007797    -1.12419643481196    -4.70268606082550
H   17   1    -3.46838323670267     3.50951302338067     1.66946842715333
H   18   1    -5.11873485366228     0.68575958301209     1.04047743976495
C   19   6    -6.18314754751344     3.80909592987882    -1.39656589068747
H   20   1     6.93011263717176    -1.87550812453645    -3.26656317360070
C   21   6     7.06356622236532     0.52877932406334    -6.57829775293605
H   22   1     4.82318879258361    -2.78573437948532    -5.70504560381835
H   23   1    -6.91582688743803     2.61304780074712    -2.95074552451969
H   24   1    -5.26532430573853     5.45420349051338    -2.31005832200284
C   25   6    -8.39941882261433     4.73263980500213     0.21800571437956
H   26   1     7.83338371486801     2.19084139882824    -5.57093109900697
H   27   1     5.73544244039420     1.27376866537418    -8.01071492370229
C   28   6     9.21124858443101    -0.89699110072176    -7.88926949186242
H   29   1    -7.66272760055236     5.92277078003992     1.77035591474408
H   30   1    -9.31497248082589     3.08753015622020     1.12614408368786
C   31   6   -10.35481709231879     6.21833079391143    -1.30905206253246
H   32   1    10.58815905329501    -1.61074586756696    -6.49512691622620
H   33   1    10.23506248045667     0.32468009384095    -9.23072870921204
H   34   1     8.47665842847139    -2.53598436989925    -8.94921964622535
H   35   1    -9.48948872868064     7.90013588951020    -2.18823918416067
H   36   1   -11.93332513000955     6.86460487874102    -0.11255798845995
H   37   1   -11.15126291841033     5.04495968327630    -2.83849898862534
[GTO]
1 0
 s    8 1.00
                 11720  0.00070964594651845
                  1759  0.0054672722921914
                 400.8   0.027823118610189
                 113.7    0.10474773971146
                 37.03    0.28292084635691
                 13.27    0.44849523869833
                 5.025    0.27081688521277
                 1.013    0.01545029160744
 s    8 1.00
                 11720  -0.00031444341168873
                  1759  -0.0024821376810179
                 400.8  -0.012316355381583
                 113.7  -0.050538917343672
                 37.03   -0.13938490331632
                 13.27   -0.32507749481778
                 5.025   -0.22984830758785
                 1.013     1.0953793467883
 s    1 1.00
                0.3023                   1
 p    3 1.00
                  17.7   0.062679166281506
                 3.854    0.33353656587936
                 1.046    0.74123964163973
 p    1 1.00
                0.2753                   1
 d    1 1.00
                 1.185                   1

2 0
 s    3 1.00
                 13.01   0.033498726389998
                 1.962    0.23480080117413
                0.4446     0.8136829578829
 s    1 1.00
                 0.122                   1
 p    1 1.00
                 0.727                   1

3 0
 s    3 1.00
                 13.01   0.033498726389998
                 1.962    0.23480080117413
                0.4446     0.8136829578829
 s    1 1.00
                 0.122                   1
 p    1 1.00
                 0.727                   1

4 0
 s    8 1.00
                 11720  0.00070964594651845
                  1759  0.0054672722921914
                 400.8   0.027823118610189
                 113.7    0.10474773971146
                 37.03    0.28292084635691
                 13.27    0.44849523869833
                 5.025    0.27081688521277
                 1.013    0.01545029160744
 s    8 1.00
                 11720  -0.00031444341168873
                  1759  -0.0024821376810179
                 400.8  -0.012316355381583
                 113.7  -0.050538917343672
                 37.03   -0.13938490331632
                 13.27   -0.32507749481778
                 5.025   -0.22984830758785
                 1.013     1.0953793467883
 s    1 1.00
                0.3023                   1
 p    3 1.00
                  17.7   0.062679166281506
                 3.854    0.33353656587936
                 1.046    0.74123964163973
 p    1 1.00
                0.2753                   1
 d    1 1.00
                 1.185                   1

5 0
 s    8 1.00
                  6665  0.00069158396281299
                  1000  0.0053257961529341
                   228   0.027060721042034
                 64.71    0.10165684614077
                 21.06     0.2745748236174
                 7.495    0.44829431892377
                 2.797    0.28490261071525
                0.5215   0.015194859206082
 s    8 1.00
                  6665  -0.00029326965268655
                  1000  -0.0023180354739745
                   228  -0.011499786038565
                 64.71  -0.046826727009787
                 21.06   -0.12846616875047
                 7.495   -0.30126627246289
                 2.797   -0.25563070233011
                0.5215      1.093793361012
 s    1 1.00
                0.1596                   1
 p    3 1.00
                 9.439   0.056979251590039
                 2.002    0.31320721150073
                0.5456    0.76037674173753
 p    1 1.00
                0.1517                   1
 d    1 1.00
                  0.55                   1

6 0
 s    8 1.00
                  6665  0.00069158396281299
                  1000  0.0053257961529341
                   228   0.027060721042034
                 64.71    0.10165684614077
                 21.06     0.2745748236174
                 7.495    0.44829431892377
                 2.797    0.28490261071525
                0.5215   0.015194859206082
 s    8 1.00
                  6665  -0.00029326965268655
                  1000  -0.0023180354739745
                   228  -0.011499786038565
                 64.71  -0.046826727009787
                 21.06   -0.12846616875047
                 7.495   -0.30126627246289
                 2.797   -0.25563070233011
                0.5215      1.093793361012
 s    1 1.00
                0.1596                   1
 p    3 1.00
                 9.439   0.056979251590039
                 2.002    0.31320721150073
                0.5456    0.76037674173753
 p    1 1.00
                0.1517                   1
 d    1 1.00
                  0.55                   1

7 0
 s    8 1.00
                  6665  0.00069158396281299
                  1000  0.0053257961529341
                   228   0.027060721042034
                 64.71    0.10165684614077
                 21.06     0.2745748236174
                 7.495    0.44829431892377
                 2.797    0.28490261071525
                0.5215   0.015194859206082
 s    8 1.00
                  6665  -0.00029326965268655
                  1000  -0.0023180354739745
                   228  -0.011499786038565
                 64.71  -0.046826727009787
                 21.06   -0.12846616875047
                 7.495   -0.30126627246289
                 2.797   -0.25563070233011
                0.5215      1.093793361012
 s    1 1.00
                0.1596                   1
 p    3 1.00
                 9.439   0.056979251590039
                 2.002    0.31320721150073
                0.5456    0.76037674173753
 p    1 1.00
                0.1517                   1
 d    1 1.00
                  0.55                   1

8 0
 s    3 1.00
                 13.01   0.033498726389998
                 1.962    0.23480080117413
                0.4446     0.8136829578829
 s    1 1.00
                 0.122                   1
 p    1 1.00
                 0.727                   1

9 0
 s    8 1.00
                  6665  0.00069158396281299
                  1000  0.0053257961529341
                   228   0.027060721042034
                 64.71    0.10165684614077
                 21.06     0.2745748236174
                 7.495    0.44829431892377
                 2.797    0.28490261071525
                0.5215   0.015194859206082
 s    8 1.00
                  6665  -0.00029326965268655
                  1000  -0.0023180354739745
                   228  -0.011499786038565
                 64.71  -0.046826727009787
                 21.06   -0.12846616875047
                 7.495   -0.30126627246289
                 2.797   -0.25563070233011
                0.5215      1.093793361012
 s    1 1.00
                0.1596                   1
 p    3 1.00
                 9.439   0.056979251590039
                 2.002    0.31320721150073
                0.5456    0.76037674173753
 p    1 1.00
                0.1517                   1
 d    1 1.00
                  0.55                   1

10 0
 s    3 1.00
                 13.01   0.033498726389998
                 1.962    0.23480080117413
                0.4446     0.8136829578829
 s    1 1.00
                 0.122                   1
 p    1 1.00
                 0.727                   1

11 0
 s    3 1.00
                 13.01   0.033498726389998
                 1.962    0.23480080117413
                0.4446     0.8136829578829
 s    1 1.00
                 0.122                   1
 p    1 1.00
                 0.727                   1

12 0
 s    3 1.00
                 13.01   0.033498726389998
                 1.962    0.23480080117413
                0.4446     0.8136829578829
 s    1 1.00
                 0.122                   1
 p    1 1.00
                 0.727                   1

13 0
 s    8 1.00
                  6665  0.00069158396281299
                  1000  0.0053257961529341
                   228   0.027060721042034
                 64.71    0.10165684614077
                 21.06     0.2745748236174
                 7.495    0.44829431892377
                 2.797    0.28490261071525
                0.5215   0.015194859206082
 s    8 1.00
                  6665  -0.00029326965268655
                  1000  -0.0023180354739745
                   228  -0.011499786038565
                 64.71  -0.046826727009787
                 21.06   -0.12846616875047
                 7.495   -0.30126627246289
                 2.797   -0.25563070233011
                0.5215      1.093793361012
 s    1 1.00
                0.1596                   1
 p    3 1.00
                 9.439   0.056979251590039
                 2.002    0.31320721150073
                0.5456    0.76037674173753
 p    1 1.00
                0.1517                   1
 d    1 1.00
                  0.55                   1

14 0
 s    3 1.00
                 13.01   0.033498726389998
                 1.962    0.23480080117413
                0.4446     0.8136829578829
 s    1 1.00
                 0.122                   1
 p    1 1.00
                 0.727                   1

15 0
 s    3 1.00
                 13.01   0.033498726389998
                 1.962    0.23480080117413
                0.4446     0.8136829578829
 s    1 1.00
                 0.122                   1
 p    1 1.00
                 0.727                   1

16 0
 s    8 1.00
                  6665  0.00069158396281299
                  1000  0.0053257961529341
                   228   0.027060721042034
                 64.71    0.10165684614077
                 21.06     0.2745748236174
                 7.495    0.44829431892377
                 2.797    0.28490261071525
                0.5215   0.015194859206082
 s    8 1.00
                  6665  -0.00029326965268655
                  1000  -0.0023180354739745
                   228  -0.011499786038565
                 64.71  -0.046826727009787
                 21.06   -0.12846616875047
                 7.495   -0.30126627246289
                 2.797   -0.25563070233011
                0.5215      1.093793361012
 s    1 1.00
                0.1596                   1
 p    3 1.00
                 9.439   0.056979251590039
                 2.002    0.31320721150073
                0.5456    0.76037674173753
 p    1 1.00
                0.1517                   1
 d    1 1.00
                  0.55                   1

17 0
 s    3 1.00
                 13.01   0.033498726389998
                 1.962    0.23480080117413
                0.4446     0.8136829578829
 s    1 1.00
                 0.122                   1
 p    1 1.00
                 0.727                   1

18 0
 s    3 1.00
                 13.01   0.033498726389998
                 1.962    0.23480080117413
                0.4446     0.8136829578829
 s    1 1.00
                 0.122                   1
 p    1 1.00
                 0.727                   1

19 0
 s    8 1.00
                  6665  0.00069158396281299
                  1000  0.0053257961529341
                   228   0.027060721042034
                 64.71    0.10165684614077
                 21.06     0.2745748236174
                 7.495    0.44829431892377
                 2.797    0.28490261071525
                0.5215   0.015194859206082
 s    8 1.00
                  6665  -0.00029326965268655
                  1000  -0.0023180354739745
                   228  -0.011499786038565
                 64.71  -0.046826727009787
                 21.06   -0.12846616875047
                 7.495   -0.30126627246289
                 2.797   -0.25563070233011
                0.5215      1.093793361012
 s    1 1.00
                0.1596                   1
 p    3 1.00
                 9.439   0.056979251590039
                 2.002    0.31320721150073
                0.5456    0.76037674173753
 p    1 1.00
                0.1517                   1
 d    1 1.00
                  0.55                   1

20 0
 s    3 1.00
                 13.01   0.033498726389998
                 1.962    0.23480080117413
                0.4446     0.8136829578829
 s    1 1.00
                 0.122                   1
 p    1 1.00
                 0.727                   1

21 0
 s    8 1.00
                  6665  0.00069158396281299
                  1000  0.0053257961529341
                   228   0.027060721042034
                 64.71    0.10165684614077
                 21.06     0.2745748236174
                 7.495    0.44829431892377
                 2.797    0.28490261071525
                0.5215   0.015194859206082
 s    8 1.00
                  6665  -0.00029326965268655
                  1000  -0.0023180354739745
                   228  -0.011499786038565
                 64.71  -0.046826727009787
                 21.06   -0.12846616875047
                 7.495   -0.30126627246289
                 2.797   -0.25563070233011
                0.5215      1.093793361012
 s    1 1.00
                0.1596                   1
 p    3 1.00
                 9.439   0.056979251590039
                 2.002    0.31320721150073
                0.5456    0.76037674173753
 p    1 1.00
                0.1517                   1
 d    1 1.00
                  0.55                   1

22 0
 s    3 1.00
                 13.01   0.033498726389998
                 1.962    0.23480080117413
                0.4446     0.8136829578829
 s    1 1.00
                 0.122                   1
 p    1 1.00
                 0.727                   1

23 0
 s    3 1.00
                 13.01   0.033498726389998
                 1.962    0.23480080117413
                0.4446     0.8136829578829
 s    1 1.00
                 0.122                   1
 p    1 1.00
                 0.727                   1

24 0
 s    3 1.00
                 13.01   0.033498726389998
                 1.962    0.23480080117413
                0.4446     0.8136829578829
 s    1 1.00
                 0.122                   1
 p    1 1.00
                 0.727                   1

25 0
 s    8 1.00
                  6665  0.00069158396281299
                  1000  0.0053257961529341
                   228   0.027060721042034
                 64.71    0.10165684614077
                 21.06     0.2745748236174
                 7.495    0.44829431892377
                 2.797    0.28490261071525
                0.5215   0.015194859206082
 s    8 1.00
                  6665  -0.00029326965268655
                  1000  -0.0023180354739745
                   228  -0.011499786038565
                 64.71  -0.046826727009787
                 21.06   -0.12846616875047
                 7.495   -0.30126627246289
                 2.797   -0.25563070233011
                0.5215      1.093793361012
 s    1 1.00
                0.1596                   1
 p    3 1.00
                 9.439   0.056979251590039
                 2.002    0.31320721150073
                0.5456    0.76037674173753
 p    1 1.00
                0.1517                   1
 d    1 1.00
                  0.55                   1

26 0
 s    3 1.00
                 13.01   0.033498726389998
                 1.962    0.23480080117413
                0.4446     0.8136829578829
 s    1 1.00
                 0.122                   1
 p    1 1.00
                 0.727                   1

27 0
 s    3 1.00
                 13.01   0.033498726389998
                 1.962    0.23480080117413
                0.4446     0.8136829578829
 s    1 1.00
                 0.122                   1
 p    1 1.00
                 0.727                   1

28 0
 s    8 1.00
                  6665  0.00069158396281299
                  1000  0.0053257961529341
                   228   0.027060721042034
                 64.71    0.10165684614077
                 21.06     0.2745748236174
                 7.495    0.44829431892377
                 2.797    0.28490261071525
                0.5215   0.015194859206082
 s    8 1.00
                  6665  -0.00029326965268655
                  1000  -0.0023180354739745
                   228  -0.011499786038565
                 64.71  -0.046826727009787
                 21.06   -0.12846616875047
                 7.495   -0.30126627246289
                 2.797   -0.25563070233011
                0.5215      1.093793361012
 s    1 1.00
                0.1596                   1
 p    3 1.00
                 9.439   0.056979251590039
                 2.002    0.31320721150073
                0.5456    0.76037674173753
 p    1 1.00
                0.1517                   1
 d    1 1.00
                  0.55                   1

29 0
 s    3 1.00
                 13.01   0.033498726389998
                 1.962    0.23480080117413
                0.4446     0.8136829578829
 s    1 1.00
                 0.122                   1
 p    1 1.00
                 0.727                   1

30 0
 s    3 1.00
                 13.01   0.033498726389998
                 1.962    0.23480080117413
                0.4446     0.8136829578829
 s    1 1.00
                 0.122                   1
 p    1 1.00
                 0.727                   1

31 0
 s    8 1.00
                  6665  0.00069158396281299
                  1000  0.0053257961529341
                   228   0.027060721042034
                 64.71    0.10165684614077
                 21.06     0.2745748236174
                 7.495    0.44829431892377
                 2.797    0.28490261071525
                0.5215   0.015194859206082
 s    8 1.00
                  6665  -0.00029326965268655
                  1000  -0.0023180354739745
                   228  -0.011499786038565
                 64.71  -0.046826727009787
                 21.06   -0.12846616875047
                 7.495   -0.30126627246289
                 2.797   -0.25563070233011
                0.5215      1.093793361012
 s    1 1.00
                0.1596                   1
 p    3 1.00
                 9.439   0.056979251590039
                 2.002    0.31320721150073
                0.5456    0.76037674173753
 p    1 1.00
                0.1517                   1
 d    1 1.00
                  0.55                   1

32 0
 s    3 1.00
                 13.01   0.033498726389998
                 1.962    0.23480080117413
                0.4446     0.8136829578829
 s    1 1.00
                 0.122                   1
 p    1 1.00
                 0.727                   1

33 0
 s    3 1.00
                 13.01   0.033498726389998
                 1.962    0.23480080117413
                0.4446     0.8136829578829
 s    1 1.00
                 0.122                   1
 p    1 1.00
                 0.727                   1

34 0
 s    3 1.00
                 13.01   0.033498726389998
                 1.962    0.23480080117413
                0.4446     0.8136829578829
 s    1 1.00
                 0.122                   1
 p    1 1.00
                 0.727                   1

35 0
 s    3 1.00
                 13.01   0.033498726389998
                 1.962    0.23480080117413
                0.4446     0.8136829578829
 s    1 1.00
                 0.122                   1
 p    1 1.00
                 0.727                   1

36 0
 s    3 1.00
                 13.01   0.033498726389998
                 1.962    0.23480080117413
                0.4446     0.8136829578829
 s    1 1.00
                 0.122                   1
 p    1 1.00
                 0.727                   1

37 0
 s    3 1.00
                 13.01   0.033498726389998
                 1.962    0.23480080117413
                0.4446     0.8136829578829
 s    1 1.00
                 0.122                   1
 p    1 1.00
                 0.727                   1

[5d]
[7f]
[9g]

[MO]
 Sym= A
 Ene=               0
 Spin= Alpha
 Occup=    1.00000
   1    4.3090867106321e-05
   2    2.8230617947376e-05
   3    -0.00010130332358815
   4    8.4982003364198e-08
   5    -3.9511729351053e-06
   6    -1.4346152533141e-06
   7    -5.4001009544757e-07
   8    2.0631782649185e-05
   9    7.1885073269528e-05
  10    -1.2424152480478e-05
  11    -8.9853005814944e-09
  12    8.1822451879129e-07
  13    -5.1514576097475e-07
  14    -2.5418627931573e-08
  15    1.322062629457e-05
  16    0.0001466667131827
  17    8.8470573967658e-08
  18    -1.3155692293096e-06
  19    3.5703892863188e-05
  20    6.2872934754188e-06
  21    -5.6790412533316e-05
  22    -1.7447210458754e-07
  23    5.7399416854898e-06
  24    -2.2703406124922e-06
  25      -1.0013631937056
  26    -0.001954403606467
  27    0.0068003394092057
  28    4.6991453079704e-06
  29    -8.263481852741e-06
  30     0.001654941761638
  31    2.8723782749103e-07
  32    1.4515151197312e-06
  33    -0.0018352669894713
  34    -0.00012569068889817
  35    2.9759397013634e-06
  36    -1.3571799571557e-06
  37    -6.7472389599342e-05
  38    0.00017571119498725
  39    -0.00027480798069064
  40    -0.00037471814500479
  41    -0.0014218867058793
  42    -1.513060523909e-05
  43    9.9540343421395e-06
  44    7.124749291681e-06
  45    -8.1534916248731e-05
  46    6.3420854675172e-05
  47    -0.0035585024792741
  48    0.0005330264964361
  49    8.4505413657875e-06
  50    -2.4629770412464e-06
  51    -2.8815450571049e-05
  52    0.00010754451946085
  53    8.4985420267041e-05
  54    0.00016624062852357
  55    -0.0013710332171478
  56    -7.8148988068402e-05
  57    7.4451724141021e-06
  58    3.5900365583085e-05
  59    0.00042372954650487
  60    -0.00047701450812264
  61    0.00093008472142997
  62    0.00011752095740997
  63    -0.00015009513138617
  64    0.0001428909548203
  65    -5.504835394811e-05
  66    0.00012987397185353
  67    4.0141663696956e-05
  68    9.8164009846018e-05
  69    -0.00051171587618697
  70    6.0956942552021e-05
  71    -3.9990816316911e-05
  72    6.2584444440325e-05
  73    -0.0010016245283981
  74    0.00077110281184968
  75    0.00063889464860962
  76    0.00014097656648157
  77    0.00012075135828778
  78    -8.9675656893575e-05
  79    -5.8968912259107e-05
  80    0.00015178673073912
  81    6.4192388114009e-05
  82    -0.00020765211520124
  83    -6.6078802393702e-05
  84    4.854761991012e-05
  85    -4.8854551258363e-05
  86    -2.5013422288113e-05
  87    -4.8992651148449e-05
  88    0.00060633533860448
  89    1.5839059051926e-05
  90    1.7105777465773e-05
  91    -1.2020407799022e-05
  92    -0.00025681994021805
  93    -0.00062682747456745
  94    1.8102652459689e-05
  95    -1.812295743739e-05
  96    -1.120313619468e-05
  97    -7.3072208628216e-06
  98    2.0543758718976e-05
  99    4.5860854950811e-05
 100    3.7501703271456e-05
 101    0.00015861959652546
 102    -9.045041595043e-06
 103    9.8764894324808e-06
 104    -7.4636970188846e-05
 105    1.8049998608477e-05
 106    0.00020116039347923
 107    6.4369170469055e-05
 108    -1.0923815234456e-05
 109    -7.4720380134374e-05
 110    -7.7315856780501e-05
 111    5.9488069192936e-05
 112    4.5386171759474e-05
 113    -1.858648138119e-05
 114    -6.9722622052982e-05
 115    4.9593594568884e-05
 116    0.00010093664742723
 117    -0.0008419212621929
 118    2.5925781765196e-05
 119    1.0112832611722e-05
 120    -3.2569635583108e-05
 121    -0.00029407075530193
 122    -3.0812008253556e-05
 123    0.00013853561490088
 124    6.4135738714197e-06
 125    -1.2333554036589e-05
 126    -1.5596594914027e-05
 127    3.2112226304191e-05
 128    -4.9876040380392e-05
 129    1.9073004615415e-05
 130    0.00032307296406797
 131    -7.5584413863907e-06
 132    -5.8765942431166e-06
 133    -2.9215265578309e-05
 134    -2.5900657995433e-05
 135    0.00011827251731596
 136    1.3479820576492e-05
 137    2.4177460027373e-05
 138    2.6657041811801e-05
 139    2.1220156474564e-05
 140    3.866875283341e-05
 141    -0.00028845988210374
 142    -7.9174931034559e-06
 143    2.5192460146057e-06
 144    6.1590243490841e-06
 145    0.00022993801577336
 146    -5.2517402686174e-05
 147    -6.3745713415921e-05
 148    2.4031206294617e-06
 149    -3.0592629586234e-06
 150    3.5710489499585e-06
 151    -1.199547834549e-05
 152    4.9511152144145e-06
 153    9.6822134620136e-05
 154    0.0001104527326794
 155    2.5968647268833e-05
 156    -2.9581963690944e-05
 157    -2.0171544020794e-05
 158    2.5740105176967e-05
 159    8.9256668548452e-05
 160    5.9331675118998e-05
 161    7.146723854781e-06
 162    -6.2661147349432e-06
 163    2.1007829975463e-06
 164    5.7849485962433e-06
 165    0.00024199972214393
 166    1.7694645005439e-05
 167    -1.4181926766568e-05
 168    -6.7309407651293e-06
 169    -0.00023729532736061
 170    0.00021269991834509
 171    0.00013288650626543
 172    2.8621759257539e-06
 173    -9.9875515625102e-06
 174    1.3539072814399e-05
 175    -3.2662029025178e-06
 176    1.8220190151299e-05
 177    1.6005213201705e-05
 178    -8.3828121508178e-05
 179    8.0995097619777e-07
 180    -1.9538366603564e-06
 181    4.9500786828009e-06
 182    -1.5224866279203e-05
 183    -2.7041655374407e-05
 184    6.6746446230591e-05
 185    4.816748187918e-06
 186    -3.5312936548629e-06
 187    -5.5629409776414e-06
 188    -0.00012689376406334
 189    0.00010215117628891
 190    8.5081925178593e-05
 191    -1.2823815505547e-06
 192    -2.0360199425396e-06
 193    7.6821440238613e-06
 194    3.0820458417345e-06
 195    5.1270132731442e-06
 196    1.3760790066374e-05
 197    1.8628605110678e-05
 198    -5.6475543021809e-06
 199    -1.9580900743145e-06
 200    3.5365158550918e-06
 201    1.3275972393654e-05
 202    -3.6196026760041e-06
 203    1.3023741437992e-05
 204    -1.0006752438775e-05
 205    -1.1787905811065e-05
 206    -8.4350936647717e-06
 207    -6.8117085321359e-05
 208    1.616390988725e-05
 209    -3.9210692243472e-06
 210    -1.559750226532e-05
 211    1.7908773876296e-05
 212    3.101329308804e-05
 213    -0.00025601399371545
 214    -4.9599552810994e-06
 215    2.0911131933307e-06
 216    6.1964704435848e-06
 217    -0.00019561003676791
 218    5.3643941929009e-05
 219    7.7004486329221e-05
 220    2.0123184022311e-06
 221    1.653168697672e-05
 222    -5.4977606850151e-06
 223    -9.2560559900607e-06
 224    1.7859760256139e-06
 225    -2.5386315584078e-05
 226    -5.4282341527971e-05
 227    1.2265828448027e-05
 228    1.9080056135928e-06
 229     9.85083416426e-07
 230    -9.7230068692145e-06
 231    -5.4351882341825e-05
 232    3.9671922932632e-06
 233    -6.3071236393269e-06
 234    -1.1970615344712e-05
 235    -4.0468672254753e-07
 236    -6.6600616423872e-07
 237    7.8349122591568e-05
 238    -2.3268953704911e-06
 239    -2.0099245623913e-06
 240    3.7978698417136e-06
 241    -3.5327918664374e-05
 242    6.2637647059311e-05
 243    -1.7804740412038e-05
 244    -1.8997336524948e-06
 245    -1.8135946051279e-06
 246    1.9191945061665e-06
 247    -1.7114093654507e-07
 248    -9.3041979931335e-07
 249    1.7942982895586e-05
 250    -1.2892254687934e-05
 251    4.5801271988623e-06
 252    9.4039895222977e-07
 253    1.8669483791536e-07
 254    1.5937774234657e-05
 255    -5.5945755158818e-05
 256    6.3821011218915e-08
 257    -4.4119146337488e-06
 258    9.0853648253386e-07
 259    1.1035321311338e-05
 260    1.9660648912064e-05
 261    -7.9445233229917e-05
 262    3.2850611673797e-06
 263    -1.263324028382e-06