[Molden Format]
made by pyscf v[2.0.1]
[Atoms] (AU)
O   1   8     0.00000000000000     0.00000000000000    10.56380536055454
H   2   1     0.00000000000000     0.00000000000000     8.74040353865358
H   3   1    -0.05031916615174     1.78353065140343    10.93967705702121
O   4   8     0.00000000000000     0.00000000000000     2.31533471513237
C   5   6     0.00000000000000     0.00000000000000     0.00000000000000
C   6   6     2.01118073026938    -1.40227222164369    -1.50774939176400
C   7   6    -2.01249334291722     1.41331050329955    -1.50315905028694
H   8   1     3.32037363730244    -2.26721897153159    -0.13599698591495
C   9   6     3.45899267434009     0.28739631745591    -3.37437943254505
H   10   1     1.07662969841332    -2.94725144642667    -2.56541439481080
H   11   1    -2.67503415753480     0.18421555839588    -3.06194479365997
H   12   1    -1.07974048864772     3.03851734677796    -2.43674295017013
C   13   6    -4.21607110578555     2.32938802552922     0.11994162256091
H   14   1     4.24440173074564     1.93368664142019    -2.34976285512790
H   15   1     2.15020713235517     1.04714335134846    -4.81494497423699
C   16   6     5.60746363007797    -1.12419643481196    -4.70268606082550
H   17   1    -3.46838323670267     3.50951302338067     1.66946842715333
H   18   1    -5.11873485366228     0.68575958301209     1.04047743976495
C   19   6    -6.18314754751344     3.80909592987882    -1.39656589068747
H   20   1     6.93011263717176    -1.87550812453645    -3.26656317360070
C   21   6     7.06356622236532     0.52877932406334    -6.57829775293605
H   22   1     4.82318879258361    -2.78573437948532    -5.70504560381835
H   23   1    -6.91582688743803     2.61304780074712    -2.95074552451969
H   24   1    -5.26532430573853     5.45420349051338    -2.31005832200284
C   25   6    -8.39941882261433     4.73263980500213     0.21800571437956
H   26   1     7.83338371486801     2.19084139882824    -5.57093109900697
H   27   1     5.73544244039420     1.27376866537418    -8.01071492370229
C   28   6     9.21124858443101    -0.89699110072176    -7.88926949186242
H   29   1    -7.66272760055236     5.92277078003992     1.77035591474408
H   30   1    -9.31497248082589     3.08753015622020     1.12614408368786
C   31   6   -10.35481709231879     6.21833079391143    -1.30905206253246
H   32   1    10.58815905329501    -1.61074586756696    -6.49512691622620
H   33   1    10.23506248045667     0.32468009384095    -9.23072870921204
H   34   1     8.47665842847139    -2.53598436989925    -8.94921964622535
H   35   1    -9.48948872868064     7.90013588951020    -2.18823918416067
H   36   1   -11.93332513000955     6.86460487874102    -0.11255798845995
H   37   1   -11.15126291841033     5.04495968327630    -2.83849898862534
[GTO]
1 0
 s    8 1.00
                 11720  0.00070964594651845
                  1759  0.0054672722921914
                 400.8   0.027823118610189
                 113.7    0.10474773971146
                 37.03    0.28292084635691
                 13.27    0.44849523869833
                 5.025    0.27081688521277
                 1.013    0.01545029160744
 s    8 1.00
                 11720  -0.00031444341168873
                  1759  -0.0024821376810179
                 400.8  -0.012316355381583
                 113.7  -0.050538917343672
                 37.03   -0.13938490331632
                 13.27   -0.32507749481778
                 5.025   -0.22984830758785
                 1.013     1.0953793467883
 s    1 1.00
                0.3023                   1
 p    3 1.00
                  17.7   0.062679166281506
                 3.854    0.33353656587936
                 1.046    0.74123964163973
 p    1 1.00
                0.2753                   1
 d    1 1.00
                 1.185                   1

2 0
 s    3 1.00
                 13.01   0.033498726389998
                 1.962    0.23480080117413
                0.4446     0.8136829578829
 s    1 1.00
                 0.122                   1
 p    1 1.00
                 0.727                   1

3 0
 s    3 1.00
                 13.01   0.033498726389998
                 1.962    0.23480080117413
                0.4446     0.8136829578829
 s    1 1.00
                 0.122                   1
 p    1 1.00
                 0.727                   1

4 0
 s    8 1.00
                 11720  0.00070964594651845
                  1759  0.0054672722921914
                 400.8   0.027823118610189
                 113.7    0.10474773971146
                 37.03    0.28292084635691
                 13.27    0.44849523869833
                 5.025    0.27081688521277
                 1.013    0.01545029160744
 s    8 1.00
                 11720  -0.00031444341168873
                  1759  -0.0024821376810179
                 400.8  -0.012316355381583
                 113.7  -0.050538917343672
                 37.03   -0.13938490331632
                 13.27   -0.32507749481778
                 5.025   -0.22984830758785
                 1.013     1.0953793467883
 s    1 1.00
                0.3023                   1
 p    3 1.00
                  17.7   0.062679166281506
                 3.854    0.33353656587936
                 1.046    0.74123964163973
 p    1 1.00
                0.2753                   1
 d    1 1.00
                 1.185                   1

5 0
 s    8 1.00
                  6665  0.00069158396281299
                  1000  0.0053257961529341
                   228   0.027060721042034
                 64.71    0.10165684614077
                 21.06     0.2745748236174
                 7.495    0.44829431892377
                 2.797    0.28490261071525
                0.5215   0.015194859206082
 s    8 1.00
                  6665  -0.00029326965268655
                  1000  -0.0023180354739745
                   228  -0.011499786038565
                 64.71  -0.046826727009787
                 21.06   -0.12846616875047
                 7.495   -0.30126627246289
                 2.797   -0.25563070233011
                0.5215      1.093793361012
 s    1 1.00
                0.1596                   1
 p    3 1.00
                 9.439   0.056979251590039
                 2.002    0.31320721150073
                0.5456    0.76037674173753
 p    1 1.00
                0.1517                   1
 d    1 1.00
                  0.55                   1

6 0
 s    8 1.00
                  6665  0.00069158396281299
                  1000  0.0053257961529341
                   228   0.027060721042034
                 64.71    0.10165684614077
                 21.06     0.2745748236174
                 7.495    0.44829431892377
                 2.797    0.28490261071525
                0.5215   0.015194859206082
 s    8 1.00
                  6665  -0.00029326965268655
                  1000  -0.0023180354739745
                   228  -0.011499786038565
                 64.71  -0.046826727009787
                 21.06   -0.12846616875047
                 7.495   -0.30126627246289
                 2.797   -0.25563070233011
                0.5215      1.093793361012
 s    1 1.00
                0.1596                   1
 p    3 1.00
                 9.439   0.056979251590039
                 2.002    0.31320721150073
                0.5456    0.76037674173753
 p    1 1.00
                0.1517                   1
 d    1 1.00
                  0.55                   1

7 0
 s    8 1.00
                  6665  0.00069158396281299
                  1000  0.0053257961529341
                   228   0.027060721042034
                 64.71    0.10165684614077
                 21.06     0.2745748236174
                 7.495    0.44829431892377
                 2.797    0.28490261071525
                0.5215   0.015194859206082
 s    8 1.00
                  6665  -0.00029326965268655
                  1000  -0.0023180354739745
                   228  -0.011499786038565
                 64.71  -0.046826727009787
                 21.06   -0.12846616875047
                 7.495   -0.30126627246289
                 2.797   -0.25563070233011
                0.5215      1.093793361012
 s    1 1.00
                0.1596                   1
 p    3 1.00
                 9.439   0.056979251590039
                 2.002    0.31320721150073
                0.5456    0.76037674173753
 p    1 1.00
                0.1517                   1
 d    1 1.00
                  0.55                   1

8 0
 s    3 1.00
                 13.01   0.033498726389998
                 1.962    0.23480080117413
                0.4446     0.8136829578829
 s    1 1.00
                 0.122                   1
 p    1 1.00
                 0.727                   1

9 0
 s    8 1.00
                  6665  0.00069158396281299
                  1000  0.0053257961529341
                   228   0.027060721042034
                 64.71    0.10165684614077
                 21.06     0.2745748236174
                 7.495    0.44829431892377
                 2.797    0.28490261071525
                0.5215   0.015194859206082
 s    8 1.00
                  6665  -0.00029326965268655
                  1000  -0.0023180354739745
                   228  -0.011499786038565
                 64.71  -0.046826727009787
                 21.06   -0.12846616875047
                 7.495   -0.30126627246289
                 2.797   -0.25563070233011
                0.5215      1.093793361012
 s    1 1.00
                0.1596                   1
 p    3 1.00
                 9.439   0.056979251590039
                 2.002    0.31320721150073
                0.5456    0.76037674173753
 p    1 1.00
                0.1517                   1
 d    1 1.00
                  0.55                   1

10 0
 s    3 1.00
                 13.01   0.033498726389998
                 1.962    0.23480080117413
                0.4446     0.8136829578829
 s    1 1.00
                 0.122                   1
 p    1 1.00
                 0.727                   1

11 0
 s    3 1.00
                 13.01   0.033498726389998
                 1.962    0.23480080117413
                0.4446     0.8136829578829
 s    1 1.00
                 0.122                   1
 p    1 1.00
                 0.727                   1

12 0
 s    3 1.00
                 13.01   0.033498726389998
                 1.962    0.23480080117413
                0.4446     0.8136829578829
 s    1 1.00
                 0.122                   1
 p    1 1.00
                 0.727                   1

13 0
 s    8 1.00
                  6665  0.00069158396281299
                  1000  0.0053257961529341
                   228   0.027060721042034
                 64.71    0.10165684614077
                 21.06     0.2745748236174
                 7.495    0.44829431892377
                 2.797    0.28490261071525
                0.5215   0.015194859206082
 s    8 1.00
                  6665  -0.00029326965268655
                  1000  -0.0023180354739745
                   228  -0.011499786038565
                 64.71  -0.046826727009787
                 21.06   -0.12846616875047
                 7.495   -0.30126627246289
                 2.797   -0.25563070233011
                0.5215      1.093793361012
 s    1 1.00
                0.1596                   1
 p    3 1.00
                 9.439   0.056979251590039
                 2.002    0.31320721150073
                0.5456    0.76037674173753
 p    1 1.00
                0.1517                   1
 d    1 1.00
                  0.55                   1

14 0
 s    3 1.00
                 13.01   0.033498726389998
                 1.962    0.23480080117413
                0.4446     0.8136829578829
 s    1 1.00
                 0.122                   1
 p    1 1.00
                 0.727                   1

15 0
 s    3 1.00
                 13.01   0.033498726389998
                 1.962    0.23480080117413
                0.4446     0.8136829578829
 s    1 1.00
                 0.122                   1
 p    1 1.00
                 0.727                   1

16 0
 s    8 1.00
                  6665  0.00069158396281299
                  1000  0.0053257961529341
                   228   0.027060721042034
                 64.71    0.10165684614077
                 21.06     0.2745748236174
                 7.495    0.44829431892377
                 2.797    0.28490261071525
                0.5215   0.015194859206082
 s    8 1.00
                  6665  -0.00029326965268655
                  1000  -0.0023180354739745
                   228  -0.011499786038565
                 64.71  -0.046826727009787
                 21.06   -0.12846616875047
                 7.495   -0.30126627246289
                 2.797   -0.25563070233011
                0.5215      1.093793361012
 s    1 1.00
                0.1596                   1
 p    3 1.00
                 9.439   0.056979251590039
                 2.002    0.31320721150073
                0.5456    0.76037674173753
 p    1 1.00
                0.1517                   1
 d    1 1.00
                  0.55                   1

17 0
 s    3 1.00
                 13.01   0.033498726389998
                 1.962    0.23480080117413
                0.4446     0.8136829578829
 s    1 1.00
                 0.122                   1
 p    1 1.00
                 0.727                   1

18 0
 s    3 1.00
                 13.01   0.033498726389998
                 1.962    0.23480080117413
                0.4446     0.8136829578829
 s    1 1.00
                 0.122                   1
 p    1 1.00
                 0.727                   1

19 0
 s    8 1.00
                  6665  0.00069158396281299
                  1000  0.0053257961529341
                   228   0.027060721042034
                 64.71    0.10165684614077
                 21.06     0.2745748236174
                 7.495    0.44829431892377
                 2.797    0.28490261071525
                0.5215   0.015194859206082
 s    8 1.00
                  6665  -0.00029326965268655
                  1000  -0.0023180354739745
                   228  -0.011499786038565
                 64.71  -0.046826727009787
                 21.06   -0.12846616875047
                 7.495   -0.30126627246289
                 2.797   -0.25563070233011
                0.5215      1.093793361012
 s    1 1.00
                0.1596                   1
 p    3 1.00
                 9.439   0.056979251590039
                 2.002    0.31320721150073
                0.5456    0.76037674173753
 p    1 1.00
                0.1517                   1
 d    1 1.00
                  0.55                   1

20 0
 s    3 1.00
                 13.01   0.033498726389998
                 1.962    0.23480080117413
                0.4446     0.8136829578829
 s    1 1.00
                 0.122                   1
 p    1 1.00
                 0.727                   1

21 0
 s    8 1.00
                  6665  0.00069158396281299
                  1000  0.0053257961529341
                   228   0.027060721042034
                 64.71    0.10165684614077
                 21.06     0.2745748236174
                 7.495    0.44829431892377
                 2.797    0.28490261071525
                0.5215   0.015194859206082
 s    8 1.00
                  6665  -0.00029326965268655
                  1000  -0.0023180354739745
                   228  -0.011499786038565
                 64.71  -0.046826727009787
                 21.06   -0.12846616875047
                 7.495   -0.30126627246289
                 2.797   -0.25563070233011
                0.5215      1.093793361012
 s    1 1.00
                0.1596                   1
 p    3 1.00
                 9.439   0.056979251590039
                 2.002    0.31320721150073
                0.5456    0.76037674173753
 p    1 1.00
                0.1517                   1
 d    1 1.00
                  0.55                   1

22 0
 s    3 1.00
                 13.01   0.033498726389998
                 1.962    0.23480080117413
                0.4446     0.8136829578829
 s    1 1.00
                 0.122                   1
 p    1 1.00
                 0.727                   1

23 0
 s    3 1.00
                 13.01   0.033498726389998
                 1.962    0.23480080117413
                0.4446     0.8136829578829
 s    1 1.00
                 0.122                   1
 p    1 1.00
                 0.727                   1

24 0
 s    3 1.00
                 13.01   0.033498726389998
                 1.962    0.23480080117413
                0.4446     0.8136829578829
 s    1 1.00
                 0.122                   1
 p    1 1.00
                 0.727                   1

25 0
 s    8 1.00
                  6665  0.00069158396281299
                  1000  0.0053257961529341
                   228   0.027060721042034
                 64.71    0.10165684614077
                 21.06     0.2745748236174
                 7.495    0.44829431892377
                 2.797    0.28490261071525
                0.5215   0.015194859206082
 s    8 1.00
                  6665  -0.00029326965268655
                  1000  -0.0023180354739745
                   228  -0.011499786038565
                 64.71  -0.046826727009787
                 21.06   -0.12846616875047
                 7.495   -0.30126627246289
                 2.797   -0.25563070233011
                0.5215      1.093793361012
 s    1 1.00
                0.1596                   1
 p    3 1.00
                 9.439   0.056979251590039
                 2.002    0.31320721150073
                0.5456    0.76037674173753
 p    1 1.00
                0.1517                   1
 d    1 1.00
                  0.55                   1

26 0
 s    3 1.00
                 13.01   0.033498726389998
                 1.962    0.23480080117413
                0.4446     0.8136829578829
 s    1 1.00
                 0.122                   1
 p    1 1.00
                 0.727                   1

27 0
 s    3 1.00
                 13.01   0.033498726389998
                 1.962    0.23480080117413
                0.4446     0.8136829578829
 s    1 1.00
                 0.122                   1
 p    1 1.00
                 0.727                   1

28 0
 s    8 1.00
                  6665  0.00069158396281299
                  1000  0.0053257961529341
                   228   0.027060721042034
                 64.71    0.10165684614077
                 21.06     0.2745748236174
                 7.495    0.44829431892377
                 2.797    0.28490261071525
                0.5215   0.015194859206082
 s    8 1.00
                  6665  -0.00029326965268655
                  1000  -0.0023180354739745
                   228  -0.011499786038565
                 64.71  -0.046826727009787
                 21.06   -0.12846616875047
                 7.495   -0.30126627246289
                 2.797   -0.25563070233011
                0.5215      1.093793361012
 s    1 1.00
                0.1596                   1
 p    3 1.00
                 9.439   0.056979251590039
                 2.002    0.31320721150073
                0.5456    0.76037674173753
 p    1 1.00
                0.1517                   1
 d    1 1.00
                  0.55                   1

29 0
 s    3 1.00
                 13.01   0.033498726389998
                 1.962    0.23480080117413
                0.4446     0.8136829578829
 s    1 1.00
                 0.122                   1
 p    1 1.00
                 0.727                   1

30 0
 s    3 1.00
                 13.01   0.033498726389998
                 1.962    0.23480080117413
                0.4446     0.8136829578829
 s    1 1.00
                 0.122                   1
 p    1 1.00
                 0.727                   1

31 0
 s    8 1.00
                  6665  0.00069158396281299
                  1000  0.0053257961529341
                   228   0.027060721042034
                 64.71    0.10165684614077
                 21.06     0.2745748236174
                 7.495    0.44829431892377
                 2.797    0.28490261071525
                0.5215   0.015194859206082
 s    8 1.00
                  6665  -0.00029326965268655
                  1000  -0.0023180354739745
                   228  -0.011499786038565
                 64.71  -0.046826727009787
                 21.06   -0.12846616875047
                 7.495   -0.30126627246289
                 2.797   -0.25563070233011
                0.5215      1.093793361012
 s    1 1.00
                0.1596                   1
 p    3 1.00
                 9.439   0.056979251590039
                 2.002    0.31320721150073
                0.5456    0.76037674173753
 p    1 1.00
                0.1517                   1
 d    1 1.00
                  0.55                   1

32 0
 s    3 1.00
                 13.01   0.033498726389998
                 1.962    0.23480080117413
                0.4446     0.8136829578829
 s    1 1.00
                 0.122                   1
 p    1 1.00
                 0.727                   1

33 0
 s    3 1.00
                 13.01   0.033498726389998
                 1.962    0.23480080117413
                0.4446     0.8136829578829
 s    1 1.00
                 0.122                   1
 p    1 1.00
                 0.727                   1

34 0
 s    3 1.00
                 13.01   0.033498726389998
                 1.962    0.23480080117413
                0.4446     0.8136829578829
 s    1 1.00
                 0.122                   1
 p    1 1.00
                 0.727                   1

35 0
 s    3 1.00
                 13.01   0.033498726389998
                 1.962    0.23480080117413
                0.4446     0.8136829578829
 s    1 1.00
                 0.122                   1
 p    1 1.00
                 0.727                   1

36 0
 s    3 1.00
                 13.01   0.033498726389998
                 1.962    0.23480080117413
                0.4446     0.8136829578829
 s    1 1.00
                 0.122                   1
 p    1 1.00
                 0.727                   1

37 0
 s    3 1.00
                 13.01   0.033498726389998
                 1.962    0.23480080117413
                0.4446     0.8136829578829
 s    1 1.00
                 0.122                   1
 p    1 1.00
                 0.727                   1

[5d]
[7f]
[9g]

[MO]
 Sym= A
 Ene=               0
 Spin= Alpha
 Occup=    1.00000
   1    3.5377769151769e-05
   2    2.1571188663501e-05
   3    -8.1523753229618e-05
   4    7.2919791820801e-08
   5    -3.122333370708e-06
   6    -1.5584462521596e-07
   7    -4.6863158300553e-07
   8    1.7463228378685e-05
   9    5.9506319192475e-05
  10    -1.0849906458874e-05
  11    -1.3141865920776e-08
  12    7.5475587006643e-07
  13    -5.7436953146296e-07
  14    -3.0283095508386e-08
  15    1.0383024461149e-05
  16    0.00011891834045542
  17    6.0193397211949e-08
  18    -1.0984581600747e-06
  19    3.2947188259956e-05
  20    4.8667065603051e-06
  21    -4.7470691374641e-05
  22    -1.5705925351656e-07
  23    5.305254806183e-06
  24    -1.8216654218613e-06
  25      -1.0013608486955
  26    -0.0019494724617448
  27    0.0067796765603026
  28    4.6288559041548e-06
  29    -7.9208577772633e-06
  30    0.0016571726643477
  31    3.0292915756791e-07
  32    1.3009092074419e-06
  33    -0.0018210351079112
  34    -0.00012804521161945
  35    3.0016967315169e-06
  36    -1.3362028145259e-06
  37    -6.7581878059312e-05
  38    0.00017601940687198
  39    -0.00027300666961071
  40    -0.00037076372860645
  41    -0.0014066991773982
  42    -1.4991636806095e-05
  43    9.9463815126163e-06
  44    1.1325015125223e-05
  45    -8.1755259835251e-05
  46    6.3186387246325e-05
  47    -0.0035437851251209
  48    0.00053684322065197
  49    8.5091214235525e-06
  50    -2.4607152218447e-06
  51    -2.8628397045055e-05
  52    0.0001070952810286
  53    8.5040546431155e-05
  54    0.00016634448430601
  55    -0.0013685975442542
  56    -7.8101308350546e-05
  57    7.4675492275411e-06
  58    3.6117858148427e-05
  59    0.0004235092589261
  60    -0.00047635179593129
  61    0.00092452807579073
  62    0.00011775846367888
  63    -0.00015015479457441
  64    0.00014284275716959
  65    -5.5172266884809e-05
  66    0.0001302890466561
  67    4.0371476839035e-05
  68    9.8570376510108e-05
  69    -0.00051101720224628
  70    6.0804701871903e-05
  71    -3.9838291169668e-05
  72    6.2684887930979e-05
  73    -0.00099971161951918
  74    0.00077006356110741
  75    0.00063591429453287
  76    0.00014125168401741
  77    0.00012066111537026
  78    -8.9651428076057e-05
  79    -5.909489560824e-05
  80    0.00015211932894264
  81    6.4827664855626e-05
  82    -0.00020678456844492
  83    -6.5955390659882e-05
  84    4.8447048233089e-05
  85    -4.9042255054209e-05
  86    -2.4994498600286e-05
  87    -4.8969390367863e-05
  88    0.00060399221456653
  89    1.5878058112349e-05
  90    1.7091952511683e-05
  91    -1.2131128454103e-05
  92    -0.00025616216788001
  93    -0.00062391970430155
  94    1.8905189752282e-05
  95    -1.8022482162436e-05
  96    -1.1155286336506e-05
  97    -7.1963613206602e-06
  98    2.0688163906277e-05
  99    4.5545002709609e-05
 100    3.7052010029737e-05
 101    0.00015783860302945
 102    -9.3775552162816e-06
 103    9.7745791165835e-06
 104    -7.4322192198217e-05
 105    1.7863055006261e-05
 106    0.00020047015897653
 107    6.4451402161225e-05
 108    -1.1294165974893e-05
 109    -7.4540637323638e-05
 110    -7.7254003461397e-05
 111    5.8525302108768e-05
 112    4.5556783506877e-05
 113    -1.8387836427575e-05
 114    -6.9532102127548e-05
 115    4.9799983373187e-05
 116    0.0001013316711885
 117    -0.00084042763921281
 118    2.6148356048946e-05
 119    9.9550791941403e-06
 120    -3.2610495871663e-05
 121    -0.00029619750985958
 122    -2.9945467930378e-05
 123    0.00013547457551508
 124    6.4350313893348e-06
 125    -1.250490623874e-05
 126    -1.5786496450338e-05
 127    3.2137972353482e-05
 128    -4.9827644358751e-05
 129    1.8961722435886e-05
 130    0.0003213821057308
 131    -7.4894354452153e-06
 132    -5.8591279170422e-06
 133    -2.9158594205048e-05
 134    -2.5919506268575e-05
 135    0.00011849311065163
 136    1.3442910979224e-05
 137    2.4035731159355e-05
 138    2.6571626569314e-05
 139    2.112670997951e-05
 140    3.8502252812113e-05
 141    -0.00028639024231314
 142    -7.9442772661384e-06
 143    2.4679704331272e-06
 144    6.1765464558441e-06
 145    0.00022969525778659
 146    -5.1622519840151e-05
 147    -6.426208916309e-05
 148    2.378335910356e-06
 149    -3.0379854641102e-06
 150    3.4598595683846e-06
 151    -1.1911597894236e-05
 152    4.9693654180133e-06
 153    9.6894639070093e-05
 154    0.00011289875430541
 155    2.5832404588445e-05
 156    -2.9876375218791e-05
 157    -2.0410051751701e-05
 158    2.5761104978167e-05
 159    8.9562715548205e-05
 160    5.9417765009943e-05
 161    7.1344669040692e-06
 162    -6.1545112050251e-06
 163    2.3302648645395e-06
 164    6.1895151394887e-06
 165    0.00023853810952566
 166    1.7630644007997e-05
 167    -1.4170805365296e-05
 168    -6.7105052536844e-06
 169    -0.00023813933454801
 170    0.00021362688974752
 171    0.00013175130173626
 172    2.9365460201469e-06
 173    -1.0009639980317e-05
 174    1.3573466782862e-05
 175    -3.2867216695937e-06
 176    1.8315927273437e-05
 177    1.594671325222e-05
 178    -8.3443279433826e-05
 179    7.5458754565132e-07
 180    -1.9919508405633e-06
 181    4.977567710472e-06
 182    -1.5108530837062e-05
 183    -2.6842574563023e-05
 184    6.5348340061814e-05
 185    4.8423722461082e-06
 186    -3.4949483577295e-06
 187    -5.5827616812664e-06
 188    -0.00012636267273095
 189    0.00010219194334781
 190    8.4334987426153e-05
 191    -1.2909853325382e-06
 192    -1.9979802573899e-06
 193    7.6937898033128e-06
 194    3.0880052605285e-06
 195    5.0653971137512e-06
 196    1.3828187810399e-05
 197    1.8535190999561e-05
 198    -5.6454461664811e-06
 199    -1.9642713128117e-06
 200    3.579048788062e-06
 201    1.3369670394262e-05
 202    -3.848235520142e-06
 203    1.2978781457214e-05
 204    -1.0048342258206e-05
 205    -1.1797343149635e-05
 206    -8.3786713855587e-06
 207    -6.8187576482311e-05
 208    1.6203376502371e-05
 209    -3.9347577767598e-06
 210    -1.5565552152727e-05
 211    1.7816895300426e-05
 212    3.0864132551935e-05
 213    -0.0002544577821226
 214    -4.8690382656647e-06
 215    2.0655340170764e-06
 216    6.1887749924402e-06
 217    -0.00019582527201987
 218    5.3765340158732e-05
 219    7.6723304104014e-05
 220    2.0064408406485e-06
 221    1.6555563118637e-05
 222    -5.4942368916893e-06
 223    -9.2435585204582e-06
 224    1.7698985536408e-06
 225    -2.5246307555748e-05
 226    -5.4015246259607e-05
 227    1.2227410599933e-05
 228    1.880595814878e-06
 229    9.8904315220925e-07
 230    -9.6641610161325e-06
 231    -5.4378567997466e-05
 232    3.9497657079644e-06
 233    -6.2838132748099e-06
 234    -1.1950344390906e-05
 235    -3.934089187493e-07
 236    -6.4312996902009e-07
 237    7.8222103631607e-05
 238    -2.336609617702e-06
 239    -2.0016306522153e-06
 240    3.8007041506792e-06
 241    -3.5186600735647e-05
 242    6.2489620258393e-05
 243    -1.7747020134149e-05
 244    -1.8885459968687e-06
 245    -1.8028054946532e-06
 246    1.9226105893943e-06
 247    -1.7362769319658e-07
 248    -9.2825341423238e-07
 249    1.7962836479881e-05
 250    -1.3334818186118e-05
 251    4.6009403755778e-06
 252    9.7224470314379e-07
 253    2.3094978745634e-07
 254    1.5855746157381e-05
 255    -5.599045878777e-05
 256    1.014355510083e-07
 257    -4.4317923095252e-06
 258    9.1966340974685e-07
 259    1.1113412788926e-05
 260    1.9791200994965e-05
 261    -8.040098918982e-05
 262    3.2617321520236e-06
 263    -1.2495005199134e-06