[Molden Format]
made by pyscf v[2.0.1]
[Atoms] (AU)
O   1   8     0.00000000000000     0.00000000000000     6.78435311142442
H   2   1     0.00000000000000     0.00000000000000     4.96095128952346
H   3   1    -0.05031916615174     1.78353065140343     7.16022480789109
O   4   8     0.00000000000000     0.00000000000000     2.31533471513237
C   5   6     0.00000000000000     0.00000000000000     0.00000000000000
C   6   6     2.01118073026938    -1.40227222164369    -1.50774939176400
C   7   6    -2.01249334291722     1.41331050329955    -1.50315905028694
H   8   1     3.32037363730244    -2.26721897153159    -0.13599698591495
C   9   6     3.45899267434009     0.28739631745591    -3.37437943254505
H   10   1     1.07662969841332    -2.94725144642667    -2.56541439481080
H   11   1    -2.67503415753480     0.18421555839588    -3.06194479365997
H   12   1    -1.07974048864772     3.03851734677796    -2.43674295017013
C   13   6    -4.21607110578555     2.32938802552922     0.11994162256091
H   14   1     4.24440173074564     1.93368664142019    -2.34976285512790
H   15   1     2.15020713235517     1.04714335134846    -4.81494497423699
C   16   6     5.60746363007797    -1.12419643481196    -4.70268606082550
H   17   1    -3.46838323670267     3.50951302338067     1.66946842715333
H   18   1    -5.11873485366228     0.68575958301209     1.04047743976495
C   19   6    -6.18314754751344     3.80909592987882    -1.39656589068747
H   20   1     6.93011263717176    -1.87550812453645    -3.26656317360070
C   21   6     7.06356622236532     0.52877932406334    -6.57829775293605
H   22   1     4.82318879258361    -2.78573437948532    -5.70504560381835
H   23   1    -6.91582688743803     2.61304780074712    -2.95074552451969
H   24   1    -5.26532430573853     5.45420349051338    -2.31005832200284
C   25   6    -8.39941882261433     4.73263980500213     0.21800571437956
H   26   1     7.83338371486801     2.19084139882824    -5.57093109900697
H   27   1     5.73544244039420     1.27376866537418    -8.01071492370229
C   28   6     9.21124858443101    -0.89699110072176    -7.88926949186242
H   29   1    -7.66272760055236     5.92277078003992     1.77035591474408
H   30   1    -9.31497248082589     3.08753015622020     1.12614408368786
C   31   6   -10.35481709231879     6.21833079391143    -1.30905206253246
H   32   1    10.58815905329501    -1.61074586756696    -6.49512691622620
H   33   1    10.23506248045667     0.32468009384095    -9.23072870921204
H   34   1     8.47665842847139    -2.53598436989925    -8.94921964622535
H   35   1    -9.48948872868064     7.90013588951020    -2.18823918416067
H   36   1   -11.93332513000955     6.86460487874102    -0.11255798845995
H   37   1   -11.15126291841033     5.04495968327630    -2.83849898862534
[GTO]
1 0
 s    8 1.00
                 11720  0.00070964594651845
                  1759  0.0054672722921914
                 400.8   0.027823118610189
                 113.7    0.10474773971146
                 37.03    0.28292084635691
                 13.27    0.44849523869833
                 5.025    0.27081688521277
                 1.013    0.01545029160744
 s    8 1.00
                 11720  -0.00031444341168873
                  1759  -0.0024821376810179
                 400.8  -0.012316355381583
                 113.7  -0.050538917343672
                 37.03   -0.13938490331632
                 13.27   -0.32507749481778
                 5.025   -0.22984830758785
                 1.013     1.0953793467883
 s    1 1.00
                0.3023                   1
 p    3 1.00
                  17.7   0.062679166281506
                 3.854    0.33353656587936
                 1.046    0.74123964163973
 p    1 1.00
                0.2753                   1
 d    1 1.00
                 1.185                   1

2 0
 s    3 1.00
                 13.01   0.033498726389998
                 1.962    0.23480080117413
                0.4446     0.8136829578829
 s    1 1.00
                 0.122                   1
 p    1 1.00
                 0.727                   1

3 0
 s    3 1.00
                 13.01   0.033498726389998
                 1.962    0.23480080117413
                0.4446     0.8136829578829
 s    1 1.00
                 0.122                   1
 p    1 1.00
                 0.727                   1

4 0
 s    8 1.00
                 11720  0.00070964594651845
                  1759  0.0054672722921914
                 400.8   0.027823118610189
                 113.7    0.10474773971146
                 37.03    0.28292084635691
                 13.27    0.44849523869833
                 5.025    0.27081688521277
                 1.013    0.01545029160744
 s    8 1.00
                 11720  -0.00031444341168873
                  1759  -0.0024821376810179
                 400.8  -0.012316355381583
                 113.7  -0.050538917343672
                 37.03   -0.13938490331632
                 13.27   -0.32507749481778
                 5.025   -0.22984830758785
                 1.013     1.0953793467883
 s    1 1.00
                0.3023                   1
 p    3 1.00
                  17.7   0.062679166281506
                 3.854    0.33353656587936
                 1.046    0.74123964163973
 p    1 1.00
                0.2753                   1
 d    1 1.00
                 1.185                   1

5 0
 s    8 1.00
                  6665  0.00069158396281299
                  1000  0.0053257961529341
                   228   0.027060721042034
                 64.71    0.10165684614077
                 21.06     0.2745748236174
                 7.495    0.44829431892377
                 2.797    0.28490261071525
                0.5215   0.015194859206082
 s    8 1.00
                  6665  -0.00029326965268655
                  1000  -0.0023180354739745
                   228  -0.011499786038565
                 64.71  -0.046826727009787
                 21.06   -0.12846616875047
                 7.495   -0.30126627246289
                 2.797   -0.25563070233011
                0.5215      1.093793361012
 s    1 1.00
                0.1596                   1
 p    3 1.00
                 9.439   0.056979251590039
                 2.002    0.31320721150073
                0.5456    0.76037674173753
 p    1 1.00
                0.1517                   1
 d    1 1.00
                  0.55                   1

6 0
 s    8 1.00
                  6665  0.00069158396281299
                  1000  0.0053257961529341
                   228   0.027060721042034
                 64.71    0.10165684614077
                 21.06     0.2745748236174
                 7.495    0.44829431892377
                 2.797    0.28490261071525
                0.5215   0.015194859206082
 s    8 1.00
                  6665  -0.00029326965268655
                  1000  -0.0023180354739745
                   228  -0.011499786038565
                 64.71  -0.046826727009787
                 21.06   -0.12846616875047
                 7.495   -0.30126627246289
                 2.797   -0.25563070233011
                0.5215      1.093793361012
 s    1 1.00
                0.1596                   1
 p    3 1.00
                 9.439   0.056979251590039
                 2.002    0.31320721150073
                0.5456    0.76037674173753
 p    1 1.00
                0.1517                   1
 d    1 1.00
                  0.55                   1

7 0
 s    8 1.00
                  6665  0.00069158396281299
                  1000  0.0053257961529341
                   228   0.027060721042034
                 64.71    0.10165684614077
                 21.06     0.2745748236174
                 7.495    0.44829431892377
                 2.797    0.28490261071525
                0.5215   0.015194859206082
 s    8 1.00
                  6665  -0.00029326965268655
                  1000  -0.0023180354739745
                   228  -0.011499786038565
                 64.71  -0.046826727009787
                 21.06   -0.12846616875047
                 7.495   -0.30126627246289
                 2.797   -0.25563070233011
                0.5215      1.093793361012
 s    1 1.00
                0.1596                   1
 p    3 1.00
                 9.439   0.056979251590039
                 2.002    0.31320721150073
                0.5456    0.76037674173753
 p    1 1.00
                0.1517                   1
 d    1 1.00
                  0.55                   1

8 0
 s    3 1.00
                 13.01   0.033498726389998
                 1.962    0.23480080117413
                0.4446     0.8136829578829
 s    1 1.00
                 0.122                   1
 p    1 1.00
                 0.727                   1

9 0
 s    8 1.00
                  6665  0.00069158396281299
                  1000  0.0053257961529341
                   228   0.027060721042034
                 64.71    0.10165684614077
                 21.06     0.2745748236174
                 7.495    0.44829431892377
                 2.797    0.28490261071525
                0.5215   0.015194859206082
 s    8 1.00
                  6665  -0.00029326965268655
                  1000  -0.0023180354739745
                   228  -0.011499786038565
                 64.71  -0.046826727009787
                 21.06   -0.12846616875047
                 7.495   -0.30126627246289
                 2.797   -0.25563070233011
                0.5215      1.093793361012
 s    1 1.00
                0.1596                   1
 p    3 1.00
                 9.439   0.056979251590039
                 2.002    0.31320721150073
                0.5456    0.76037674173753
 p    1 1.00
                0.1517                   1
 d    1 1.00
                  0.55                   1

10 0
 s    3 1.00
                 13.01   0.033498726389998
                 1.962    0.23480080117413
                0.4446     0.8136829578829
 s    1 1.00
                 0.122                   1
 p    1 1.00
                 0.727                   1

11 0
 s    3 1.00
                 13.01   0.033498726389998
                 1.962    0.23480080117413
                0.4446     0.8136829578829
 s    1 1.00
                 0.122                   1
 p    1 1.00
                 0.727                   1

12 0
 s    3 1.00
                 13.01   0.033498726389998
                 1.962    0.23480080117413
                0.4446     0.8136829578829
 s    1 1.00
                 0.122                   1
 p    1 1.00
                 0.727                   1

13 0
 s    8 1.00
                  6665  0.00069158396281299
                  1000  0.0053257961529341
                   228   0.027060721042034
                 64.71    0.10165684614077
                 21.06     0.2745748236174
                 7.495    0.44829431892377
                 2.797    0.28490261071525
                0.5215   0.015194859206082
 s    8 1.00
                  6665  -0.00029326965268655
                  1000  -0.0023180354739745
                   228  -0.011499786038565
                 64.71  -0.046826727009787
                 21.06   -0.12846616875047
                 7.495   -0.30126627246289
                 2.797   -0.25563070233011
                0.5215      1.093793361012
 s    1 1.00
                0.1596                   1
 p    3 1.00
                 9.439   0.056979251590039
                 2.002    0.31320721150073
                0.5456    0.76037674173753
 p    1 1.00
                0.1517                   1
 d    1 1.00
                  0.55                   1

14 0
 s    3 1.00
                 13.01   0.033498726389998
                 1.962    0.23480080117413
                0.4446     0.8136829578829
 s    1 1.00
                 0.122                   1
 p    1 1.00
                 0.727                   1

15 0
 s    3 1.00
                 13.01   0.033498726389998
                 1.962    0.23480080117413
                0.4446     0.8136829578829
 s    1 1.00
                 0.122                   1
 p    1 1.00
                 0.727                   1

16 0
 s    8 1.00
                  6665  0.00069158396281299
                  1000  0.0053257961529341
                   228   0.027060721042034
                 64.71    0.10165684614077
                 21.06     0.2745748236174
                 7.495    0.44829431892377
                 2.797    0.28490261071525
                0.5215   0.015194859206082
 s    8 1.00
                  6665  -0.00029326965268655
                  1000  -0.0023180354739745
                   228  -0.011499786038565
                 64.71  -0.046826727009787
                 21.06   -0.12846616875047
                 7.495   -0.30126627246289
                 2.797   -0.25563070233011
                0.5215      1.093793361012
 s    1 1.00
                0.1596                   1
 p    3 1.00
                 9.439   0.056979251590039
                 2.002    0.31320721150073
                0.5456    0.76037674173753
 p    1 1.00
                0.1517                   1
 d    1 1.00
                  0.55                   1

17 0
 s    3 1.00
                 13.01   0.033498726389998
                 1.962    0.23480080117413
                0.4446     0.8136829578829
 s    1 1.00
                 0.122                   1
 p    1 1.00
                 0.727                   1

18 0
 s    3 1.00
                 13.01   0.033498726389998
                 1.962    0.23480080117413
                0.4446     0.8136829578829
 s    1 1.00
                 0.122                   1
 p    1 1.00
                 0.727                   1

19 0
 s    8 1.00
                  6665  0.00069158396281299
                  1000  0.0053257961529341
                   228   0.027060721042034
                 64.71    0.10165684614077
                 21.06     0.2745748236174
                 7.495    0.44829431892377
                 2.797    0.28490261071525
                0.5215   0.015194859206082
 s    8 1.00
                  6665  -0.00029326965268655
                  1000  -0.0023180354739745
                   228  -0.011499786038565
                 64.71  -0.046826727009787
                 21.06   -0.12846616875047
                 7.495   -0.30126627246289
                 2.797   -0.25563070233011
                0.5215      1.093793361012
 s    1 1.00
                0.1596                   1
 p    3 1.00
                 9.439   0.056979251590039
                 2.002    0.31320721150073
                0.5456    0.76037674173753
 p    1 1.00
                0.1517                   1
 d    1 1.00
                  0.55                   1

20 0
 s    3 1.00
                 13.01   0.033498726389998
                 1.962    0.23480080117413
                0.4446     0.8136829578829
 s    1 1.00
                 0.122                   1
 p    1 1.00
                 0.727                   1

21 0
 s    8 1.00
                  6665  0.00069158396281299
                  1000  0.0053257961529341
                   228   0.027060721042034
                 64.71    0.10165684614077
                 21.06     0.2745748236174
                 7.495    0.44829431892377
                 2.797    0.28490261071525
                0.5215   0.015194859206082
 s    8 1.00
                  6665  -0.00029326965268655
                  1000  -0.0023180354739745
                   228  -0.011499786038565
                 64.71  -0.046826727009787
                 21.06   -0.12846616875047
                 7.495   -0.30126627246289
                 2.797   -0.25563070233011
                0.5215      1.093793361012
 s    1 1.00
                0.1596                   1
 p    3 1.00
                 9.439   0.056979251590039
                 2.002    0.31320721150073
                0.5456    0.76037674173753
 p    1 1.00
                0.1517                   1
 d    1 1.00
                  0.55                   1

22 0
 s    3 1.00
                 13.01   0.033498726389998
                 1.962    0.23480080117413
                0.4446     0.8136829578829
 s    1 1.00
                 0.122                   1
 p    1 1.00
                 0.727                   1

23 0
 s    3 1.00
                 13.01   0.033498726389998
                 1.962    0.23480080117413
                0.4446     0.8136829578829
 s    1 1.00
                 0.122                   1
 p    1 1.00
                 0.727                   1

24 0
 s    3 1.00
                 13.01   0.033498726389998
                 1.962    0.23480080117413
                0.4446     0.8136829578829
 s    1 1.00
                 0.122                   1
 p    1 1.00
                 0.727                   1

25 0
 s    8 1.00
                  6665  0.00069158396281299
                  1000  0.0053257961529341
                   228   0.027060721042034
                 64.71    0.10165684614077
                 21.06     0.2745748236174
                 7.495    0.44829431892377
                 2.797    0.28490261071525
                0.5215   0.015194859206082
 s    8 1.00
                  6665  -0.00029326965268655
                  1000  -0.0023180354739745
                   228  -0.011499786038565
                 64.71  -0.046826727009787
                 21.06   -0.12846616875047
                 7.495   -0.30126627246289
                 2.797   -0.25563070233011
                0.5215      1.093793361012
 s    1 1.00
                0.1596                   1
 p    3 1.00
                 9.439   0.056979251590039
                 2.002    0.31320721150073
                0.5456    0.76037674173753
 p    1 1.00
                0.1517                   1
 d    1 1.00
                  0.55                   1

26 0
 s    3 1.00
                 13.01   0.033498726389998
                 1.962    0.23480080117413
                0.4446     0.8136829578829
 s    1 1.00
                 0.122                   1
 p    1 1.00
                 0.727                   1

27 0
 s    3 1.00
                 13.01   0.033498726389998
                 1.962    0.23480080117413
                0.4446     0.8136829578829
 s    1 1.00
                 0.122                   1
 p    1 1.00
                 0.727                   1

28 0
 s    8 1.00
                  6665  0.00069158396281299
                  1000  0.0053257961529341
                   228   0.027060721042034
                 64.71    0.10165684614077
                 21.06     0.2745748236174
                 7.495    0.44829431892377
                 2.797    0.28490261071525
                0.5215   0.015194859206082
 s    8 1.00
                  6665  -0.00029326965268655
                  1000  -0.0023180354739745
                   228  -0.011499786038565
                 64.71  -0.046826727009787
                 21.06   -0.12846616875047
                 7.495   -0.30126627246289
                 2.797   -0.25563070233011
                0.5215      1.093793361012
 s    1 1.00
                0.1596                   1
 p    3 1.00
                 9.439   0.056979251590039
                 2.002    0.31320721150073
                0.5456    0.76037674173753
 p    1 1.00
                0.1517                   1
 d    1 1.00
                  0.55                   1

29 0
 s    3 1.00
                 13.01   0.033498726389998
                 1.962    0.23480080117413
                0.4446     0.8136829578829
 s    1 1.00
                 0.122                   1
 p    1 1.00
                 0.727                   1

30 0
 s    3 1.00
                 13.01   0.033498726389998
                 1.962    0.23480080117413
                0.4446     0.8136829578829
 s    1 1.00
                 0.122                   1
 p    1 1.00
                 0.727                   1

31 0
 s    8 1.00
                  6665  0.00069158396281299
                  1000  0.0053257961529341
                   228   0.027060721042034
                 64.71    0.10165684614077
                 21.06     0.2745748236174
                 7.495    0.44829431892377
                 2.797    0.28490261071525
                0.5215   0.015194859206082
 s    8 1.00
                  6665  -0.00029326965268655
                  1000  -0.0023180354739745
                   228  -0.011499786038565
                 64.71  -0.046826727009787
                 21.06   -0.12846616875047
                 7.495   -0.30126627246289
                 2.797   -0.25563070233011
                0.5215      1.093793361012
 s    1 1.00
                0.1596                   1
 p    3 1.00
                 9.439   0.056979251590039
                 2.002    0.31320721150073
                0.5456    0.76037674173753
 p    1 1.00
                0.1517                   1
 d    1 1.00
                  0.55                   1

32 0
 s    3 1.00
                 13.01   0.033498726389998
                 1.962    0.23480080117413
                0.4446     0.8136829578829
 s    1 1.00
                 0.122                   1
 p    1 1.00
                 0.727                   1

33 0
 s    3 1.00
                 13.01   0.033498726389998
                 1.962    0.23480080117413
                0.4446     0.8136829578829
 s    1 1.00
                 0.122                   1
 p    1 1.00
                 0.727                   1

34 0
 s    3 1.00
                 13.01   0.033498726389998
                 1.962    0.23480080117413
                0.4446     0.8136829578829
 s    1 1.00
                 0.122                   1
 p    1 1.00
                 0.727                   1

35 0
 s    3 1.00
                 13.01   0.033498726389998
                 1.962    0.23480080117413
                0.4446     0.8136829578829
 s    1 1.00
                 0.122                   1
 p    1 1.00
                 0.727                   1

36 0
 s    3 1.00
                 13.01   0.033498726389998
                 1.962    0.23480080117413
                0.4446     0.8136829578829
 s    1 1.00
                 0.122                   1
 p    1 1.00
                 0.727                   1

37 0
 s    3 1.00
                 13.01   0.033498726389998
                 1.962    0.23480080117413
                0.4446     0.8136829578829
 s    1 1.00
                 0.122                   1
 p    1 1.00
                 0.727                   1

[5d]
[7f]
[9g]

[MO]
 Sym= A
 Ene=               0
 Spin= Alpha
 Occup=    1.00000
   1    -3.4319713025321e-06
   2    -1.605973112543e-06
   3    2.7459096552518e-05
   4    -4.3106161358268e-06
   5    8.3883900503105e-06
   6    -7.7228559267536e-06
   7    -1.5334427601081e-06
   8    6.9051997449558e-07
   9    -1.7595853625764e-05
  10    2.8783894821603e-06
  11    3.4064680503612e-07
  12    -5.8510925227549e-07
  13    -1.9895461694339e-07
  14    2.9640579418794e-08
  15    9.6610812042368e-06
  16    -3.2679839678748e-05
  17    1.7403231116439e-06
  18    -1.4987654113045e-06
  19    -9.7948157261426e-06
  20    6.6030504598674e-06
  21    5.1006536351637e-06
  22    -2.7176016815604e-07
  23    -8.0000173984836e-07
  24    -2.0133623840558e-07
  25    1.0084375064482e-05
  26    2.1603566161068e-05
  27    5.9292809884078e-05
  28    -4.4162155815892e-06
  29    -1.6094006446533e-05
  30    -7.1510474305861e-06
  31    -3.0607404904988e-05
  32    1.0048498541481e-05
  33    -2.125878857377e-05
  34    1.5661893218783e-06
  35    1.8668117901736e-06
  36    -7.5874279634951e-07
  37    -3.4453493601765e-06
  38    5.3090514597979e-06
  39    4.0127680834729e-05
  40    0.00011315593381192
  41    -0.00027375679674725
  42    -7.1323583354311e-05
  43    4.9459631848823e-05
  44    -4.1928193876879e-05
  45    0.0004394888244203
  46    -0.00028881077368215
  47    5.6908461076503e-06
  48    -1.3293045971799e-06
  49    -2.1433204421968e-05
  50    1.3941810581181e-05
  51    -1.2051970948683e-05
  52    2.3771784108634e-05
  53    4.7346621009179e-05
  54    6.1919242944805e-05
  55    -0.00041985787694739
  56    2.1137475813731e-05
  57    -1.0579854516217e-05
  58    -2.5145646654135e-05
  59    0.00015257181413673
  60    -0.0001604142482701
  61    -0.00014194977848847
  62    -2.0958496643521e-06
  63    1.2524148370816e-05
  64    -7.1851052239026e-06
  65    -5.3465035931437e-06
  66    5.3592089950744e-06
  67    8.1890468363437e-05
  68    2.2293671994204e-06
  69    5.881191286498e-05
  70    0.00012407024842805
  71    -4.7487723670288e-05
  72    -0.00011206244251503
  73    0.00067697558611335
  74    -0.00036806131171597
  75    7.5942312781435e-05
  76    -1.7026037138193e-05
  77    5.1205801667287e-05
  78    -2.1135796737226e-05
  79    -1.7381364030169e-06
  80    -1.2957637061947e-05
  81    2.650662750878e-05
  82    -2.3130569681416e-05
  83    6.330502157571e-06
  84    -1.540030370419e-06
  85    1.5156204197024e-06
  86    4.6810452515502e-06
  87    6.8835127167864e-06
  88    0.00012473976341686
  89    -1.6028558716374e-05
  90    -1.9581883521067e-06
  91    6.9278397514977e-06
  92    7.5045382107187e-05
  93    -4.5707366524096e-05
  94    3.9199010238843e-05
  95    -1.4060672342793e-06
  96    -7.7822328194822e-06
  97    3.3260955383977e-06
  98    2.2716977513426e-06
  99    1.4680365389122e-07
 100    1.7597824627195e-05
 101    -1.1946535386616e-05
 102    -7.8192345311735e-06
 103    4.8263639488748e-06
 104     3.67253050125e-06
 105    5.265815005732e-05
 106    -3.9076074805392e-05
 107    -2.0213130673217e-05
 108    1.8104362315212e-05
 109    -1.2005008467277e-05
 110    4.6405964129498e-05
 111    -5.6650593154641e-05
 112    -2.0637470831255e-05
 113    8.4857049576108e-06
 114    -1.3612260387685e-05
 115    -6.7106094513957e-05
 116    0.0003023224426709
 117    -0.00074761831253035
 118    -0.00036299398793853
 119    0.00027394301398776
 120    -0.00031003387065149
 121    0.00049584855880662
 122    -0.00033860133306572
 123    2.4380681572107e-05
 124    2.6947908245568e-05
 125    -5.5316904461359e-06
 126    2.2023929861542e-06
 127    -5.4682497634426e-06
 128    8.6491937235698e-06
 129    -3.4645293210308e-06
 130    -1.869471464559e-06
 131    -7.5672134550431e-06
 132    2.3481903389263e-06
 133    -9.9104723433091e-07
 134    2.0594267203897e-05
 135    3.7269901245752e-05
 136    4.8799094271198e-06
 137    -1.7880097011429e-06
 138    3.2194010287915e-06
 139    8.8678137966566e-06
 140    1.4167069923359e-05
 141    -0.00011105408834287
 142    4.3753101932058e-06
 143    -4.2730532554352e-06
 144    1.8372552452899e-06
 145    5.8773455759991e-05
 146    -1.7070114763611e-05
 147    -9.5523017047024e-05
 148    -5.796869130126e-07
 149    5.0777649665195e-06
 150    -3.8674513317458e-06
 151    -1.666309824706e-06
 152    4.3351859389998e-06
 153    -2.0514025529872e-05
 154    7.9815828643068e-06
 155    -3.7076945389322e-05
 156    2.4029582247865e-05
 157    -8.8130354853977e-06
 158    -3.6282952479683e-05
 159    -5.55734582354e-05
 160    -3.4653332940993e-05
 161    2.185204501775e-05
 162    -7.9416499211608e-06
 163    0.00074350819433583
 164    0.00042882745207018
 165    -3.283044044644e-05
 166    0.00061167861993556
 167    -0.00024063012626635
 168    -0.00052525351733193
 169    0.0016708644802137
 170    -0.001011971801289
 171    0.00018144757151854
 172    -5.636406024461e-05
 173    0.00017533751987518
 174    -1.7897853506811e-05
 175    -7.9798903046924e-05
 176    9.0471887684365e-06
 177    1.1507801942633e-05
 178    1.8923508042177e-05
 179    -2.9074339493854e-06
 180    -1.313012222669e-07
 181    2.2830869510081e-06
 182    6.4273284710023e-07
 183    1.3854603007025e-06
 184    -1.4957172966134e-05
 185    2.7000649294997e-07
 186    -1.213532240086e-06
 187    -4.5989914130176e-07
 188    1.1394921894445e-05
 189    1.3669036763244e-05
 190    1.332396412924e-06
 191    1.0236932363649e-06
 192    2.2688920904325e-07
 193    7.2155673914485e-07
 194    6.0376947908025e-07
 195    -2.1706250293679e-06
 196    1.8971350822526e-06
 197    -1.7913795109939e-05
 198    -1.9085509165279e-06
 199    -2.4730024428382e-06
 200    2.6722788879898e-06
 201    0.00043518251530288
 202    0.0002939130314112
 203    -5.5573846674762e-05
 204    8.7206260536724e-05
 205    -9.1994988204403e-06
 206    0.00029319328071951
 207    6.3650364711689e-05
 208    -9.7857551994681e-05
 209     3.50466336099e-06
 210    -3.0480640088456e-05
 211    -0.0027386114893979
 212    -0.0014973002529047
 213    -0.0022705978870669
 214    -0.00046316414519393
 215    0.0017971167248536
 216    -0.0015159955269347
 217    0.00090451069090134
 218    0.00013260178071669
 219    -0.00043514120819552
 220    2.4804338876177e-05
 221    0.00015970547945363
 222    -8.4863794550096e-05
 223    0.00011031238691567
 224    -0.00026562295262208
 225    -7.8065742980611e-07
 226    -7.3371481372795e-06
 227    -1.056520495788e-07
 228    -4.310706899347e-07
 229    3.6520377089436e-07
 230    8.8713285174383e-07
 231    -9.1836479301629e-08
 232    -2.0099931645582e-07
 233    -6.0042178905463e-07
 234    -6.4467227405194e-07
 235    3.2626172231841e-06
 236    5.5368722441312e-06
 237    -1.1300422724917e-05
 238    -5.2722208186377e-07
 239    -9.1601529149111e-07
 240    8.9885672943241e-07
 241    1.1881836790193e-05
 242    7.4857811267311e-06
 243    -1.5773653869657e-05
 244    -1.6105814710095e-07
 245    1.4928238836069e-06
 246    -5.6053520520959e-07
 247    -1.3587259171721e-07
 248    -1.1552543137249e-07
 249    -0.00084531634034436
 250    -0.00028025405655643
 251    5.5839492604783e-05
 252    0.00010015450107077
 253    9.054137533171e-05
 254    -0.0023541546195118
 255    -0.00094728412813348
 256    -0.00010322694528082
 257    -0.00017446369612871
 258    0.00011397617806513
 259      -1.0023857571791
 260    -0.0042442775013544
 261     0.010255353082609
 262     0.000936154570994