[Molden Format]
made by pyscf v[2.0.1]
[Atoms] (AU)
O   1   8     0.00000000000000     0.00000000000000    10.94175058546756
H   2   1     0.00000000000000     0.00000000000000     9.11834876356659
H   3   1    -0.05031916615174     1.78353065140343    11.31762228193423
O   4   8     0.00000000000000     0.00000000000000     2.31533471513237
C   5   6     0.00000000000000     0.00000000000000     0.00000000000000
C   6   6     2.01118073026938    -1.40227222164369    -1.50774939176400
C   7   6    -2.01249334291722     1.41331050329955    -1.50315905028694
H   8   1     3.32037363730244    -2.26721897153159    -0.13599698591495
C   9   6     3.45899267434009     0.28739631745591    -3.37437943254505
H   10   1     1.07662969841332    -2.94725144642667    -2.56541439481080
H   11   1    -2.67503415753480     0.18421555839588    -3.06194479365997
H   12   1    -1.07974048864772     3.03851734677796    -2.43674295017013
C   13   6    -4.21607110578555     2.32938802552922     0.11994162256091
H   14   1     4.24440173074564     1.93368664142019    -2.34976285512790
H   15   1     2.15020713235517     1.04714335134846    -4.81494497423699
C   16   6     5.60746363007797    -1.12419643481196    -4.70268606082550
H   17   1    -3.46838323670267     3.50951302338067     1.66946842715333
H   18   1    -5.11873485366228     0.68575958301209     1.04047743976495
C   19   6    -6.18314754751344     3.80909592987882    -1.39656589068747
H   20   1     6.93011263717176    -1.87550812453645    -3.26656317360070
C   21   6     7.06356622236532     0.52877932406334    -6.57829775293605
H   22   1     4.82318879258361    -2.78573437948532    -5.70504560381835
H   23   1    -6.91582688743803     2.61304780074712    -2.95074552451969
H   24   1    -5.26532430573853     5.45420349051338    -2.31005832200284
C   25   6    -8.39941882261433     4.73263980500213     0.21800571437956
H   26   1     7.83338371486801     2.19084139882824    -5.57093109900697
H   27   1     5.73544244039420     1.27376866537418    -8.01071492370229
C   28   6     9.21124858443101    -0.89699110072176    -7.88926949186242
H   29   1    -7.66272760055236     5.92277078003992     1.77035591474408
H   30   1    -9.31497248082589     3.08753015622020     1.12614408368786
C   31   6   -10.35481709231879     6.21833079391143    -1.30905206253246
H   32   1    10.58815905329501    -1.61074586756696    -6.49512691622620
H   33   1    10.23506248045667     0.32468009384095    -9.23072870921204
H   34   1     8.47665842847139    -2.53598436989925    -8.94921964622535
H   35   1    -9.48948872868064     7.90013588951020    -2.18823918416067
H   36   1   -11.93332513000955     6.86460487874102    -0.11255798845995
H   37   1   -11.15126291841033     5.04495968327630    -2.83849898862534
[GTO]
1 0
 s    8 1.00
                 11720  0.00070964594651845
                  1759  0.0054672722921914
                 400.8   0.027823118610189
                 113.7    0.10474773971146
                 37.03    0.28292084635691
                 13.27    0.44849523869833
                 5.025    0.27081688521277
                 1.013    0.01545029160744
 s    8 1.00
                 11720  -0.00031444341168873
                  1759  -0.0024821376810179
                 400.8  -0.012316355381583
                 113.7  -0.050538917343672
                 37.03   -0.13938490331632
                 13.27   -0.32507749481778
                 5.025   -0.22984830758785
                 1.013     1.0953793467883
 s    1 1.00
                0.3023                   1
 p    3 1.00
                  17.7   0.062679166281506
                 3.854    0.33353656587936
                 1.046    0.74123964163973
 p    1 1.00
                0.2753                   1
 d    1 1.00
                 1.185                   1

2 0
 s    3 1.00
                 13.01   0.033498726389998
                 1.962    0.23480080117413
                0.4446     0.8136829578829
 s    1 1.00
                 0.122                   1
 p    1 1.00
                 0.727                   1

3 0
 s    3 1.00
                 13.01   0.033498726389998
                 1.962    0.23480080117413
                0.4446     0.8136829578829
 s    1 1.00
                 0.122                   1
 p    1 1.00
                 0.727                   1

4 0
 s    8 1.00
                 11720  0.00070964594651845
                  1759  0.0054672722921914
                 400.8   0.027823118610189
                 113.7    0.10474773971146
                 37.03    0.28292084635691
                 13.27    0.44849523869833
                 5.025    0.27081688521277
                 1.013    0.01545029160744
 s    8 1.00
                 11720  -0.00031444341168873
                  1759  -0.0024821376810179
                 400.8  -0.012316355381583
                 113.7  -0.050538917343672
                 37.03   -0.13938490331632
                 13.27   -0.32507749481778
                 5.025   -0.22984830758785
                 1.013     1.0953793467883
 s    1 1.00
                0.3023                   1
 p    3 1.00
                  17.7   0.062679166281506
                 3.854    0.33353656587936
                 1.046    0.74123964163973
 p    1 1.00
                0.2753                   1
 d    1 1.00
                 1.185                   1

5 0
 s    8 1.00
                  6665  0.00069158396281299
                  1000  0.0053257961529341
                   228   0.027060721042034
                 64.71    0.10165684614077
                 21.06     0.2745748236174
                 7.495    0.44829431892377
                 2.797    0.28490261071525
                0.5215   0.015194859206082
 s    8 1.00
                  6665  -0.00029326965268655
                  1000  -0.0023180354739745
                   228  -0.011499786038565
                 64.71  -0.046826727009787
                 21.06   -0.12846616875047
                 7.495   -0.30126627246289
                 2.797   -0.25563070233011
                0.5215      1.093793361012
 s    1 1.00
                0.1596                   1
 p    3 1.00
                 9.439   0.056979251590039
                 2.002    0.31320721150073
                0.5456    0.76037674173753
 p    1 1.00
                0.1517                   1
 d    1 1.00
                  0.55                   1

6 0
 s    8 1.00
                  6665  0.00069158396281299
                  1000  0.0053257961529341
                   228   0.027060721042034
                 64.71    0.10165684614077
                 21.06     0.2745748236174
                 7.495    0.44829431892377
                 2.797    0.28490261071525
                0.5215   0.015194859206082
 s    8 1.00
                  6665  -0.00029326965268655
                  1000  -0.0023180354739745
                   228  -0.011499786038565
                 64.71  -0.046826727009787
                 21.06   -0.12846616875047
                 7.495   -0.30126627246289
                 2.797   -0.25563070233011
                0.5215      1.093793361012
 s    1 1.00
                0.1596                   1
 p    3 1.00
                 9.439   0.056979251590039
                 2.002    0.31320721150073
                0.5456    0.76037674173753
 p    1 1.00
                0.1517                   1
 d    1 1.00
                  0.55                   1

7 0
 s    8 1.00
                  6665  0.00069158396281299
                  1000  0.0053257961529341
                   228   0.027060721042034
                 64.71    0.10165684614077
                 21.06     0.2745748236174
                 7.495    0.44829431892377
                 2.797    0.28490261071525
                0.5215   0.015194859206082
 s    8 1.00
                  6665  -0.00029326965268655
                  1000  -0.0023180354739745
                   228  -0.011499786038565
                 64.71  -0.046826727009787
                 21.06   -0.12846616875047
                 7.495   -0.30126627246289
                 2.797   -0.25563070233011
                0.5215      1.093793361012
 s    1 1.00
                0.1596                   1
 p    3 1.00
                 9.439   0.056979251590039
                 2.002    0.31320721150073
                0.5456    0.76037674173753
 p    1 1.00
                0.1517                   1
 d    1 1.00
                  0.55                   1

8 0
 s    3 1.00
                 13.01   0.033498726389998
                 1.962    0.23480080117413
                0.4446     0.8136829578829
 s    1 1.00
                 0.122                   1
 p    1 1.00
                 0.727                   1

9 0
 s    8 1.00
                  6665  0.00069158396281299
                  1000  0.0053257961529341
                   228   0.027060721042034
                 64.71    0.10165684614077
                 21.06     0.2745748236174
                 7.495    0.44829431892377
                 2.797    0.28490261071525
                0.5215   0.015194859206082
 s    8 1.00
                  6665  -0.00029326965268655
                  1000  -0.0023180354739745
                   228  -0.011499786038565
                 64.71  -0.046826727009787
                 21.06   -0.12846616875047
                 7.495   -0.30126627246289
                 2.797   -0.25563070233011
                0.5215      1.093793361012
 s    1 1.00
                0.1596                   1
 p    3 1.00
                 9.439   0.056979251590039
                 2.002    0.31320721150073
                0.5456    0.76037674173753
 p    1 1.00
                0.1517                   1
 d    1 1.00
                  0.55                   1

10 0
 s    3 1.00
                 13.01   0.033498726389998
                 1.962    0.23480080117413
                0.4446     0.8136829578829
 s    1 1.00
                 0.122                   1
 p    1 1.00
                 0.727                   1

11 0
 s    3 1.00
                 13.01   0.033498726389998
                 1.962    0.23480080117413
                0.4446     0.8136829578829
 s    1 1.00
                 0.122                   1
 p    1 1.00
                 0.727                   1

12 0
 s    3 1.00
                 13.01   0.033498726389998
                 1.962    0.23480080117413
                0.4446     0.8136829578829
 s    1 1.00
                 0.122                   1
 p    1 1.00
                 0.727                   1

13 0
 s    8 1.00
                  6665  0.00069158396281299
                  1000  0.0053257961529341
                   228   0.027060721042034
                 64.71    0.10165684614077
                 21.06     0.2745748236174
                 7.495    0.44829431892377
                 2.797    0.28490261071525
                0.5215   0.015194859206082
 s    8 1.00
                  6665  -0.00029326965268655
                  1000  -0.0023180354739745
                   228  -0.011499786038565
                 64.71  -0.046826727009787
                 21.06   -0.12846616875047
                 7.495   -0.30126627246289
                 2.797   -0.25563070233011
                0.5215      1.093793361012
 s    1 1.00
                0.1596                   1
 p    3 1.00
                 9.439   0.056979251590039
                 2.002    0.31320721150073
                0.5456    0.76037674173753
 p    1 1.00
                0.1517                   1
 d    1 1.00
                  0.55                   1

14 0
 s    3 1.00
                 13.01   0.033498726389998
                 1.962    0.23480080117413
                0.4446     0.8136829578829
 s    1 1.00
                 0.122                   1
 p    1 1.00
                 0.727                   1

15 0
 s    3 1.00
                 13.01   0.033498726389998
                 1.962    0.23480080117413
                0.4446     0.8136829578829
 s    1 1.00
                 0.122                   1
 p    1 1.00
                 0.727                   1

16 0
 s    8 1.00
                  6665  0.00069158396281299
                  1000  0.0053257961529341
                   228   0.027060721042034
                 64.71    0.10165684614077
                 21.06     0.2745748236174
                 7.495    0.44829431892377
                 2.797    0.28490261071525
                0.5215   0.015194859206082
 s    8 1.00
                  6665  -0.00029326965268655
                  1000  -0.0023180354739745
                   228  -0.011499786038565
                 64.71  -0.046826727009787
                 21.06   -0.12846616875047
                 7.495   -0.30126627246289
                 2.797   -0.25563070233011
                0.5215      1.093793361012
 s    1 1.00
                0.1596                   1
 p    3 1.00
                 9.439   0.056979251590039
                 2.002    0.31320721150073
                0.5456    0.76037674173753
 p    1 1.00
                0.1517                   1
 d    1 1.00
                  0.55                   1

17 0
 s    3 1.00
                 13.01   0.033498726389998
                 1.962    0.23480080117413
                0.4446     0.8136829578829
 s    1 1.00
                 0.122                   1
 p    1 1.00
                 0.727                   1

18 0
 s    3 1.00
                 13.01   0.033498726389998
                 1.962    0.23480080117413
                0.4446     0.8136829578829
 s    1 1.00
                 0.122                   1
 p    1 1.00
                 0.727                   1

19 0
 s    8 1.00
                  6665  0.00069158396281299
                  1000  0.0053257961529341
                   228   0.027060721042034
                 64.71    0.10165684614077
                 21.06     0.2745748236174
                 7.495    0.44829431892377
                 2.797    0.28490261071525
                0.5215   0.015194859206082
 s    8 1.00
                  6665  -0.00029326965268655
                  1000  -0.0023180354739745
                   228  -0.011499786038565
                 64.71  -0.046826727009787
                 21.06   -0.12846616875047
                 7.495   -0.30126627246289
                 2.797   -0.25563070233011
                0.5215      1.093793361012
 s    1 1.00
                0.1596                   1
 p    3 1.00
                 9.439   0.056979251590039
                 2.002    0.31320721150073
                0.5456    0.76037674173753
 p    1 1.00
                0.1517                   1
 d    1 1.00
                  0.55                   1

20 0
 s    3 1.00
                 13.01   0.033498726389998
                 1.962    0.23480080117413
                0.4446     0.8136829578829
 s    1 1.00
                 0.122                   1
 p    1 1.00
                 0.727                   1

21 0
 s    8 1.00
                  6665  0.00069158396281299
                  1000  0.0053257961529341
                   228   0.027060721042034
                 64.71    0.10165684614077
                 21.06     0.2745748236174
                 7.495    0.44829431892377
                 2.797    0.28490261071525
                0.5215   0.015194859206082
 s    8 1.00
                  6665  -0.00029326965268655
                  1000  -0.0023180354739745
                   228  -0.011499786038565
                 64.71  -0.046826727009787
                 21.06   -0.12846616875047
                 7.495   -0.30126627246289
                 2.797   -0.25563070233011
                0.5215      1.093793361012
 s    1 1.00
                0.1596                   1
 p    3 1.00
                 9.439   0.056979251590039
                 2.002    0.31320721150073
                0.5456    0.76037674173753
 p    1 1.00
                0.1517                   1
 d    1 1.00
                  0.55                   1

22 0
 s    3 1.00
                 13.01   0.033498726389998
                 1.962    0.23480080117413
                0.4446     0.8136829578829
 s    1 1.00
                 0.122                   1
 p    1 1.00
                 0.727                   1

23 0
 s    3 1.00
                 13.01   0.033498726389998
                 1.962    0.23480080117413
                0.4446     0.8136829578829
 s    1 1.00
                 0.122                   1
 p    1 1.00
                 0.727                   1

24 0
 s    3 1.00
                 13.01   0.033498726389998
                 1.962    0.23480080117413
                0.4446     0.8136829578829
 s    1 1.00
                 0.122                   1
 p    1 1.00
                 0.727                   1

25 0
 s    8 1.00
                  6665  0.00069158396281299
                  1000  0.0053257961529341
                   228   0.027060721042034
                 64.71    0.10165684614077
                 21.06     0.2745748236174
                 7.495    0.44829431892377
                 2.797    0.28490261071525
                0.5215   0.015194859206082
 s    8 1.00
                  6665  -0.00029326965268655
                  1000  -0.0023180354739745
                   228  -0.011499786038565
                 64.71  -0.046826727009787
                 21.06   -0.12846616875047
                 7.495   -0.30126627246289
                 2.797   -0.25563070233011
                0.5215      1.093793361012
 s    1 1.00
                0.1596                   1
 p    3 1.00
                 9.439   0.056979251590039
                 2.002    0.31320721150073
                0.5456    0.76037674173753
 p    1 1.00
                0.1517                   1
 d    1 1.00
                  0.55                   1

26 0
 s    3 1.00
                 13.01   0.033498726389998
                 1.962    0.23480080117413
                0.4446     0.8136829578829
 s    1 1.00
                 0.122                   1
 p    1 1.00
                 0.727                   1

27 0
 s    3 1.00
                 13.01   0.033498726389998
                 1.962    0.23480080117413
                0.4446     0.8136829578829
 s    1 1.00
                 0.122                   1
 p    1 1.00
                 0.727                   1

28 0
 s    8 1.00
                  6665  0.00069158396281299
                  1000  0.0053257961529341
                   228   0.027060721042034
                 64.71    0.10165684614077
                 21.06     0.2745748236174
                 7.495    0.44829431892377
                 2.797    0.28490261071525
                0.5215   0.015194859206082
 s    8 1.00
                  6665  -0.00029326965268655
                  1000  -0.0023180354739745
                   228  -0.011499786038565
                 64.71  -0.046826727009787
                 21.06   -0.12846616875047
                 7.495   -0.30126627246289
                 2.797   -0.25563070233011
                0.5215      1.093793361012
 s    1 1.00
                0.1596                   1
 p    3 1.00
                 9.439   0.056979251590039
                 2.002    0.31320721150073
                0.5456    0.76037674173753
 p    1 1.00
                0.1517                   1
 d    1 1.00
                  0.55                   1

29 0
 s    3 1.00
                 13.01   0.033498726389998
                 1.962    0.23480080117413
                0.4446     0.8136829578829
 s    1 1.00
                 0.122                   1
 p    1 1.00
                 0.727                   1

30 0
 s    3 1.00
                 13.01   0.033498726389998
                 1.962    0.23480080117413
                0.4446     0.8136829578829
 s    1 1.00
                 0.122                   1
 p    1 1.00
                 0.727                   1

31 0
 s    8 1.00
                  6665  0.00069158396281299
                  1000  0.0053257961529341
                   228   0.027060721042034
                 64.71    0.10165684614077
                 21.06     0.2745748236174
                 7.495    0.44829431892377
                 2.797    0.28490261071525
                0.5215   0.015194859206082
 s    8 1.00
                  6665  -0.00029326965268655
                  1000  -0.0023180354739745
                   228  -0.011499786038565
                 64.71  -0.046826727009787
                 21.06   -0.12846616875047
                 7.495   -0.30126627246289
                 2.797   -0.25563070233011
                0.5215      1.093793361012
 s    1 1.00
                0.1596                   1
 p    3 1.00
                 9.439   0.056979251590039
                 2.002    0.31320721150073
                0.5456    0.76037674173753
 p    1 1.00
                0.1517                   1
 d    1 1.00
                  0.55                   1

32 0
 s    3 1.00
                 13.01   0.033498726389998
                 1.962    0.23480080117413
                0.4446     0.8136829578829
 s    1 1.00
                 0.122                   1
 p    1 1.00
                 0.727                   1

33 0
 s    3 1.00
                 13.01   0.033498726389998
                 1.962    0.23480080117413
                0.4446     0.8136829578829
 s    1 1.00
                 0.122                   1
 p    1 1.00
                 0.727                   1

34 0
 s    3 1.00
                 13.01   0.033498726389998
                 1.962    0.23480080117413
                0.4446     0.8136829578829
 s    1 1.00
                 0.122                   1
 p    1 1.00
                 0.727                   1

35 0
 s    3 1.00
                 13.01   0.033498726389998
                 1.962    0.23480080117413
                0.4446     0.8136829578829
 s    1 1.00
                 0.122                   1
 p    1 1.00
                 0.727                   1

36 0
 s    3 1.00
                 13.01   0.033498726389998
                 1.962    0.23480080117413
                0.4446     0.8136829578829
 s    1 1.00
                 0.122                   1
 p    1 1.00
                 0.727                   1

37 0
 s    3 1.00
                 13.01   0.033498726389998
                 1.962    0.23480080117413
                0.4446     0.8136829578829
 s    1 1.00
                 0.122                   1
 p    1 1.00
                 0.727                   1

[5d]
[7f]
[9g]

[MO]
 Sym= A
 Ene=               0
 Spin= Alpha
 Occup=    1.00000
   1    1.055381992068e-07
   2    5.238775423339e-07
   3    -2.0168433681537e-07
   4    -3.4235233160095e-08
   5    2.0600927498044e-07
   6    -5.2069458986677e-07
   7    -2.2187497290073e-08
   8    2.9411834437652e-07
   9    1.4081732889447e-07
  10    -7.5836274308169e-08
  11    8.588891205921e-10
  12    -3.5512483324124e-09
  13    -1.8524201680627e-08
  14    -1.3418683185185e-09
  15    6.5430198287497e-07
  16    6.1402270206646e-07
  17    2.1159452206858e-09
  18    5.3142001522749e-09
  19    3.3062500630299e-07
  20    2.5159665648774e-07
  21    -4.341000411648e-07
  22    -4.1188592499281e-09
  23    4.6363187824961e-08
  24    -4.5748026333336e-08
  25    1.0028967791097e-05
  26    2.029757562555e-05
  27    6.8035288382002e-05
  28    -4.0984954134801e-06
  29    -1.6217278358491e-05
  30    -5.9658865115698e-06
  31    -2.9066327168087e-05
  32    9.4952421341151e-06
  33    -2.3597541575209e-05
  34    3.321670399793e-06
  35    1.8604662094071e-06
  36    -6.1562365944778e-07
  37    -3.428120398091e-06
  38    5.2576532503068e-06
  39    3.7305041791115e-05
  40    0.00010871837084349
  41    -0.00026687518012721
  42    -7.085375370128e-05
  43    4.7488641387488e-05
  44    -4.1458452865395e-05
  45    0.00043168659313203
  46    -0.00028533267668495
  47    -1.6665184648809e-05
  48    -2.9550696846347e-06
  49    -2.1036839019434e-05
  50    1.3602373041817e-05
  51    -1.1606148340699e-05
  52    2.2880865493373e-05
  53    4.690010509491e-05
  54    6.0881565301003e-05
  55    -0.00042320438441659
  56    2.1843640152177e-05
  57    -1.122668979212e-05
  58    -2.566350035236e-05
  59    0.00015903972877123
  60    -0.00016339621823295
  61    -0.00013266275647073
  62    -1.3918625613492e-06
  63    1.2820303935912e-05
  64    -7.3859137084989e-06
  65    -5.3580730828254e-06
  66    5.4978816380522e-06
  67    8.1911274717753e-05
  68    2.7645209681542e-06
  69    4.5864155760252e-05
  70    0.00012485170091339
  71    -4.8200864804483e-05
  72    -0.00011128911479379
  73    0.00066876270134546
  74    -0.00036188523902451
  75    7.835980014825e-05
  76    -1.597822309909e-05
  77    5.0527603378743e-05
  78    -2.0949639774447e-05
  79    -2.1860987242996e-06
  80    -1.2051708372769e-05
  81    2.5504254605856e-05
  82    -2.7813563971069e-05
  83    6.3582668462458e-06
  84    -1.6154088302237e-06
  85    2.0450924534545e-06
  86    4.6795797387116e-06
  87    6.8923724002663e-06
  88    0.0001285107406651
  89    -1.6030816748863e-05
  90    -1.9042885165922e-06
  91    7.1933367502192e-06
  92    7.3552930948283e-05
  93    -5.0641892530932e-05
  94    3.5822997976336e-05
  95    -1.581490316096e-06
  96    -7.799382873902e-06
  97    3.266829938949e-06
  98    2.2400115162265e-06
  99    3.8380917656878e-07
 100    1.8111808053118e-05
 101    -1.0295093499711e-05
 102    -7.7282577860153e-06
 103    5.0127597182456e-06
 104    3.0734623523229e-06
 105    5.3164386070028e-05
 106    -3.7172729580259e-05
 107    -1.9863389820325e-05
 108    1.8053205375901e-05
 109    -1.2217945919015e-05
 110    4.6736318151186e-05
 111    -5.5469471600997e-05
 112    -2.0442739986816e-05
 113    8.335506157993e-06
 114    -1.3958907055962e-05
 115    -6.8160447326878e-05
 116    0.00029968592139398
 117    -0.00074165128712274
 118    -0.00036382337871184
 119    0.00027386952127683
 120    -0.00030639430193113
 121    0.00049442787180622
 122    -0.0003375476801984
 123    2.8552987676351e-05
 124    2.6797995361547e-05
 125    -4.6752019195853e-06
 126    1.8962334314691e-06
 127    -5.2236579171732e-06
 128    8.0072774295731e-06
 129    -2.6724378365456e-06
 130     7.11130863716e-07
 131    -7.6113866209264e-06
 132    2.2937415850774e-06
 133    -1.0180805868793e-06
 134    2.029510838504e-05
 135    3.7910291137145e-05
 136    4.7389647419085e-06
 137    -1.6051971489651e-06
 138    3.7406040197053e-06
 139    9.2345656979477e-06
 140    1.4730056152908e-05
 141    -0.00011577746386385
 142    4.4302910695953e-06
 143    -4.3463558881999e-06
 144    1.6566405139318e-06
 145    6.1627206001445e-05
 146    -1.7392271536432e-05
 147    -9.5138766323035e-05
 148    -5.1771899842946e-07
 149    5.0682871952494e-06
 150    -3.7675347575327e-06
 151    -1.852587493886e-06
 152    4.4249563424056e-06
 153    -1.8982557839644e-05
 154    1.8734958493522e-06
 155    -3.6727605275751e-05
 156    2.4280999450426e-05
 157    -8.3693045651852e-06
 158    -3.5424723265258e-05
 159    -5.9344953973356e-05
 160    -3.4661779377586e-05
 161    2.1610031230952e-05
 162    -7.8470315229169e-06
 163    0.00074324708630071
 164    0.00042885082898733
 165    -3.2639108037853e-05
 166    0.00061473492080521
 167    -0.00024268172128581
 168    -0.00052563967892055
 169    0.0016647312232435
 170    -0.0010110874284436
 171    0.00018619745763667
 172    -5.5455942957531e-05
 173    0.00017522835456413
 174    -1.8106272259048e-05
 175    -8.0271519740005e-05
 176    1.0054987137995e-05
 177    1.1436805185184e-05
 178    1.8744764839273e-05
 179    -3.0297247182595e-06
 180    -1.590506006484e-07
 181    2.2724576466014e-06
 182    5.5427562822335e-07
 183    1.2663318722977e-06
 184    -1.337590337888e-05
 185    1.992043992147e-07
 186    -1.296135060973e-06
 187    -3.402049530038e-07
 188    1.0724988159502e-05
 189    1.3451815747849e-05
 190    9.0904721795449e-07
 191    9.502944427737e-07
 192    2.1096600003014e-07
 193    7.6902394454426e-07
 194    6.2136779790389e-07
 195    -2.1160749205385e-06
 196    2.2982786672462e-06
 197    -1.7224333326319e-05
 198    -1.9721287706079e-06
 199    -2.4606494560791e-06
 200    2.6616944180979e-06
 201    0.00043642438270938
 202    0.00029625300167511
 203    -5.5164385162787e-05
 204    8.7109276734037e-05
 205    -9.2460224308737e-06
 206    0.00029458147129039
 207    6.7584273790235e-05
 208    -9.7477287730234e-05
 209    3.1921348011715e-06
 210    -3.057928705134e-05
 211    -0.0027381564680141
 212    -0.0014972970423841
 213    -0.002281424446741
 214    -0.00046666926645578
 215    0.0017985975492303
 216    -0.0015120900615437
 217    0.00090482633101176
 218    0.00012815091758687
 219    -0.00042948491574278
 220    2.4366414035214e-05
 221    0.0001592797175035
 222    -8.4006522449164e-05
 223    0.00010976993870205
 224    -0.00026498352954557
 225    -8.0730844881173e-07
 226    -7.2801390553047e-06
 227    -8.2458059293377e-08
 228    -4.2413835493269e-07
 229    4.034077448385e-07
 230    7.8366843533107e-07
 231    -8.7139698900629e-07
 232    -2.1830053554343e-07
 233    -5.8304133635916e-07
 234    -6.9514039390552e-07
 235    3.3362844096298e-06
 236    5.6514852823961e-06
 237    -1.184296468635e-05
 238    -4.8472116637735e-07
 239    -9.6147342455094e-07
 240    8.8990318322837e-07
 241    1.2332088554212e-05
 242    7.6367195579365e-06
 243    -1.6062700408616e-05
 244    -1.4717510305773e-07
 245    1.4986878845247e-06
 246    -5.4517683807341e-07
 247    -1.7737707172809e-07
 248    -6.8932420570186e-08
 249    -0.00084439567074047
 250    -0.00027970682594263
 251    5.5728232296732e-05
 252    0.00010038512973651
 253    9.0150282409803e-05
 254    -0.0023565113305079
 255    -0.00095600899942769
 256    -0.00010326987145608
 257    -0.00017453428890816
 258    0.00011338114347645
 259      -1.0023860568495
 260    -0.0042423471414611
 261     0.010265128768972
 262    0.00094576718673189
 263    -0.00064555503821479