[Molden Format]
made by pyscf v[2.0.1]
[Atoms] (AU)
O   1   8     0.00000000000000     0.00000000000000     6.40640788651141
H   2   1     0.00000000000000     0.00000000000000     4.58300606461044
H   3   1    -0.05031916615174     1.78353439551780     6.78227958297808
O   4   8     0.00000000000000     0.00000000000000     2.31533471513237
C   5   6     0.00000000000000     0.00000000000000     0.00000000000000
C   6   6     2.01118073026938    -1.40227222164369    -1.50774939176400
C   7   6    -2.01249334291722     1.41331050329955    -1.50319235519811
H   8   1     3.32037363730244    -2.26721897153159    -0.13599698591495
C   9   6     3.45899267434009     0.28739631745591    -3.37437943254505
H   10   1     1.07662969841332    -2.94725144642667    -2.56541439481080
H   11   1    -2.67503415753480     0.18421555839588    -3.06194479365997
H   12   1    -1.08005520873877     3.03851734677796    -2.43674295017013
C   13   6    -4.21607110578555     2.32938802552922     0.11994192435017
H   14   1     4.24440173074564     1.93368664387684    -2.34976285512790
H   15   1     2.18907033049676     1.04714335134846    -4.81494497423699
C   16   6     5.60746363007797    -1.12419643481196    -4.70268606082550
H   17   1    -3.46838323670267     3.50951302338067     1.66946842715333
H   18   1    -5.11873485366228     0.68575958301209     1.04047743976495
C   19   6    -6.18314754751344     3.80909592987882    -1.39656589068747
H   20   1     6.93011263717176    -1.87550812453645    -3.26656317360070
C   21   6     7.10306991577580     0.52877932406334    -6.57829775293605
H   22   1     4.82318879258361    -2.78573437948532    -5.70504560381835
H   23   1    -6.91582688743803     2.61304780074712    -2.95074552451969
H   24   1    -5.26532430573853     5.45420349051338    -2.31005832200284
C   25   6    -8.39941882261433     4.73263980500213     0.21800571437956
H   26   1     7.83338371486801     2.19084139882824    -5.57093109900697
H   27   1     5.73544244039420     1.27376866537418    -8.01071492370229
C   28   6     9.21124858443101    -0.89699110072176    -7.88926949186242
H   29   1    -7.66272760055236     5.92277078003992     1.77035591474408
H   30   1    -9.31497248082589     3.08753015622020     1.12614408368786
C   31   6   -10.35481709231879     6.21833079391143    -1.30905206253246
H   32   1    10.58815905329501    -1.61099162890610    -6.52093739071026
H   33   1    10.23506248045667     0.32468009384095    -9.23072870921204
H   34   1     8.47665842847139    -2.53598436989925    -8.94921964622535
H   35   1    -9.48948872868064     7.90013588951020    -2.18823918416067
H   36   1   -11.93332774482359     6.86460487874102    -0.11255798845995
H   37   1   -11.15126291841033     5.04495968327630    -2.83849898862534
[GTO]
1 0
 s    8 1.00
                 11720  0.00070964594651845
                  1759  0.0054672722921914
                 400.8   0.027823118610189
                 113.7    0.10474773971146
                 37.03    0.28292084635691
                 13.27    0.44849523869833
                 5.025    0.27081688521277
                 1.013    0.01545029160744
 s    8 1.00
                 11720  -0.00031444341168873
                  1759  -0.0024821376810179
                 400.8  -0.012316355381583
                 113.7  -0.050538917343672
                 37.03   -0.13938490331632
                 13.27   -0.32507749481778
                 5.025   -0.22984830758785
                 1.013     1.0953793467883
 s    1 1.00
                0.3023                   1
 p    3 1.00
                  17.7   0.062679166281506
                 3.854    0.33353656587936
                 1.046    0.74123964163973
 p    1 1.00
                0.2753                   1
 d    1 1.00
                 1.185                   1

2 0
 s    3 1.00
                 13.01   0.033498726389998
                 1.962    0.23480080117413
                0.4446     0.8136829578829
 s    1 1.00
                 0.122                   1
 p    1 1.00
                 0.727                   1

3 0
 s    3 1.00
                 13.01   0.033498726389998
                 1.962    0.23480080117413
                0.4446     0.8136829578829
 s    1 1.00
                 0.122                   1
 p    1 1.00
                 0.727                   1

4 0
 s    8 1.00
                 11720  0.00070964594651845
                  1759  0.0054672722921914
                 400.8   0.027823118610189
                 113.7    0.10474773971146
                 37.03    0.28292084635691
                 13.27    0.44849523869833
                 5.025    0.27081688521277
                 1.013    0.01545029160744
 s    8 1.00
                 11720  -0.00031444341168873
                  1759  -0.0024821376810179
                 400.8  -0.012316355381583
                 113.7  -0.050538917343672
                 37.03   -0.13938490331632
                 13.27   -0.32507749481778
                 5.025   -0.22984830758785
                 1.013     1.0953793467883
 s    1 1.00
                0.3023                   1
 p    3 1.00
                  17.7   0.062679166281506
                 3.854    0.33353656587936
                 1.046    0.74123964163973
 p    1 1.00
                0.2753                   1
 d    1 1.00
                 1.185                   1

5 0
 s    8 1.00
                  6665  0.00069158396281299
                  1000  0.0053257961529341
                   228   0.027060721042034
                 64.71    0.10165684614077
                 21.06     0.2745748236174
                 7.495    0.44829431892377
                 2.797    0.28490261071525
                0.5215   0.015194859206082
 s    8 1.00
                  6665  -0.00029326965268655
                  1000  -0.0023180354739745
                   228  -0.011499786038565
                 64.71  -0.046826727009787
                 21.06   -0.12846616875047
                 7.495   -0.30126627246289
                 2.797   -0.25563070233011
                0.5215      1.093793361012
 s    1 1.00
                0.1596                   1
 p    3 1.00
                 9.439   0.056979251590039
                 2.002    0.31320721150073
                0.5456    0.76037674173753
 p    1 1.00
                0.1517                   1
 d    1 1.00
                  0.55                   1

6 0
 s    8 1.00
                  6665  0.00069158396281299
                  1000  0.0053257961529341
                   228   0.027060721042034
                 64.71    0.10165684614077
                 21.06     0.2745748236174
                 7.495    0.44829431892377
                 2.797    0.28490261071525
                0.5215   0.015194859206082
 s    8 1.00
                  6665  -0.00029326965268655
                  1000  -0.0023180354739745
                   228  -0.011499786038565
                 64.71  -0.046826727009787
                 21.06   -0.12846616875047
                 7.495   -0.30126627246289
                 2.797   -0.25563070233011
                0.5215      1.093793361012
 s    1 1.00
                0.1596                   1
 p    3 1.00
                 9.439   0.056979251590039
                 2.002    0.31320721150073
                0.5456    0.76037674173753
 p    1 1.00
                0.1517                   1
 d    1 1.00
                  0.55                   1

7 0
 s    8 1.00
                  6665  0.00069158396281299
                  1000  0.0053257961529341
                   228   0.027060721042034
                 64.71    0.10165684614077
                 21.06     0.2745748236174
                 7.495    0.44829431892377
                 2.797    0.28490261071525
                0.5215   0.015194859206082
 s    8 1.00
                  6665  -0.00029326965268655
                  1000  -0.0023180354739745
                   228  -0.011499786038565
                 64.71  -0.046826727009787
                 21.06   -0.12846616875047
                 7.495   -0.30126627246289
                 2.797   -0.25563070233011
                0.5215      1.093793361012
 s    1 1.00
                0.1596                   1
 p    3 1.00
                 9.439   0.056979251590039
                 2.002    0.31320721150073
                0.5456    0.76037674173753
 p    1 1.00
                0.1517                   1
 d    1 1.00
                  0.55                   1

8 0
 s    3 1.00
                 13.01   0.033498726389998
                 1.962    0.23480080117413
                0.4446     0.8136829578829
 s    1 1.00
                 0.122                   1
 p    1 1.00
                 0.727                   1

9 0
 s    8 1.00
                  6665  0.00069158396281299
                  1000  0.0053257961529341
                   228   0.027060721042034
                 64.71    0.10165684614077
                 21.06     0.2745748236174
                 7.495    0.44829431892377
                 2.797    0.28490261071525
                0.5215   0.015194859206082
 s    8 1.00
                  6665  -0.00029326965268655
                  1000  -0.0023180354739745
                   228  -0.011499786038565
                 64.71  -0.046826727009787
                 21.06   -0.12846616875047
                 7.495   -0.30126627246289
                 2.797   -0.25563070233011
                0.5215      1.093793361012
 s    1 1.00
                0.1596                   1
 p    3 1.00
                 9.439   0.056979251590039
                 2.002    0.31320721150073
                0.5456    0.76037674173753
 p    1 1.00
                0.1517                   1
 d    1 1.00
                  0.55                   1

10 0
 s    3 1.00
                 13.01   0.033498726389998
                 1.962    0.23480080117413
                0.4446     0.8136829578829
 s    1 1.00
                 0.122                   1
 p    1 1.00
                 0.727                   1

11 0
 s    3 1.00
                 13.01   0.033498726389998
                 1.962    0.23480080117413
                0.4446     0.8136829578829
 s    1 1.00
                 0.122                   1
 p    1 1.00
                 0.727                   1

12 0
 s    3 1.00
                 13.01   0.033498726389998
                 1.962    0.23480080117413
                0.4446     0.8136829578829
 s    1 1.00
                 0.122                   1
 p    1 1.00
                 0.727                   1

13 0
 s    8 1.00
                  6665  0.00069158396281299
                  1000  0.0053257961529341
                   228   0.027060721042034
                 64.71    0.10165684614077
                 21.06     0.2745748236174
                 7.495    0.44829431892377
                 2.797    0.28490261071525
                0.5215   0.015194859206082
 s    8 1.00
                  6665  -0.00029326965268655
                  1000  -0.0023180354739745
                   228  -0.011499786038565
                 64.71  -0.046826727009787
                 21.06   -0.12846616875047
                 7.495   -0.30126627246289
                 2.797   -0.25563070233011
                0.5215      1.093793361012
 s    1 1.00
                0.1596                   1
 p    3 1.00
                 9.439   0.056979251590039
                 2.002    0.31320721150073
                0.5456    0.76037674173753
 p    1 1.00
                0.1517                   1
 d    1 1.00
                  0.55                   1

14 0
 s    3 1.00
                 13.01   0.033498726389998
                 1.962    0.23480080117413
                0.4446     0.8136829578829
 s    1 1.00
                 0.122                   1
 p    1 1.00
                 0.727                   1

15 0
 s    3 1.00
                 13.01   0.033498726389998
                 1.962    0.23480080117413
                0.4446     0.8136829578829
 s    1 1.00
                 0.122                   1
 p    1 1.00
                 0.727                   1

16 0
 s    8 1.00
                  6665  0.00069158396281299
                  1000  0.0053257961529341
                   228   0.027060721042034
                 64.71    0.10165684614077
                 21.06     0.2745748236174
                 7.495    0.44829431892377
                 2.797    0.28490261071525
                0.5215   0.015194859206082
 s    8 1.00
                  6665  -0.00029326965268655
                  1000  -0.0023180354739745
                   228  -0.011499786038565
                 64.71  -0.046826727009787
                 21.06   -0.12846616875047
                 7.495   -0.30126627246289
                 2.797   -0.25563070233011
                0.5215      1.093793361012
 s    1 1.00
                0.1596                   1
 p    3 1.00
                 9.439   0.056979251590039
                 2.002    0.31320721150073
                0.5456    0.76037674173753
 p    1 1.00
                0.1517                   1
 d    1 1.00
                  0.55                   1

17 0
 s    3 1.00
                 13.01   0.033498726389998
                 1.962    0.23480080117413
                0.4446     0.8136829578829
 s    1 1.00
                 0.122                   1
 p    1 1.00
                 0.727                   1

18 0
 s    3 1.00
                 13.01   0.033498726389998
                 1.962    0.23480080117413
                0.4446     0.8136829578829
 s    1 1.00
                 0.122                   1
 p    1 1.00
                 0.727                   1

19 0
 s    8 1.00
                  6665  0.00069158396281299
                  1000  0.0053257961529341
                   228   0.027060721042034
                 64.71    0.10165684614077
                 21.06     0.2745748236174
                 7.495    0.44829431892377
                 2.797    0.28490261071525
                0.5215   0.015194859206082
 s    8 1.00
                  6665  -0.00029326965268655
                  1000  -0.0023180354739745
                   228  -0.011499786038565
                 64.71  -0.046826727009787
                 21.06   -0.12846616875047
                 7.495   -0.30126627246289
                 2.797   -0.25563070233011
                0.5215      1.093793361012
 s    1 1.00
                0.1596                   1
 p    3 1.00
                 9.439   0.056979251590039
                 2.002    0.31320721150073
                0.5456    0.76037674173753
 p    1 1.00
                0.1517                   1
 d    1 1.00
                  0.55                   1

20 0
 s    3 1.00
                 13.01   0.033498726389998
                 1.962    0.23480080117413
                0.4446     0.8136829578829
 s    1 1.00
                 0.122                   1
 p    1 1.00
                 0.727                   1

21 0
 s    8 1.00
                  6665  0.00069158396281299
                  1000  0.0053257961529341
                   228   0.027060721042034
                 64.71    0.10165684614077
                 21.06     0.2745748236174
                 7.495    0.44829431892377
                 2.797    0.28490261071525
                0.5215   0.015194859206082
 s    8 1.00
                  6665  -0.00029326965268655
                  1000  -0.0023180354739745
                   228  -0.011499786038565
                 64.71  -0.046826727009787
                 21.06   -0.12846616875047
                 7.495   -0.30126627246289
                 2.797   -0.25563070233011
                0.5215      1.093793361012
 s    1 1.00
                0.1596                   1
 p    3 1.00
                 9.439   0.056979251590039
                 2.002    0.31320721150073
                0.5456    0.76037674173753
 p    1 1.00
                0.1517                   1
 d    1 1.00
                  0.55                   1

22 0
 s    3 1.00
                 13.01   0.033498726389998
                 1.962    0.23480080117413
                0.4446     0.8136829578829
 s    1 1.00
                 0.122                   1
 p    1 1.00
                 0.727                   1

23 0
 s    3 1.00
                 13.01   0.033498726389998
                 1.962    0.23480080117413
                0.4446     0.8136829578829
 s    1 1.00
                 0.122                   1
 p    1 1.00
                 0.727                   1

24 0
 s    3 1.00
                 13.01   0.033498726389998
                 1.962    0.23480080117413
                0.4446     0.8136829578829
 s    1 1.00
                 0.122                   1
 p    1 1.00
                 0.727                   1

25 0
 s    8 1.00
                  6665  0.00069158396281299
                  1000  0.0053257961529341
                   228   0.027060721042034
                 64.71    0.10165684614077
                 21.06     0.2745748236174
                 7.495    0.44829431892377
                 2.797    0.28490261071525
                0.5215   0.015194859206082
 s    8 1.00
                  6665  -0.00029326965268655
                  1000  -0.0023180354739745
                   228  -0.011499786038565
                 64.71  -0.046826727009787
                 21.06   -0.12846616875047
                 7.495   -0.30126627246289
                 2.797   -0.25563070233011
                0.5215      1.093793361012
 s    1 1.00
                0.1596                   1
 p    3 1.00
                 9.439   0.056979251590039
                 2.002    0.31320721150073
                0.5456    0.76037674173753
 p    1 1.00
                0.1517                   1
 d    1 1.00
                  0.55                   1

26 0
 s    3 1.00
                 13.01   0.033498726389998
                 1.962    0.23480080117413
                0.4446     0.8136829578829
 s    1 1.00
                 0.122                   1
 p    1 1.00
                 0.727                   1

27 0
 s    3 1.00
                 13.01   0.033498726389998
                 1.962    0.23480080117413
                0.4446     0.8136829578829
 s    1 1.00
                 0.122                   1
 p    1 1.00
                 0.727                   1

28 0
 s    8 1.00
                  6665  0.00069158396281299
                  1000  0.0053257961529341
                   228   0.027060721042034
                 64.71    0.10165684614077
                 21.06     0.2745748236174
                 7.495    0.44829431892377
                 2.797    0.28490261071525
                0.5215   0.015194859206082
 s    8 1.00
                  6665  -0.00029326965268655
                  1000  -0.0023180354739745
                   228  -0.011499786038565
                 64.71  -0.046826727009787
                 21.06   -0.12846616875047
                 7.495   -0.30126627246289
                 2.797   -0.25563070233011
                0.5215      1.093793361012
 s    1 1.00
                0.1596                   1
 p    3 1.00
                 9.439   0.056979251590039
                 2.002    0.31320721150073
                0.5456    0.76037674173753
 p    1 1.00
                0.1517                   1
 d    1 1.00
                  0.55                   1

29 0
 s    3 1.00
                 13.01   0.033498726389998
                 1.962    0.23480080117413
                0.4446     0.8136829578829
 s    1 1.00
                 0.122                   1
 p    1 1.00
                 0.727                   1

30 0
 s    3 1.00
                 13.01   0.033498726389998
                 1.962    0.23480080117413
                0.4446     0.8136829578829
 s    1 1.00
                 0.122                   1
 p    1 1.00
                 0.727                   1

31 0
 s    8 1.00
                  6665  0.00069158396281299
                  1000  0.0053257961529341
                   228   0.027060721042034
                 64.71    0.10165684614077
                 21.06     0.2745748236174
                 7.495    0.44829431892377
                 2.797    0.28490261071525
                0.5215   0.015194859206082
 s    8 1.00
                  6665  -0.00029326965268655
                  1000  -0.0023180354739745
                   228  -0.011499786038565
                 64.71  -0.046826727009787
                 21.06   -0.12846616875047
                 7.495   -0.30126627246289
                 2.797   -0.25563070233011
                0.5215      1.093793361012
 s    1 1.00
                0.1596                   1
 p    3 1.00
                 9.439   0.056979251590039
                 2.002    0.31320721150073
                0.5456    0.76037674173753
 p    1 1.00
                0.1517                   1
 d    1 1.00
                  0.55                   1

32 0
 s    3 1.00
                 13.01   0.033498726389998
                 1.962    0.23480080117413
                0.4446     0.8136829578829
 s    1 1.00
                 0.122                   1
 p    1 1.00
                 0.727                   1

33 0
 s    3 1.00
                 13.01   0.033498726389998
                 1.962    0.23480080117413
                0.4446     0.8136829578829
 s    1 1.00
                 0.122                   1
 p    1 1.00
                 0.727                   1

34 0
 s    3 1.00
                 13.01   0.033498726389998
                 1.962    0.23480080117413
                0.4446     0.8136829578829
 s    1 1.00
                 0.122                   1
 p    1 1.00
                 0.727                   1

35 0
 s    3 1.00
                 13.01   0.033498726389998
                 1.962    0.23480080117413
                0.4446     0.8136829578829
 s    1 1.00
                 0.122                   1
 p    1 1.00
                 0.727                   1

36 0
 s    3 1.00
                 13.01   0.033498726389998
                 1.962    0.23480080117413
                0.4446     0.8136829578829
 s    1 1.00
                 0.122                   1
 p    1 1.00
                 0.727                   1

37 0
 s    3 1.00
                 13.01   0.033498726389998
                 1.962    0.23480080117413
                0.4446     0.8136829578829
 s    1 1.00
                 0.122                   1
 p    1 1.00
                 0.727                   1

[5d]
[7f]
[9g]

[MO]
 Sym= A
 Ene=               0
 Spin= Alpha
 Occup=    1.00000
   1    -4.883828544563e-06
   2    -3.9479124162891e-06
   3    3.5429592534349e-05
   4    -5.6030641143545e-06
   5    1.0289498743395e-05
   6    -7.6677952993148e-06
   7    -1.8060633237698e-06
   8    -1.4368749232294e-07
   9    -2.111641718081e-05
  10    3.2951882718087e-06
  11    3.4205004407708e-07
  12    -5.7426297304043e-07
  13    -1.5353940263589e-07
  14    7.2057523563842e-08
  15    9.9427334172924e-06
  16    -4.6421457536744e-05
  17    2.1445254405269e-06
  18    -1.9330566510245e-06
  19    -1.0587634238661e-05
  20    8.5008939457813e-06
  21    7.6857727646353e-06
  22    -2.9159489179569e-07
  23    -9.5782166111973e-07
  24    -4.18133786901e-07
  25    1.0009797023434e-05
  26    2.1771049880541e-05
  27    5.2410186812449e-05
  28    -4.4474726506543e-06
  29    -1.6204488568225e-05
  30    -8.4277805211131e-06
  31    -3.1913637845712e-05
  32    1.0872265517065e-05
  33    -1.7596982915488e-05
  34    -9.9944524767386e-08
  35    1.7526915649551e-06
  36    -7.0716783216525e-07
  37    -3.449985459223e-06
  38    5.3230368985432e-06
  39    4.0845368316952e-05
  40    0.00011469631029541
  41    -0.00027229357705072
  42    -7.1459351687611e-05
  43    5.0177345840327e-05
  44    -4.139583471073e-05
  45    0.00044468357543961
  46    -0.00029177556850576
  47    1.9260539956222e-05
  48    1.4009932377235e-07
  49    -2.1607547395599e-05
  50    1.4055218839554e-05
  51    -1.2188186973946e-05
  52    2.4027513240956e-05
  53    4.7637995200381e-05
  54    6.2486863835053e-05
  55    -0.00042055896734333
  56    2.1038830692648e-05
  57    -1.0399896609382e-05
  58    -2.5058403682969e-05
  59    0.00015003332004713
  60    -0.00015946247184215
  61    -0.00014734840410173
  62    -2.4056757120997e-06
  63    1.2503970672012e-05
  64    -7.1999621745354e-06
  65    -5.3587541086759e-06
  66    5.3034677507964e-06
  67    8.1808839368649e-05
  68    1.9004595067365e-06
  69    6.5156523739684e-05
  70    0.00012371378037218
  71    -4.7159913494915e-05
  72    -0.00011245255077014
  73    0.00068173819029839
  74    -0.00037137581331309
  75    7.4537265203685e-05
  76    -1.7440982254485e-05
  77    5.1501803504853e-05
  78    -2.1241312558519e-05
  79    -1.573834333432e-06
  80    -1.3280691651511e-05
  81    2.7039764871261e-05
  82    -2.056473474564e-05
  83    6.3575377624586e-06
  84    -1.5397783927697e-06
  85    1.2830561226798e-06
  86    4.6741285631492e-06
  87    6.9721274516269e-06
  88    0.00012350848444238
  89    -1.6267215269378e-05
  90    -1.9283147787068e-06
  91    6.6585625559947e-06
  92    7.5747695364487e-05
  93    -4.4052698365769e-05
  94    4.0843466947398e-05
  95    -1.3286239744068e-06
  96    -7.8060704986651e-06
  97    3.3854305659669e-06
  98    2.3508897824548e-06
  99    -1.3631416949005e-08
 100    1.7422344379432e-05
 101    -1.2821726705998e-05
 102    -7.909002527605e-06
 103    4.7617390282658e-06
 104    3.9919626186635e-06
 105    5.2469469884861e-05
 106    -3.9686381775737e-05
 107    -2.035231591496e-05
 108    1.8092979347334e-05
 109    -1.1831054192556e-05
 110    4.6285512867078e-05
 111    -5.7023956586982e-05
 112    -2.0693260615172e-05
 113    8.5647706926156e-06
 114    -1.3435952937829e-05
 115    -6.6826286619302e-05
 116    0.00030309055623528
 117    -0.0007492144404419
 118    -0.00036267874345949
 119    0.00027390162619846
 120    -0.00031124590567598
 121    0.00049740124513001
 122    -0.0003394073166022
 123    2.3380625477453e-05
 124    2.706647976131e-05
 125    -5.881963151118e-06
 126    2.3969264201277e-06
 127    -5.5703813017615e-06
 128    8.9687783740796e-06
 129    -3.7541696119953e-06
 130    -3.0669588547859e-06
 131    -7.5696525992808e-06
 132    2.384902732443e-06
 133    -1.0244152551081e-06
 134    2.1331568021701e-05
 135    3.744285868581e-05
 136    4.5360526079102e-06
 137    -1.8308618393211e-06
 138    3.1481821407527e-06
 139    8.7725244427598e-06
 140    1.4005367513049e-05
 141    -0.00010979624998969
 142    4.3736820489896e-06
 143    -4.2787826497479e-06
 144    1.9079634400074e-06
 145    5.836675551918e-05
 146    -1.7117666206876e-05
 147    -9.5808176607339e-05
 148    -6.4766103849341e-07
 149    5.0959369248938e-06
 150    -3.9314694684428e-06
 151    -1.5917551499343e-06
 152    4.3149250347326e-06
 153    -2.1082987471193e-05
 154    1.0245558648743e-05
 155    -3.7150569811366e-05
 156    2.3957875579554e-05
 157    -8.855282267815e-06
 158    -3.6648945115207e-05
 159    -5.4139423025794e-05
 160    -3.4680645122692e-05
 161    2.1943133443867e-05
 162    -7.9805249269606e-06
 163    0.00074350395423538
 164    0.00042867197282735
 165    -3.2142634940325e-05
 166    0.00061071198552041
 167    -0.00023996806387531
 168    -0.00052508549002536
 169    0.0016736830706796
 170    -0.001012926786459
 171    0.00017985586459893
 172    -5.6667983592176e-05
 173    0.00017541241543031
 174    -1.7878289333083e-05
 175    -7.9640973407569e-05
 176    8.6576148067655e-06
 177    1.1568270462929e-05
 178    1.8772155847509e-05
 179    -2.8716904243286e-06
 180    -1.303689361697e-07
 181    2.3103807318288e-06
 182    7.9004030368512e-07
 183    1.6316374615812e-06
 184    -1.5467260894392e-05
 185    2.7603679222085e-07
 186    -1.2559748206302e-06
 187    -4.8530510937227e-07
 188    1.1809812192939e-05
 189    1.4084277829909e-05
 190    1.8214863033573e-06
 191    1.0510540505246e-06
 192    2.4517546904937e-07
 193    7.4771945780469e-07
 194    5.3453531143241e-07
 195    -2.1539505977706e-06
 196    1.7869533497862e-06
 197    -1.820020578623e-05
 198    -1.9093182966438e-06
 199    -2.4685605929851e-06
 200    2.6729114048521e-06
 201    0.00043469057304919
 202    0.00029312125118926
 203    -5.5737870610804e-05
 204    8.7247040117918e-05
 205    -9.1672569525282e-06
 206    0.00029272554073516
 207    6.2457833303775e-05
 208    -9.8014598950119e-05
 209    3.6309616447857e-06
 210    -3.0425170730415e-05
 211    -0.002738804969062
 212    -0.0014973905502411
 213    -0.0022666123933442
 214    -0.00046208240071657
 215    0.0017965621117639
 216    -0.0015172590945274
 217    0.0009047530787955
 218    0.00013361700254519
 219    -0.00043689268076186
 220    2.4940753127663e-05
 221    0.00015980664798832
 222    -8.5116043321683e-05
 223    0.00011049784293371
 224    -0.00026581599949391
 225    -8.7585318693992e-07
 226    -7.6653380265504e-06
 227    -1.1565914394357e-07
 228    -3.7996009736724e-07
 229    3.6536064942966e-07
 230    1.063009708768e-06
 231    1.7749037765608e-07
 232    -1.400283268878e-07
 233    -6.1317766550839e-07
 234    -6.2069764807559e-07
 235    3.2389779819825e-06
 236    5.5065644906137e-06
 237    -1.084108464876e-05
 238    -5.313330155861e-07
 239    -8.7510410406438e-07
 240    9.1609534702957e-07
 241    1.1403130318945e-05
 242    7.3792196056941e-06
 243    -1.587877602472e-05
 244    -1.8116045894569e-07
 245    1.4839009804623e-06
 246    -5.8334069576103e-07
 247    -8.6085441621411e-08
 248    -1.1550390850665e-07
 249    -0.00084568251638115
 250    -0.00028032341425734
 251    5.5896250204194e-05
 252    0.00010007481468019
 253    9.0677152384989e-05
 254    -0.0023535746505295
 255    -0.00094513408086856
 256    -0.00010322410874827
 257    -0.0001744387455927
 258    0.00011415530157733
 259      -1.0023857022965
 260    -0.0042448952917556
 261     0.010252669264472
 262    0.00093339692492378