[Molden Format]
made by pyscf v[2.0.1]
[Atoms] (AU)
O   1   8     0.00000000000000     0.00000000000000     8.29613401107647
H   2   1     0.00000000000000     0.00000000000000     6.47273218917551
H   3   1    -0.05031916615174     1.78353065140343     8.67200570754314
O   4   8     0.00000000000000     0.00000000000000     2.31533471513237
C   5   6     0.00000000000000     0.00000000000000     0.00000000000000
C   6   6     2.01118073026938    -1.40227222164369    -1.50774939176400
C   7   6    -2.01249334291722     1.41331050329955    -1.50315905028694
H   8   1     3.32037363730244    -2.26721897153159    -0.13599698591495
C   9   6     3.45899267434009     0.28739631745591    -3.37437943254505
H   10   1     1.07662969841332    -2.94725144642667    -2.56541439481080
H   11   1    -2.67503415753480     0.18421555839588    -3.06194479365997
H   12   1    -1.07974048864772     3.03851734677796    -2.43674295017013
C   13   6    -4.21607110578555     2.32938802552922     0.11994162256091
H   14   1     4.24440173074564     1.93368664142019    -2.34976285512790
H   15   1     2.15020713235517     1.04714335134846    -4.81494497423699
C   16   6     5.60746363007797    -1.12419643481196    -4.70268606082550
H   17   1    -3.46838323670267     3.50951302338067     1.66946842715333
H   18   1    -5.11873485366228     0.68575958301209     1.04047743976495
C   19   6    -6.18314754751344     3.80909592987882    -1.39656589068747
H   20   1     6.93011263717176    -1.87550812453645    -3.26656317360070
C   21   6     7.06356622236532     0.52877932406334    -6.57829775293605
H   22   1     4.82318879258361    -2.78573437948532    -5.70504560381835
H   23   1    -6.91582688743803     2.61304780074712    -2.95074552451969
H   24   1    -5.26532430573853     5.45420349051338    -2.31005832200284
C   25   6    -8.39941882261433     4.73263980500213     0.21800571437956
H   26   1     7.83338371486801     2.19084139882824    -5.57093109900697
H   27   1     5.73544244039420     1.27376866537418    -8.01071492370229
C   28   6     9.21124858443101    -0.89699110072176    -7.88926949186242
H   29   1    -7.66272760055236     5.92277078003992     1.77035591474408
H   30   1    -9.31497248082589     3.08753015622020     1.12614408368786
C   31   6   -10.35481709231879     6.21833079391143    -1.30905206253246
H   32   1    10.58815905329501    -1.61074586756696    -6.49512691622620
H   33   1    10.23506248045667     0.32468009384095    -9.23072870921204
H   34   1     8.47665842847139    -2.53598436989925    -8.94921964622535
H   35   1    -9.48948872868064     7.90013588951020    -2.18823918416067
H   36   1   -11.93332513000955     6.86460487874102    -0.11255798845995
H   37   1   -11.15126291841033     5.04495968327630    -2.83849898862534
[GTO]
1 0
 s    8 1.00
                 11720  0.00070964594651845
                  1759  0.0054672722921914
                 400.8   0.027823118610189
                 113.7    0.10474773971146
                 37.03    0.28292084635691
                 13.27    0.44849523869833
                 5.025    0.27081688521277
                 1.013    0.01545029160744
 s    8 1.00
                 11720  -0.00031444341168873
                  1759  -0.0024821376810179
                 400.8  -0.012316355381583
                 113.7  -0.050538917343672
                 37.03   -0.13938490331632
                 13.27   -0.32507749481778
                 5.025   -0.22984830758785
                 1.013     1.0953793467883
 s    1 1.00
                0.3023                   1
 p    3 1.00
                  17.7   0.062679166281506
                 3.854    0.33353656587936
                 1.046    0.74123964163973
 p    1 1.00
                0.2753                   1
 d    1 1.00
                 1.185                   1

2 0
 s    3 1.00
                 13.01   0.033498726389998
                 1.962    0.23480080117413
                0.4446     0.8136829578829
 s    1 1.00
                 0.122                   1
 p    1 1.00
                 0.727                   1

3 0
 s    3 1.00
                 13.01   0.033498726389998
                 1.962    0.23480080117413
                0.4446     0.8136829578829
 s    1 1.00
                 0.122                   1
 p    1 1.00
                 0.727                   1

4 0
 s    8 1.00
                 11720  0.00070964594651845
                  1759  0.0054672722921914
                 400.8   0.027823118610189
                 113.7    0.10474773971146
                 37.03    0.28292084635691
                 13.27    0.44849523869833
                 5.025    0.27081688521277
                 1.013    0.01545029160744
 s    8 1.00
                 11720  -0.00031444341168873
                  1759  -0.0024821376810179
                 400.8  -0.012316355381583
                 113.7  -0.050538917343672
                 37.03   -0.13938490331632
                 13.27   -0.32507749481778
                 5.025   -0.22984830758785
                 1.013     1.0953793467883
 s    1 1.00
                0.3023                   1
 p    3 1.00
                  17.7   0.062679166281506
                 3.854    0.33353656587936
                 1.046    0.74123964163973
 p    1 1.00
                0.2753                   1
 d    1 1.00
                 1.185                   1

5 0
 s    8 1.00
                  6665  0.00069158396281299
                  1000  0.0053257961529341
                   228   0.027060721042034
                 64.71    0.10165684614077
                 21.06     0.2745748236174
                 7.495    0.44829431892377
                 2.797    0.28490261071525
                0.5215   0.015194859206082
 s    8 1.00
                  6665  -0.00029326965268655
                  1000  -0.0023180354739745
                   228  -0.011499786038565
                 64.71  -0.046826727009787
                 21.06   -0.12846616875047
                 7.495   -0.30126627246289
                 2.797   -0.25563070233011
                0.5215      1.093793361012
 s    1 1.00
                0.1596                   1
 p    3 1.00
                 9.439   0.056979251590039
                 2.002    0.31320721150073
                0.5456    0.76037674173753
 p    1 1.00
                0.1517                   1
 d    1 1.00
                  0.55                   1

6 0
 s    8 1.00
                  6665  0.00069158396281299
                  1000  0.0053257961529341
                   228   0.027060721042034
                 64.71    0.10165684614077
                 21.06     0.2745748236174
                 7.495    0.44829431892377
                 2.797    0.28490261071525
                0.5215   0.015194859206082
 s    8 1.00
                  6665  -0.00029326965268655
                  1000  -0.0023180354739745
                   228  -0.011499786038565
                 64.71  -0.046826727009787
                 21.06   -0.12846616875047
                 7.495   -0.30126627246289
                 2.797   -0.25563070233011
                0.5215      1.093793361012
 s    1 1.00
                0.1596                   1
 p    3 1.00
                 9.439   0.056979251590039
                 2.002    0.31320721150073
                0.5456    0.76037674173753
 p    1 1.00
                0.1517                   1
 d    1 1.00
                  0.55                   1

7 0
 s    8 1.00
                  6665  0.00069158396281299
                  1000  0.0053257961529341
                   228   0.027060721042034
                 64.71    0.10165684614077
                 21.06     0.2745748236174
                 7.495    0.44829431892377
                 2.797    0.28490261071525
                0.5215   0.015194859206082
 s    8 1.00
                  6665  -0.00029326965268655
                  1000  -0.0023180354739745
                   228  -0.011499786038565
                 64.71  -0.046826727009787
                 21.06   -0.12846616875047
                 7.495   -0.30126627246289
                 2.797   -0.25563070233011
                0.5215      1.093793361012
 s    1 1.00
                0.1596                   1
 p    3 1.00
                 9.439   0.056979251590039
                 2.002    0.31320721150073
                0.5456    0.76037674173753
 p    1 1.00
                0.1517                   1
 d    1 1.00
                  0.55                   1

8 0
 s    3 1.00
                 13.01   0.033498726389998
                 1.962    0.23480080117413
                0.4446     0.8136829578829
 s    1 1.00
                 0.122                   1
 p    1 1.00
                 0.727                   1

9 0
 s    8 1.00
                  6665  0.00069158396281299
                  1000  0.0053257961529341
                   228   0.027060721042034
                 64.71    0.10165684614077
                 21.06     0.2745748236174
                 7.495    0.44829431892377
                 2.797    0.28490261071525
                0.5215   0.015194859206082
 s    8 1.00
                  6665  -0.00029326965268655
                  1000  -0.0023180354739745
                   228  -0.011499786038565
                 64.71  -0.046826727009787
                 21.06   -0.12846616875047
                 7.495   -0.30126627246289
                 2.797   -0.25563070233011
                0.5215      1.093793361012
 s    1 1.00
                0.1596                   1
 p    3 1.00
                 9.439   0.056979251590039
                 2.002    0.31320721150073
                0.5456    0.76037674173753
 p    1 1.00
                0.1517                   1
 d    1 1.00
                  0.55                   1

10 0
 s    3 1.00
                 13.01   0.033498726389998
                 1.962    0.23480080117413
                0.4446     0.8136829578829
 s    1 1.00
                 0.122                   1
 p    1 1.00
                 0.727                   1

11 0
 s    3 1.00
                 13.01   0.033498726389998
                 1.962    0.23480080117413
                0.4446     0.8136829578829
 s    1 1.00
                 0.122                   1
 p    1 1.00
                 0.727                   1

12 0
 s    3 1.00
                 13.01   0.033498726389998
                 1.962    0.23480080117413
                0.4446     0.8136829578829
 s    1 1.00
                 0.122                   1
 p    1 1.00
                 0.727                   1

13 0
 s    8 1.00
                  6665  0.00069158396281299
                  1000  0.0053257961529341
                   228   0.027060721042034
                 64.71    0.10165684614077
                 21.06     0.2745748236174
                 7.495    0.44829431892377
                 2.797    0.28490261071525
                0.5215   0.015194859206082
 s    8 1.00
                  6665  -0.00029326965268655
                  1000  -0.0023180354739745
                   228  -0.011499786038565
                 64.71  -0.046826727009787
                 21.06   -0.12846616875047
                 7.495   -0.30126627246289
                 2.797   -0.25563070233011
                0.5215      1.093793361012
 s    1 1.00
                0.1596                   1
 p    3 1.00
                 9.439   0.056979251590039
                 2.002    0.31320721150073
                0.5456    0.76037674173753
 p    1 1.00
                0.1517                   1
 d    1 1.00
                  0.55                   1

14 0
 s    3 1.00
                 13.01   0.033498726389998
                 1.962    0.23480080117413
                0.4446     0.8136829578829
 s    1 1.00
                 0.122                   1
 p    1 1.00
                 0.727                   1

15 0
 s    3 1.00
                 13.01   0.033498726389998
                 1.962    0.23480080117413
                0.4446     0.8136829578829
 s    1 1.00
                 0.122                   1
 p    1 1.00
                 0.727                   1

16 0
 s    8 1.00
                  6665  0.00069158396281299
                  1000  0.0053257961529341
                   228   0.027060721042034
                 64.71    0.10165684614077
                 21.06     0.2745748236174
                 7.495    0.44829431892377
                 2.797    0.28490261071525
                0.5215   0.015194859206082
 s    8 1.00
                  6665  -0.00029326965268655
                  1000  -0.0023180354739745
                   228  -0.011499786038565
                 64.71  -0.046826727009787
                 21.06   -0.12846616875047
                 7.495   -0.30126627246289
                 2.797   -0.25563070233011
                0.5215      1.093793361012
 s    1 1.00
                0.1596                   1
 p    3 1.00
                 9.439   0.056979251590039
                 2.002    0.31320721150073
                0.5456    0.76037674173753
 p    1 1.00
                0.1517                   1
 d    1 1.00
                  0.55                   1

17 0
 s    3 1.00
                 13.01   0.033498726389998
                 1.962    0.23480080117413
                0.4446     0.8136829578829
 s    1 1.00
                 0.122                   1
 p    1 1.00
                 0.727                   1

18 0
 s    3 1.00
                 13.01   0.033498726389998
                 1.962    0.23480080117413
                0.4446     0.8136829578829
 s    1 1.00
                 0.122                   1
 p    1 1.00
                 0.727                   1

19 0
 s    8 1.00
                  6665  0.00069158396281299
                  1000  0.0053257961529341
                   228   0.027060721042034
                 64.71    0.10165684614077
                 21.06     0.2745748236174
                 7.495    0.44829431892377
                 2.797    0.28490261071525
                0.5215   0.015194859206082
 s    8 1.00
                  6665  -0.00029326965268655
                  1000  -0.0023180354739745
                   228  -0.011499786038565
                 64.71  -0.046826727009787
                 21.06   -0.12846616875047
                 7.495   -0.30126627246289
                 2.797   -0.25563070233011
                0.5215      1.093793361012
 s    1 1.00
                0.1596                   1
 p    3 1.00
                 9.439   0.056979251590039
                 2.002    0.31320721150073
                0.5456    0.76037674173753
 p    1 1.00
                0.1517                   1
 d    1 1.00
                  0.55                   1

20 0
 s    3 1.00
                 13.01   0.033498726389998
                 1.962    0.23480080117413
                0.4446     0.8136829578829
 s    1 1.00
                 0.122                   1
 p    1 1.00
                 0.727                   1

21 0
 s    8 1.00
                  6665  0.00069158396281299
                  1000  0.0053257961529341
                   228   0.027060721042034
                 64.71    0.10165684614077
                 21.06     0.2745748236174
                 7.495    0.44829431892377
                 2.797    0.28490261071525
                0.5215   0.015194859206082
 s    8 1.00
                  6665  -0.00029326965268655
                  1000  -0.0023180354739745
                   228  -0.011499786038565
                 64.71  -0.046826727009787
                 21.06   -0.12846616875047
                 7.495   -0.30126627246289
                 2.797   -0.25563070233011
                0.5215      1.093793361012
 s    1 1.00
                0.1596                   1
 p    3 1.00
                 9.439   0.056979251590039
                 2.002    0.31320721150073
                0.5456    0.76037674173753
 p    1 1.00
                0.1517                   1
 d    1 1.00
                  0.55                   1

22 0
 s    3 1.00
                 13.01   0.033498726389998
                 1.962    0.23480080117413
                0.4446     0.8136829578829
 s    1 1.00
                 0.122                   1
 p    1 1.00
                 0.727                   1

23 0
 s    3 1.00
                 13.01   0.033498726389998
                 1.962    0.23480080117413
                0.4446     0.8136829578829
 s    1 1.00
                 0.122                   1
 p    1 1.00
                 0.727                   1

24 0
 s    3 1.00
                 13.01   0.033498726389998
                 1.962    0.23480080117413
                0.4446     0.8136829578829
 s    1 1.00
                 0.122                   1
 p    1 1.00
                 0.727                   1

25 0
 s    8 1.00
                  6665  0.00069158396281299
                  1000  0.0053257961529341
                   228   0.027060721042034
                 64.71    0.10165684614077
                 21.06     0.2745748236174
                 7.495    0.44829431892377
                 2.797    0.28490261071525
                0.5215   0.015194859206082
 s    8 1.00
                  6665  -0.00029326965268655
                  1000  -0.0023180354739745
                   228  -0.011499786038565
                 64.71  -0.046826727009787
                 21.06   -0.12846616875047
                 7.495   -0.30126627246289
                 2.797   -0.25563070233011
                0.5215      1.093793361012
 s    1 1.00
                0.1596                   1
 p    3 1.00
                 9.439   0.056979251590039
                 2.002    0.31320721150073
                0.5456    0.76037674173753
 p    1 1.00
                0.1517                   1
 d    1 1.00
                  0.55                   1

26 0
 s    3 1.00
                 13.01   0.033498726389998
                 1.962    0.23480080117413
                0.4446     0.8136829578829
 s    1 1.00
                 0.122                   1
 p    1 1.00
                 0.727                   1

27 0
 s    3 1.00
                 13.01   0.033498726389998
                 1.962    0.23480080117413
                0.4446     0.8136829578829
 s    1 1.00
                 0.122                   1
 p    1 1.00
                 0.727                   1

28 0
 s    8 1.00
                  6665  0.00069158396281299
                  1000  0.0053257961529341
                   228   0.027060721042034
                 64.71    0.10165684614077
                 21.06     0.2745748236174
                 7.495    0.44829431892377
                 2.797    0.28490261071525
                0.5215   0.015194859206082
 s    8 1.00
                  6665  -0.00029326965268655
                  1000  -0.0023180354739745
                   228  -0.011499786038565
                 64.71  -0.046826727009787
                 21.06   -0.12846616875047
                 7.495   -0.30126627246289
                 2.797   -0.25563070233011
                0.5215      1.093793361012
 s    1 1.00
                0.1596                   1
 p    3 1.00
                 9.439   0.056979251590039
                 2.002    0.31320721150073
                0.5456    0.76037674173753
 p    1 1.00
                0.1517                   1
 d    1 1.00
                  0.55                   1

29 0
 s    3 1.00
                 13.01   0.033498726389998
                 1.962    0.23480080117413
                0.4446     0.8136829578829
 s    1 1.00
                 0.122                   1
 p    1 1.00
                 0.727                   1

30 0
 s    3 1.00
                 13.01   0.033498726389998
                 1.962    0.23480080117413
                0.4446     0.8136829578829
 s    1 1.00
                 0.122                   1
 p    1 1.00
                 0.727                   1

31 0
 s    8 1.00
                  6665  0.00069158396281299
                  1000  0.0053257961529341
                   228   0.027060721042034
                 64.71    0.10165684614077
                 21.06     0.2745748236174
                 7.495    0.44829431892377
                 2.797    0.28490261071525
                0.5215   0.015194859206082
 s    8 1.00
                  6665  -0.00029326965268655
                  1000  -0.0023180354739745
                   228  -0.011499786038565
                 64.71  -0.046826727009787
                 21.06   -0.12846616875047
                 7.495   -0.30126627246289
                 2.797   -0.25563070233011
                0.5215      1.093793361012
 s    1 1.00
                0.1596                   1
 p    3 1.00
                 9.439   0.056979251590039
                 2.002    0.31320721150073
                0.5456    0.76037674173753
 p    1 1.00
                0.1517                   1
 d    1 1.00
                  0.55                   1

32 0
 s    3 1.00
                 13.01   0.033498726389998
                 1.962    0.23480080117413
                0.4446     0.8136829578829
 s    1 1.00
                 0.122                   1
 p    1 1.00
                 0.727                   1

33 0
 s    3 1.00
                 13.01   0.033498726389998
                 1.962    0.23480080117413
                0.4446     0.8136829578829
 s    1 1.00
                 0.122                   1
 p    1 1.00
                 0.727                   1

34 0
 s    3 1.00
                 13.01   0.033498726389998
                 1.962    0.23480080117413
                0.4446     0.8136829578829
 s    1 1.00
                 0.122                   1
 p    1 1.00
                 0.727                   1

35 0
 s    3 1.00
                 13.01   0.033498726389998
                 1.962    0.23480080117413
                0.4446     0.8136829578829
 s    1 1.00
                 0.122                   1
 p    1 1.00
                 0.727                   1

36 0
 s    3 1.00
                 13.01   0.033498726389998
                 1.962    0.23480080117413
                0.4446     0.8136829578829
 s    1 1.00
                 0.122                   1
 p    1 1.00
                 0.727                   1

37 0
 s    3 1.00
                 13.01   0.033498726389998
                 1.962    0.23480080117413
                0.4446     0.8136829578829
 s    1 1.00
                 0.122                   1
 p    1 1.00
                 0.727                   1

[5d]
[7f]
[9g]

[MO]
 Sym= A
 Ene=               0
 Spin= Alpha
 Occup=    1.00000
   1    -4.6023671991892e-08
   2    2.3010002970502e-06
   3    7.0074866959584e-06
   4    -1.0979523565824e-06
   5    2.8350871440104e-06
   6    -4.596273197653e-06
   7    -4.8539148795569e-07
   8    1.1650173646135e-06
   9    -4.9553938480157e-06
  10    1.0303588624222e-06
  11    8.0682016807847e-08
  12    -1.9184196754578e-07
  13    -9.2373953251064e-08
  14    -7.7830207284613e-09
  15    4.4058682326518e-06
  16    -5.7541259140385e-06
  17    3.0690961833528e-07
  18    -2.2592870164686e-07
  19    -4.1409883853041e-06
  20    2.5117239705993e-06
  21    -6.2458461417528e-08
  22    -9.0397006340437e-08
  23    -2.4295234131968e-07
  24    -1.7016612411642e-07
  25    9.3881274587816e-06
  26    1.9470427334863e-05
  27    6.7671358391929e-05
  28    -4.2581212038891e-06
  29    -1.6095811390789e-05
  30    -7.508966119421e-06
  31    -2.9115922424706e-05
  32    9.3810356189619e-06
  33    -2.3980062863531e-05
  34    3.5672917406542e-06
  35    1.8656429269758e-06
  36    -6.5721071350583e-07
  37    -3.437717942339e-06
  38    5.282815816981e-06
  39     3.84037102939e-05
  40    0.00011015643271545
  41    -0.00026655427843018
  42    -7.0986460821626e-05
  43    4.8076270313085e-05
  44    -4.1126260272965e-05
  45    0.00043208554039697
  46    -0.00028496052495121
  47    -1.6290917643763e-05
  48    -2.9402531286995e-06
  49    -2.1140584563863e-05
  50    1.3693011194509e-05
  51    -1.1670926625309e-05
  52    2.297607664485e-05
  53    4.6968067504509e-05
  54    6.1124874045883e-05
  55    -0.00042300218556608
  56    2.1598419101002e-05
  57    -1.1067449165823e-05
  58    -2.5534895312787e-05
  59    0.00015865632978489
  60    -0.00016337857438362
  61    -0.00013298016559435
  62    -1.4266851720666e-06
  63    1.2804866342461e-05
  64    -7.3571356088482e-06
  65    -5.37767217012e-06
  66    5.4989310974612e-06
  67    8.1965092507023e-05
  68    2.7304271423884e-06
  69    4.5487587288301e-05
  70    0.00012458497438128
  71    -4.7980654986786e-05
  72    -0.00011159654450111
  73    0.00066888159841119
  74    -0.00036199273181749
  75    7.7741643975696e-05
  76    -1.6129237631025e-05
  77    5.0612442247125e-05
  78    -2.0956715445324e-05
  79    -2.0820731896804e-06
  80    -1.2195568621158e-05
  81    2.551435888794e-05
  82    -2.7822332667723e-05
  83    6.3398300202336e-06
  84    -1.5953809834544e-06
  85    2.0213819930101e-06
  86    4.6808162375724e-06
  87    6.8718008356228e-06
  88    0.00012840707433994
  89    -1.5998769242488e-05
  90    -1.856430947843e-06
  91    7.158612334229e-06
  92    7.372056781027e-05
  93    -5.0447966434007e-05
  94    3.6026013497731e-05
  95    -1.5695113907292e-06
  96    -7.8155116640646e-06
  97    3.2802290837641e-06
  98    2.2450891316969e-06
  99    3.8108321413804e-07
 100    1.8147994849308e-05
 101    -1.0433280284684e-05
 102    -7.733222043663e-06
 103    5.0058528476319e-06
 104    3.1028777725384e-06
 105    5.3145350078965e-05
 106    -3.7347532868604e-05
 107    -1.9898128023362e-05
 108    1.8096608573721e-05
 109    -1.2225562605328e-05
 110    4.6661529105976e-05
 111    -5.5769301554279e-05
 112    -2.0475642962269e-05
 113    8.3311538455807e-06
 114    -1.395551739072e-05
 115    -6.8013885775526e-05
 116    0.00030026103242547
 117    -0.00074094393193878
 118    -0.00036361434121158
 119    0.00027394802544843
 120    -0.00030736932134885
 121    0.00049391491065732
 122    -0.00033704334038254
 123    2.6736458535102e-05
 124    2.6848622156318e-05
 125    -4.8140926170688e-06
 126    1.9455714694178e-06
 127    -5.2902360330265e-06
 128    8.0994181187179e-06
 129    -2.7125967755331e-06
 130    5.7890271179595e-07
 131    -7.6164835302952e-06
 132    2.299635955469e-06
 133    -1.0181694211574e-06
 134    2.0298120082135e-05
 135    3.7906424142128e-05
 136    4.7528891311096e-06
 137    -1.6126978863636e-06
 138    3.7155212544158e-06
 139    9.2145676163054e-06
 140    1.4723116571549e-05
 141    -0.00011550638127819
 142    4.3950805172354e-06
 143    -4.3188413395271e-06
 144    1.6889176893687e-06
 145    6.1513796162282e-05
 146    -1.7367683519355e-05
 147    -9.5244869991223e-05
 148    -5.2299409114045e-07
 149    5.0752151509857e-06
 150    -3.7703302161779e-06
 151    -1.8481691964877e-06
 152    4.4193686487791e-06
 153    -1.9272766366656e-05
 154    2.5970343386803e-06
 155    -3.6791769911123e-05
 156    2.4267540266411e-05
 157    -8.4618736249495e-06
 158    -3.5475846225373e-05
 159    -5.8550141472335e-05
 160    -3.4616508650223e-05
 161    2.1631986093105e-05
 162    -7.8483250990928e-06
 163    0.00074346539123883
 164    0.00042904870084784
 165    -3.4768057175159e-05
 166    0.00061354802921975
 167    -0.00024188827626963
 168    -0.00052566810184822
 169    0.0016651589178033
 170    -0.0010102642980108
 171    0.00018438026939378
 172    -5.5740183190011e-05
 173    0.00017517302473532
 174    -1.7949441358063e-05
 175    -8.0145439744739e-05
 176    9.8306049204395e-06
 177    1.1449192992369e-05
 178    1.8729039450169e-05
 179    -3.0205849913587e-06
 180    -1.56625082156e-07
 181    2.2752691033042e-06
 182    5.5955765346881e-07
 183    1.2632863476823e-06
 184    -1.353567663566e-05
 185    2.142385713254e-07
 186    -1.2784946674206e-06
 187    -3.6565699757086e-07
 188    1.078530816042e-05
 189    1.3526488973908e-05
 190    9.2643738982719e-07
 191    9.558799754947e-07
 192    2.1006271107287e-07
 193    7.6926705339244e-07
 194    6.234725119796e-07
 195    -2.1211655432021e-06
 196    2.2723483012638e-06
 197    -1.7279607460907e-05
 198    -1.9725695216771e-06
 199    -2.4624610790701e-06
 200    2.6654969668364e-06
 201    0.00043615511784686
 202    0.00029545763418976
 203    -5.5235384195932e-05
 204    8.7112966459521e-05
 205    -9.2514418973108e-06
 206    0.00029416922770499
 207    6.6189750815534e-05
 208    -9.7548336837373e-05
 209    3.2636386804318e-06
 210    -3.0577184925537e-05
 211    -0.0027382656802406
 212    -0.0014971990457881
 213    -0.0022784287649466
 214    -0.00046544456257214
 215     0.001798187301455
 216    -0.0015135017303317
 217    0.00090434978671514
 218    0.00013019627388377
 219    -0.00043171174759693
 220    2.4525979292987e-05
 221    0.00015946251410648
 222    -8.4349694047469e-05
 223    0.00010996119417578
 224    -0.00026524275450786
 225    -8.1441551201173e-07
 226    -7.3057332168836e-06
 227    -8.2443471915073e-08
 228    -4.235953026741e-07
 229    4.0104797083834e-07
 230    7.926513495757e-07
 231    -8.301829518754e-07
 232    -2.1668575910383e-07
 233    -5.8563440284078e-07
 234    -6.9465680896188e-07
 235    3.3318339679386e-06
 236    5.6481546944003e-06
 237    -1.1788165054459e-05
 238    -4.9823494141343e-07
 239    -9.5667196860546e-07
 240    8.9995591717377e-07
 241    1.2289289331439e-05
 242    7.6448421579803e-06
 243    -1.6053532665777e-05
 244    -1.4923122923091e-07
 245    1.4997089271636e-06
 246    -5.4590721626193e-07
 247    -1.7458797827394e-07
 248    -7.2915763877018e-08
 249    -0.00084467412251367
 250    -0.00027971456715064
 251    5.5740905504324e-05
 252    0.00010028145300856
 253    9.024714655588e-05
 254    -0.0023554773441191
 255    -0.0009520765874968
 256    -0.00010325566283404
 257    -0.00017449320306091
 258    0.00011359565636012
 259      -1.0023858730678
 260    -0.0042429999666671
 261     0.010261045563894
 262    0.00094188942919811