[Molden Format]
made by pyscf v[2.0.1]
[Atoms] (AU)
O   1   8     0.00000000000000     0.00000000000000    10.18586013564153
H   2   1     0.00000000000000     0.00000000000000     8.36245831374057
H   3   1    -0.05031916615174     1.78353065140343    10.56173183210820
O   4   8     0.00000000000000     0.00000000000000     2.31533471513237
C   5   6     0.00000000000000     0.00000000000000     0.00000000000000
C   6   6     2.01118073026938    -1.40227222164369    -1.50774939176400
C   7   6    -2.01249334291722     1.41331050329955    -1.50315905028694
H   8   1     3.32037363730244    -2.26721897153159    -0.13599698591495
C   9   6     3.45899267434009     0.28739631745591    -3.37437943254505
H   10   1     1.07662969841332    -2.94725144642667    -2.56541439481080
H   11   1    -2.67503415753480     0.18421555839588    -3.06194479365997
H   12   1    -1.07974048864772     3.03851734677796    -2.43674295017013
C   13   6    -4.21607110578555     2.32938802552922     0.11994162256091
H   14   1     4.24440173074564     1.93368664142019    -2.34976285512790
H   15   1     2.15020713235517     1.04714335134846    -4.81494497423699
C   16   6     5.60746363007797    -1.12419643481196    -4.70268606082550
H   17   1    -3.46838323670267     3.50951302338067     1.66946842715333
H   18   1    -5.11873485366228     0.68575958301209     1.04047743976495
C   19   6    -6.18314754751344     3.80909592987882    -1.39656589068747
H   20   1     6.93011263717176    -1.87550812453645    -3.26656317360070
C   21   6     7.06356622236532     0.52877932406334    -6.57829775293605
H   22   1     4.82318879258361    -2.78573437948532    -5.70504560381835
H   23   1    -6.91582688743803     2.61304780074712    -2.95074552451969
H   24   1    -5.26532430573853     5.45420349051338    -2.31005832200284
C   25   6    -8.39941882261433     4.73263980500213     0.21800571437956
H   26   1     7.83338371486801     2.19084139882824    -5.57093109900697
H   27   1     5.73544244039420     1.27376866537418    -8.01071492370229
C   28   6     9.21124858443101    -0.89699110072176    -7.88926949186242
H   29   1    -7.66272760055236     5.92277078003992     1.77035591474408
H   30   1    -9.31497248082589     3.08753015622020     1.12614408368786
C   31   6   -10.35481709231879     6.21833079391143    -1.30905206253246
H   32   1    10.58815905329501    -1.61074586756696    -6.49512691622620
H   33   1    10.23506248045667     0.32468009384095    -9.23072870921204
H   34   1     8.47665842847139    -2.53598436989925    -8.94921964622535
H   35   1    -9.48948872868064     7.90013588951020    -2.18823918416067
H   36   1   -11.93332513000955     6.86460487874102    -0.11255798845995
H   37   1   -11.15126291841033     5.04495968327630    -2.83849898862534
[GTO]
1 0
 s    8 1.00
                 11720  0.00070964594651845
                  1759  0.0054672722921914
                 400.8   0.027823118610189
                 113.7    0.10474773971146
                 37.03    0.28292084635691
                 13.27    0.44849523869833
                 5.025    0.27081688521277
                 1.013    0.01545029160744
 s    8 1.00
                 11720  -0.00031444341168873
                  1759  -0.0024821376810179
                 400.8  -0.012316355381583
                 113.7  -0.050538917343672
                 37.03   -0.13938490331632
                 13.27   -0.32507749481778
                 5.025   -0.22984830758785
                 1.013     1.0953793467883
 s    1 1.00
                0.3023                   1
 p    3 1.00
                  17.7   0.062679166281506
                 3.854    0.33353656587936
                 1.046    0.74123964163973
 p    1 1.00
                0.2753                   1
 d    1 1.00
                 1.185                   1

2 0
 s    3 1.00
                 13.01   0.033498726389998
                 1.962    0.23480080117413
                0.4446     0.8136829578829
 s    1 1.00
                 0.122                   1
 p    1 1.00
                 0.727                   1

3 0
 s    3 1.00
                 13.01   0.033498726389998
                 1.962    0.23480080117413
                0.4446     0.8136829578829
 s    1 1.00
                 0.122                   1
 p    1 1.00
                 0.727                   1

4 0
 s    8 1.00
                 11720  0.00070964594651845
                  1759  0.0054672722921914
                 400.8   0.027823118610189
                 113.7    0.10474773971146
                 37.03    0.28292084635691
                 13.27    0.44849523869833
                 5.025    0.27081688521277
                 1.013    0.01545029160744
 s    8 1.00
                 11720  -0.00031444341168873
                  1759  -0.0024821376810179
                 400.8  -0.012316355381583
                 113.7  -0.050538917343672
                 37.03   -0.13938490331632
                 13.27   -0.32507749481778
                 5.025   -0.22984830758785
                 1.013     1.0953793467883
 s    1 1.00
                0.3023                   1
 p    3 1.00
                  17.7   0.062679166281506
                 3.854    0.33353656587936
                 1.046    0.74123964163973
 p    1 1.00
                0.2753                   1
 d    1 1.00
                 1.185                   1

5 0
 s    8 1.00
                  6665  0.00069158396281299
                  1000  0.0053257961529341
                   228   0.027060721042034
                 64.71    0.10165684614077
                 21.06     0.2745748236174
                 7.495    0.44829431892377
                 2.797    0.28490261071525
                0.5215   0.015194859206082
 s    8 1.00
                  6665  -0.00029326965268655
                  1000  -0.0023180354739745
                   228  -0.011499786038565
                 64.71  -0.046826727009787
                 21.06   -0.12846616875047
                 7.495   -0.30126627246289
                 2.797   -0.25563070233011
                0.5215      1.093793361012
 s    1 1.00
                0.1596                   1
 p    3 1.00
                 9.439   0.056979251590039
                 2.002    0.31320721150073
                0.5456    0.76037674173753
 p    1 1.00
                0.1517                   1
 d    1 1.00
                  0.55                   1

6 0
 s    8 1.00
                  6665  0.00069158396281299
                  1000  0.0053257961529341
                   228   0.027060721042034
                 64.71    0.10165684614077
                 21.06     0.2745748236174
                 7.495    0.44829431892377
                 2.797    0.28490261071525
                0.5215   0.015194859206082
 s    8 1.00
                  6665  -0.00029326965268655
                  1000  -0.0023180354739745
                   228  -0.011499786038565
                 64.71  -0.046826727009787
                 21.06   -0.12846616875047
                 7.495   -0.30126627246289
                 2.797   -0.25563070233011
                0.5215      1.093793361012
 s    1 1.00
                0.1596                   1
 p    3 1.00
                 9.439   0.056979251590039
                 2.002    0.31320721150073
                0.5456    0.76037674173753
 p    1 1.00
                0.1517                   1
 d    1 1.00
                  0.55                   1

7 0
 s    8 1.00
                  6665  0.00069158396281299
                  1000  0.0053257961529341
                   228   0.027060721042034
                 64.71    0.10165684614077
                 21.06     0.2745748236174
                 7.495    0.44829431892377
                 2.797    0.28490261071525
                0.5215   0.015194859206082
 s    8 1.00
                  6665  -0.00029326965268655
                  1000  -0.0023180354739745
                   228  -0.011499786038565
                 64.71  -0.046826727009787
                 21.06   -0.12846616875047
                 7.495   -0.30126627246289
                 2.797   -0.25563070233011
                0.5215      1.093793361012
 s    1 1.00
                0.1596                   1
 p    3 1.00
                 9.439   0.056979251590039
                 2.002    0.31320721150073
                0.5456    0.76037674173753
 p    1 1.00
                0.1517                   1
 d    1 1.00
                  0.55                   1

8 0
 s    3 1.00
                 13.01   0.033498726389998
                 1.962    0.23480080117413
                0.4446     0.8136829578829
 s    1 1.00
                 0.122                   1
 p    1 1.00
                 0.727                   1

9 0
 s    8 1.00
                  6665  0.00069158396281299
                  1000  0.0053257961529341
                   228   0.027060721042034
                 64.71    0.10165684614077
                 21.06     0.2745748236174
                 7.495    0.44829431892377
                 2.797    0.28490261071525
                0.5215   0.015194859206082
 s    8 1.00
                  6665  -0.00029326965268655
                  1000  -0.0023180354739745
                   228  -0.011499786038565
                 64.71  -0.046826727009787
                 21.06   -0.12846616875047
                 7.495   -0.30126627246289
                 2.797   -0.25563070233011
                0.5215      1.093793361012
 s    1 1.00
                0.1596                   1
 p    3 1.00
                 9.439   0.056979251590039
                 2.002    0.31320721150073
                0.5456    0.76037674173753
 p    1 1.00
                0.1517                   1
 d    1 1.00
                  0.55                   1

10 0
 s    3 1.00
                 13.01   0.033498726389998
                 1.962    0.23480080117413
                0.4446     0.8136829578829
 s    1 1.00
                 0.122                   1
 p    1 1.00
                 0.727                   1

11 0
 s    3 1.00
                 13.01   0.033498726389998
                 1.962    0.23480080117413
                0.4446     0.8136829578829
 s    1 1.00
                 0.122                   1
 p    1 1.00
                 0.727                   1

12 0
 s    3 1.00
                 13.01   0.033498726389998
                 1.962    0.23480080117413
                0.4446     0.8136829578829
 s    1 1.00
                 0.122                   1
 p    1 1.00
                 0.727                   1

13 0
 s    8 1.00
                  6665  0.00069158396281299
                  1000  0.0053257961529341
                   228   0.027060721042034
                 64.71    0.10165684614077
                 21.06     0.2745748236174
                 7.495    0.44829431892377
                 2.797    0.28490261071525
                0.5215   0.015194859206082
 s    8 1.00
                  6665  -0.00029326965268655
                  1000  -0.0023180354739745
                   228  -0.011499786038565
                 64.71  -0.046826727009787
                 21.06   -0.12846616875047
                 7.495   -0.30126627246289
                 2.797   -0.25563070233011
                0.5215      1.093793361012
 s    1 1.00
                0.1596                   1
 p    3 1.00
                 9.439   0.056979251590039
                 2.002    0.31320721150073
                0.5456    0.76037674173753
 p    1 1.00
                0.1517                   1
 d    1 1.00
                  0.55                   1

14 0
 s    3 1.00
                 13.01   0.033498726389998
                 1.962    0.23480080117413
                0.4446     0.8136829578829
 s    1 1.00
                 0.122                   1
 p    1 1.00
                 0.727                   1

15 0
 s    3 1.00
                 13.01   0.033498726389998
                 1.962    0.23480080117413
                0.4446     0.8136829578829
 s    1 1.00
                 0.122                   1
 p    1 1.00
                 0.727                   1

16 0
 s    8 1.00
                  6665  0.00069158396281299
                  1000  0.0053257961529341
                   228   0.027060721042034
                 64.71    0.10165684614077
                 21.06     0.2745748236174
                 7.495    0.44829431892377
                 2.797    0.28490261071525
                0.5215   0.015194859206082
 s    8 1.00
                  6665  -0.00029326965268655
                  1000  -0.0023180354739745
                   228  -0.011499786038565
                 64.71  -0.046826727009787
                 21.06   -0.12846616875047
                 7.495   -0.30126627246289
                 2.797   -0.25563070233011
                0.5215      1.093793361012
 s    1 1.00
                0.1596                   1
 p    3 1.00
                 9.439   0.056979251590039
                 2.002    0.31320721150073
                0.5456    0.76037674173753
 p    1 1.00
                0.1517                   1
 d    1 1.00
                  0.55                   1

17 0
 s    3 1.00
                 13.01   0.033498726389998
                 1.962    0.23480080117413
                0.4446     0.8136829578829
 s    1 1.00
                 0.122                   1
 p    1 1.00
                 0.727                   1

18 0
 s    3 1.00
                 13.01   0.033498726389998
                 1.962    0.23480080117413
                0.4446     0.8136829578829
 s    1 1.00
                 0.122                   1
 p    1 1.00
                 0.727                   1

19 0
 s    8 1.00
                  6665  0.00069158396281299
                  1000  0.0053257961529341
                   228   0.027060721042034
                 64.71    0.10165684614077
                 21.06     0.2745748236174
                 7.495    0.44829431892377
                 2.797    0.28490261071525
                0.5215   0.015194859206082
 s    8 1.00
                  6665  -0.00029326965268655
                  1000  -0.0023180354739745
                   228  -0.011499786038565
                 64.71  -0.046826727009787
                 21.06   -0.12846616875047
                 7.495   -0.30126627246289
                 2.797   -0.25563070233011
                0.5215      1.093793361012
 s    1 1.00
                0.1596                   1
 p    3 1.00
                 9.439   0.056979251590039
                 2.002    0.31320721150073
                0.5456    0.76037674173753
 p    1 1.00
                0.1517                   1
 d    1 1.00
                  0.55                   1

20 0
 s    3 1.00
                 13.01   0.033498726389998
                 1.962    0.23480080117413
                0.4446     0.8136829578829
 s    1 1.00
                 0.122                   1
 p    1 1.00
                 0.727                   1

21 0
 s    8 1.00
                  6665  0.00069158396281299
                  1000  0.0053257961529341
                   228   0.027060721042034
                 64.71    0.10165684614077
                 21.06     0.2745748236174
                 7.495    0.44829431892377
                 2.797    0.28490261071525
                0.5215   0.015194859206082
 s    8 1.00
                  6665  -0.00029326965268655
                  1000  -0.0023180354739745
                   228  -0.011499786038565
                 64.71  -0.046826727009787
                 21.06   -0.12846616875047
                 7.495   -0.30126627246289
                 2.797   -0.25563070233011
                0.5215      1.093793361012
 s    1 1.00
                0.1596                   1
 p    3 1.00
                 9.439   0.056979251590039
                 2.002    0.31320721150073
                0.5456    0.76037674173753
 p    1 1.00
                0.1517                   1
 d    1 1.00
                  0.55                   1

22 0
 s    3 1.00
                 13.01   0.033498726389998
                 1.962    0.23480080117413
                0.4446     0.8136829578829
 s    1 1.00
                 0.122                   1
 p    1 1.00
                 0.727                   1

23 0
 s    3 1.00
                 13.01   0.033498726389998
                 1.962    0.23480080117413
                0.4446     0.8136829578829
 s    1 1.00
                 0.122                   1
 p    1 1.00
                 0.727                   1

24 0
 s    3 1.00
                 13.01   0.033498726389998
                 1.962    0.23480080117413
                0.4446     0.8136829578829
 s    1 1.00
                 0.122                   1
 p    1 1.00
                 0.727                   1

25 0
 s    8 1.00
                  6665  0.00069158396281299
                  1000  0.0053257961529341
                   228   0.027060721042034
                 64.71    0.10165684614077
                 21.06     0.2745748236174
                 7.495    0.44829431892377
                 2.797    0.28490261071525
                0.5215   0.015194859206082
 s    8 1.00
                  6665  -0.00029326965268655
                  1000  -0.0023180354739745
                   228  -0.011499786038565
                 64.71  -0.046826727009787
                 21.06   -0.12846616875047
                 7.495   -0.30126627246289
                 2.797   -0.25563070233011
                0.5215      1.093793361012
 s    1 1.00
                0.1596                   1
 p    3 1.00
                 9.439   0.056979251590039
                 2.002    0.31320721150073
                0.5456    0.76037674173753
 p    1 1.00
                0.1517                   1
 d    1 1.00
                  0.55                   1

26 0
 s    3 1.00
                 13.01   0.033498726389998
                 1.962    0.23480080117413
                0.4446     0.8136829578829
 s    1 1.00
                 0.122                   1
 p    1 1.00
                 0.727                   1

27 0
 s    3 1.00
                 13.01   0.033498726389998
                 1.962    0.23480080117413
                0.4446     0.8136829578829
 s    1 1.00
                 0.122                   1
 p    1 1.00
                 0.727                   1

28 0
 s    8 1.00
                  6665  0.00069158396281299
                  1000  0.0053257961529341
                   228   0.027060721042034
                 64.71    0.10165684614077
                 21.06     0.2745748236174
                 7.495    0.44829431892377
                 2.797    0.28490261071525
                0.5215   0.015194859206082
 s    8 1.00
                  6665  -0.00029326965268655
                  1000  -0.0023180354739745
                   228  -0.011499786038565
                 64.71  -0.046826727009787
                 21.06   -0.12846616875047
                 7.495   -0.30126627246289
                 2.797   -0.25563070233011
                0.5215      1.093793361012
 s    1 1.00
                0.1596                   1
 p    3 1.00
                 9.439   0.056979251590039
                 2.002    0.31320721150073
                0.5456    0.76037674173753
 p    1 1.00
                0.1517                   1
 d    1 1.00
                  0.55                   1

29 0
 s    3 1.00
                 13.01   0.033498726389998
                 1.962    0.23480080117413
                0.4446     0.8136829578829
 s    1 1.00
                 0.122                   1
 p    1 1.00
                 0.727                   1

30 0
 s    3 1.00
                 13.01   0.033498726389998
                 1.962    0.23480080117413
                0.4446     0.8136829578829
 s    1 1.00
                 0.122                   1
 p    1 1.00
                 0.727                   1

31 0
 s    8 1.00
                  6665  0.00069158396281299
                  1000  0.0053257961529341
                   228   0.027060721042034
                 64.71    0.10165684614077
                 21.06     0.2745748236174
                 7.495    0.44829431892377
                 2.797    0.28490261071525
                0.5215   0.015194859206082
 s    8 1.00
                  6665  -0.00029326965268655
                  1000  -0.0023180354739745
                   228  -0.011499786038565
                 64.71  -0.046826727009787
                 21.06   -0.12846616875047
                 7.495   -0.30126627246289
                 2.797   -0.25563070233011
                0.5215      1.093793361012
 s    1 1.00
                0.1596                   1
 p    3 1.00
                 9.439   0.056979251590039
                 2.002    0.31320721150073
                0.5456    0.76037674173753
 p    1 1.00
                0.1517                   1
 d    1 1.00
                  0.55                   1

32 0
 s    3 1.00
                 13.01   0.033498726389998
                 1.962    0.23480080117413
                0.4446     0.8136829578829
 s    1 1.00
                 0.122                   1
 p    1 1.00
                 0.727                   1

33 0
 s    3 1.00
                 13.01   0.033498726389998
                 1.962    0.23480080117413
                0.4446     0.8136829578829
 s    1 1.00
                 0.122                   1
 p    1 1.00
                 0.727                   1

34 0
 s    3 1.00
                 13.01   0.033498726389998
                 1.962    0.23480080117413
                0.4446     0.8136829578829
 s    1 1.00
                 0.122                   1
 p    1 1.00
                 0.727                   1

35 0
 s    3 1.00
                 13.01   0.033498726389998
                 1.962    0.23480080117413
                0.4446     0.8136829578829
 s    1 1.00
                 0.122                   1
 p    1 1.00
                 0.727                   1

36 0
 s    3 1.00
                 13.01   0.033498726389998
                 1.962    0.23480080117413
                0.4446     0.8136829578829
 s    1 1.00
                 0.122                   1
 p    1 1.00
                 0.727                   1

37 0
 s    3 1.00
                 13.01   0.033498726389998
                 1.962    0.23480080117413
                0.4446     0.8136829578829
 s    1 1.00
                 0.122                   1
 p    1 1.00
                 0.727                   1

[5d]
[7f]
[9g]

[MO]
 Sym= A
 Ene=               0
 Spin= Alpha
 Occup=    1.00000
   1    1.8283028644691e-07
   2    9.5851213689618e-07
   3    -1.5813439771228e-07
   4    -1.0375248020468e-07
   5    4.5674106150364e-07
   6    -9.7903372528714e-07
   7    -5.8898816516135e-08
   8    5.3772906397852e-07
   9    1.2169663516747e-07
  10    -9.3203719681412e-08
  11    3.1636076591702e-09
  12    -1.1126753083677e-08
  13    -3.0850495999893e-08
  14    -2.5536299545402e-09
  15    1.2250631319075e-06
  16    8.9160873616517e-07
  17    9.2664009853148e-09
  18    5.6934326589181e-09
  19    3.7128681378476e-07
  20    5.4184368867997e-07
  21    -7.6536631842159e-07
  22    -1.0756948200423e-08
  23    6.004095644857e-08
  24    -8.4611393621689e-08
  25    9.9633399637294e-06
  26    2.0191069438271e-05
  27    6.8279059235093e-05
  28    -4.121865346524e-06
  29    -1.620026038834e-05
  30    -6.1261216825434e-06
  31    -2.9070134186662e-05
  32    9.4776431662303e-06
  33    -2.3953727705301e-05
  34    3.3624633987195e-06
  35    1.8608138165935e-06
  36    -6.2109757471519e-07
  37    -3.4299054835035e-06
  38    5.2617082975681e-06
  39    3.7377569531529e-05
  40    0.00010880154745347
  41    -0.00026698095673548
  42    -7.0871777048541e-05
  43    4.7575669341976e-05
  44    -4.1449333968285e-05
  45    0.00043169009597059
  46    -0.00028522032572419
  47    -1.6971558246287e-05
  48    -2.9847504152834e-06
  49    -2.105195494361e-05
  50    1.3613694830833e-05
  51    -1.1618253846043e-05
  52    2.2897904322399e-05
  53    4.6907400878561e-05
  54    6.0912094183537e-05
  55    -0.00042323651371307
  56    2.1817217350413e-05
  57    -1.1213053621979e-05
  58    -2.5649071794197e-05
  59    0.0001590502375748
  60    -0.00016345172669695
  61    -0.00013252699840536
  62    -1.3930544033966e-06
  63    1.2823318742513e-05
  64    -7.3821793685032e-06
  65    -5.3606153149142e-06
  66    5.4956895687301e-06
  67    8.1913537075391e-05
  68    2.7443615377948e-06
  69     4.55971715514e-05
  70    0.0001247979181358
  71    -4.8158337998266e-05
  72    -0.00011135267791563
  73    0.0006687003341704
  74    -0.00036187640075741
  75    7.8315302427608e-05
  76    -1.599756278922e-05
  77    5.0539325583955e-05
  78    -2.0951758554711e-05
  79    -2.1702229341319e-06
  80    -1.2067806265086e-05
  81    2.5495076008737e-05
  82    -2.789444503344e-05
  83    6.3564238345398e-06
  84    -1.6124258845921e-06
  85    2.0487607065817e-06
  86    4.6763064748564e-06
  87    6.8820450725028e-06
  88    0.00012860114081835
  89    -1.6026755550186e-05
  90    -1.8925467301429e-06
  91    7.1890334684464e-06
  92    7.3543583872901e-05
  93    -5.0706758742999e-05
  94    3.5810420249904e-05
  95    -1.5826852007509e-06
  96    -7.804279409548e-06
  97    3.2666961023731e-06
  98    2.2409222679498e-06
  99    3.8887010805239e-07
 100    1.8129801828941e-05
 101    -1.0294066479736e-05
 102    -7.7264911007581e-06
 103    5.0160823967972e-06
 104    3.0679688996703e-06
 105    5.3167069525255e-05
 106    -3.7160886992357e-05
 107    -1.9867121028118e-05
 108    1.8068118580859e-05
 109    -1.2222817715849e-05
 110    4.6725822331309e-05
 111    -5.5471436953355e-05
 112    -2.0449861721966e-05
 113    8.3306188892662e-06
 114    -1.396433145322e-05
 115    -6.8158003197761e-05
 116    0.00029976148133006
 117    -0.00074120885121191
 118    -0.0003637998769182
 119    0.00027388873363022
 120    -0.00030651162283216
 121    0.0004943425775181
 122    -0.00033737211784047
 123    2.8299180623341e-05
 124    2.6807410794175e-05
 125    -4.6910212830094e-06
 126    1.9132671766119e-06
 127    -5.2371337990364e-06
 128    8.0223105248325e-06
 129    -2.6699994198408e-06
 130    7.3883406268191e-07
 131    -7.6132744216536e-06
 132    2.2938062425961e-06
 133    -1.0193856350093e-06
 134    2.029328964424e-05
 135    3.7901388524843e-05
 136    4.7407599609052e-06
 137    -1.6024633111359e-06
 138    3.7419334569605e-06
 139    9.2369121934063e-06
 140    1.4738030763914e-05
 141    -0.00011581777720156
 142    4.4258901577928e-06
 143    -4.341965624323e-06
 144    1.659090475297e-06
 145    6.1648787491449e-05
 146    -1.7401582729939e-05
 147    -9.5148406685475e-05
 148    -5.1755403150849e-07
 149    5.0699051674635e-06
 150    -3.7659932806524e-06
 151    -1.8549921973872e-06
 152    4.4250545797485e-06
 153    -1.900120153236e-05
 154    1.7671655946022e-06
 155    -3.672906357245e-05
 156    2.4292966482529e-05
 157    -8.3691251846245e-06
 158    -3.5395636176933e-05
 159    -5.9268937008444e-05
 160    -3.4654230701162e-05
 161    2.1607166559103e-05
 162    -7.8495618187823e-06
 163    0.00074328416248457
 164    0.0004288827018869
 165    -3.3116407773812e-05
 166    0.00061449656168763
 167    -0.00024252378213426
 168    -0.00052566844319552
 169    0.0016647431393558
 170    -0.0010109273018013
 171    0.00018589285777664
 172    -5.5506167015884e-05
 173    0.00017521463692394
 174    -1.8074097297525e-05
 175    -8.0253932549682e-05
 176    1.0022499366157e-05
 177    1.1438848876415e-05
 178    1.8737704428159e-05
 179    -3.0294504516162e-06
 180    -1.5850658261169e-07
 181    2.2725639626344e-06
 182    5.5289257703823e-07
 183    1.2620019874409e-06
 184    -1.3373261027782e-05
 185    2.0126936883537e-07
 186    -1.2944593576338e-06
 187    -3.4310084518831e-07
 188    1.0715464702409e-05
 189    1.3463237956659e-05
 190    9.1873447866039e-07
 191    9.5058044363439e-07
 192    2.0988031572257e-07
 193    7.6924121564291e-07
 194    6.218998680044e-07
 195    -2.1153846047505e-06
 196    2.2984294227916e-06
 197    -1.7224254411249e-05
 198    -1.9727688760407e-06
 199    -2.46068761269e-06
 200    2.6616762036939e-06
 201    0.00043638666659035
 202    0.00029612623586645
 203    -5.5173847075691e-05
 204    8.7111701113851e-05
 205    -9.2485750855188e-06
 206    0.00029451079369898
 207    6.7352587109263e-05
 208    -9.7490208812873e-05
 209    3.204981909346e-06
 210    -3.0582576388215e-05
 211    -0.0027381825788601
 212    -0.001497286176342
 213    -0.0022808454420753
 214    -0.00046645166349708
 215    0.0017985460977837
 216    -0.0015123455874433
 217    0.00090462194008501
 218    0.00012866576019567
 219    -0.00043000342015591
 220    2.4392964197256e-05
 221     0.000159322931746
 222    -8.4078701169946e-05
 223    0.00010980909561165
 224    -0.00026504421633051
 225    -8.1036935802522e-07
 226    -7.2865433902502e-06
 227    -8.1440659084276e-08
 228    -4.2386450003002e-07
 229    4.0320286323286e-07
 230    7.8243863330111e-07
 231    -8.7077301038502e-07
 232    -2.177519795261e-07
 233    -5.8369121872065e-07
 234    -6.9576262254183e-07
 235    3.3360115518365e-06
 236    5.6516711256372e-06
 237    -1.1831715245685e-05
 238    -4.8685354783243e-07
 239    -9.6116688435472e-07
 240    8.9173920872309e-07
 241    1.2327954307596e-05
 242    7.6443740762838e-06
 243    -1.6064153790981e-05
 244    -1.4751365336799e-07
 245    1.4987968451668e-06
 246    -5.4508376607323e-07
 247    -1.7745403724689e-07
 248    -6.9268553238675e-08
 249    -0.00084443442988249
 250    -0.00027968992716311
 251    5.5727501366967e-05
 252    0.00010036054512258
 253    9.0162041761738e-05
 254    -0.0023562961706305
 255    -0.00095517162400339
 256    -0.00010327010834613
 257    -0.00017452420859979
 258    0.00011342015465583
 259      -1.0023860113322
 260    -0.0042424741178473
 261     0.010264174078648
 262    0.00094492846941542