[Molden Format]
made by pyscf v[2.0.1]
[Atoms] (AU)
O   1   8     0.00000000000000     0.00000000000000     7.54024356125045
H   2   1     0.00000000000000     0.00000000000000     5.71684173934948
H   3   1    -0.05031916615174     1.78353065140343     7.91611525771711
O   4   8     0.00000000000000     0.00000000000000     2.31533471513237
C   5   6     0.00000000000000     0.00000000000000     0.00000000000000
C   6   6     2.01118073026938    -1.40227222164369    -1.50774939176400
C   7   6    -2.01249334291722     1.41331050329955    -1.50315905028694
H   8   1     3.32037363730244    -2.26721897153159    -0.13599698591495
C   9   6     3.45899267434009     0.28739631745591    -3.37437943254505
H   10   1     1.07662969841332    -2.94725144642667    -2.56541439481080
H   11   1    -2.67503415753480     0.18421555839588    -3.06194479365997
H   12   1    -1.07974048864772     3.03851734677796    -2.43674295017013
C   13   6    -4.21607110578555     2.32938802552922     0.11994162256091
H   14   1     4.24440173074564     1.93368664142019    -2.34976285512790
H   15   1     2.15020713235517     1.04714335134846    -4.81494497423699
C   16   6     5.60746363007797    -1.12419643481196    -4.70268606082550
H   17   1    -3.46838323670267     3.50951302338067     1.66946842715333
H   18   1    -5.11873485366228     0.68575958301209     1.04047743976495
C   19   6    -6.18314754751344     3.80909592987882    -1.39656589068747
H   20   1     6.93011263717176    -1.87550812453645    -3.26656317360070
C   21   6     7.06356622236532     0.52877932406334    -6.57829775293605
H   22   1     4.82318879258361    -2.78573437948532    -5.70504560381835
H   23   1    -6.91582688743803     2.61304780074712    -2.95074552451969
H   24   1    -5.26532430573853     5.45420349051338    -2.31005832200284
C   25   6    -8.39941882261433     4.73263980500213     0.21800571437956
H   26   1     7.83338371486801     2.19084139882824    -5.57093109900697
H   27   1     5.73544244039420     1.27376866537418    -8.01071492370229
C   28   6     9.21124858443101    -0.89699110072176    -7.88926949186242
H   29   1    -7.66272760055236     5.92277078003992     1.77035591474408
H   30   1    -9.31497248082589     3.08753015622020     1.12614408368786
C   31   6   -10.35481709231879     6.21833079391143    -1.30905206253246
H   32   1    10.58815905329501    -1.61074586756696    -6.49512691622620
H   33   1    10.23506248045667     0.32468009384095    -9.23072870921204
H   34   1     8.47665842847139    -2.53598436989925    -8.94921964622535
H   35   1    -9.48948872868064     7.90013588951020    -2.18823918416067
H   36   1   -11.93332513000955     6.86460487874102    -0.11255798845995
H   37   1   -11.15126291841033     5.04495968327630    -2.83849898862534
[GTO]
1 0
 s    8 1.00
                 11720  0.00070964594651845
                  1759  0.0054672722921914
                 400.8   0.027823118610189
                 113.7    0.10474773971146
                 37.03    0.28292084635691
                 13.27    0.44849523869833
                 5.025    0.27081688521277
                 1.013    0.01545029160744
 s    8 1.00
                 11720  -0.00031444341168873
                  1759  -0.0024821376810179
                 400.8  -0.012316355381583
                 113.7  -0.050538917343672
                 37.03   -0.13938490331632
                 13.27   -0.32507749481778
                 5.025   -0.22984830758785
                 1.013     1.0953793467883
 s    1 1.00
                0.3023                   1
 p    3 1.00
                  17.7   0.062679166281506
                 3.854    0.33353656587936
                 1.046    0.74123964163973
 p    1 1.00
                0.2753                   1
 d    1 1.00
                 1.185                   1

2 0
 s    3 1.00
                 13.01   0.033498726389998
                 1.962    0.23480080117413
                0.4446     0.8136829578829
 s    1 1.00
                 0.122                   1
 p    1 1.00
                 0.727                   1

3 0
 s    3 1.00
                 13.01   0.033498726389998
                 1.962    0.23480080117413
                0.4446     0.8136829578829
 s    1 1.00
                 0.122                   1
 p    1 1.00
                 0.727                   1

4 0
 s    8 1.00
                 11720  0.00070964594651845
                  1759  0.0054672722921914
                 400.8   0.027823118610189
                 113.7    0.10474773971146
                 37.03    0.28292084635691
                 13.27    0.44849523869833
                 5.025    0.27081688521277
                 1.013    0.01545029160744
 s    8 1.00
                 11720  -0.00031444341168873
                  1759  -0.0024821376810179
                 400.8  -0.012316355381583
                 113.7  -0.050538917343672
                 37.03   -0.13938490331632
                 13.27   -0.32507749481778
                 5.025   -0.22984830758785
                 1.013     1.0953793467883
 s    1 1.00
                0.3023                   1
 p    3 1.00
                  17.7   0.062679166281506
                 3.854    0.33353656587936
                 1.046    0.74123964163973
 p    1 1.00
                0.2753                   1
 d    1 1.00
                 1.185                   1

5 0
 s    8 1.00
                  6665  0.00069158396281299
                  1000  0.0053257961529341
                   228   0.027060721042034
                 64.71    0.10165684614077
                 21.06     0.2745748236174
                 7.495    0.44829431892377
                 2.797    0.28490261071525
                0.5215   0.015194859206082
 s    8 1.00
                  6665  -0.00029326965268655
                  1000  -0.0023180354739745
                   228  -0.011499786038565
                 64.71  -0.046826727009787
                 21.06   -0.12846616875047
                 7.495   -0.30126627246289
                 2.797   -0.25563070233011
                0.5215      1.093793361012
 s    1 1.00
                0.1596                   1
 p    3 1.00
                 9.439   0.056979251590039
                 2.002    0.31320721150073
                0.5456    0.76037674173753
 p    1 1.00
                0.1517                   1
 d    1 1.00
                  0.55                   1

6 0
 s    8 1.00
                  6665  0.00069158396281299
                  1000  0.0053257961529341
                   228   0.027060721042034
                 64.71    0.10165684614077
                 21.06     0.2745748236174
                 7.495    0.44829431892377
                 2.797    0.28490261071525
                0.5215   0.015194859206082
 s    8 1.00
                  6665  -0.00029326965268655
                  1000  -0.0023180354739745
                   228  -0.011499786038565
                 64.71  -0.046826727009787
                 21.06   -0.12846616875047
                 7.495   -0.30126627246289
                 2.797   -0.25563070233011
                0.5215      1.093793361012
 s    1 1.00
                0.1596                   1
 p    3 1.00
                 9.439   0.056979251590039
                 2.002    0.31320721150073
                0.5456    0.76037674173753
 p    1 1.00
                0.1517                   1
 d    1 1.00
                  0.55                   1

7 0
 s    8 1.00
                  6665  0.00069158396281299
                  1000  0.0053257961529341
                   228   0.027060721042034
                 64.71    0.10165684614077
                 21.06     0.2745748236174
                 7.495    0.44829431892377
                 2.797    0.28490261071525
                0.5215   0.015194859206082
 s    8 1.00
                  6665  -0.00029326965268655
                  1000  -0.0023180354739745
                   228  -0.011499786038565
                 64.71  -0.046826727009787
                 21.06   -0.12846616875047
                 7.495   -0.30126627246289
                 2.797   -0.25563070233011
                0.5215      1.093793361012
 s    1 1.00
                0.1596                   1
 p    3 1.00
                 9.439   0.056979251590039
                 2.002    0.31320721150073
                0.5456    0.76037674173753
 p    1 1.00
                0.1517                   1
 d    1 1.00
                  0.55                   1

8 0
 s    3 1.00
                 13.01   0.033498726389998
                 1.962    0.23480080117413
                0.4446     0.8136829578829
 s    1 1.00
                 0.122                   1
 p    1 1.00
                 0.727                   1

9 0
 s    8 1.00
                  6665  0.00069158396281299
                  1000  0.0053257961529341
                   228   0.027060721042034
                 64.71    0.10165684614077
                 21.06     0.2745748236174
                 7.495    0.44829431892377
                 2.797    0.28490261071525
                0.5215   0.015194859206082
 s    8 1.00
                  6665  -0.00029326965268655
                  1000  -0.0023180354739745
                   228  -0.011499786038565
                 64.71  -0.046826727009787
                 21.06   -0.12846616875047
                 7.495   -0.30126627246289
                 2.797   -0.25563070233011
                0.5215      1.093793361012
 s    1 1.00
                0.1596                   1
 p    3 1.00
                 9.439   0.056979251590039
                 2.002    0.31320721150073
                0.5456    0.76037674173753
 p    1 1.00
                0.1517                   1
 d    1 1.00
                  0.55                   1

10 0
 s    3 1.00
                 13.01   0.033498726389998
                 1.962    0.23480080117413
                0.4446     0.8136829578829
 s    1 1.00
                 0.122                   1
 p    1 1.00
                 0.727                   1

11 0
 s    3 1.00
                 13.01   0.033498726389998
                 1.962    0.23480080117413
                0.4446     0.8136829578829
 s    1 1.00
                 0.122                   1
 p    1 1.00
                 0.727                   1

12 0
 s    3 1.00
                 13.01   0.033498726389998
                 1.962    0.23480080117413
                0.4446     0.8136829578829
 s    1 1.00
                 0.122                   1
 p    1 1.00
                 0.727                   1

13 0
 s    8 1.00
                  6665  0.00069158396281299
                  1000  0.0053257961529341
                   228   0.027060721042034
                 64.71    0.10165684614077
                 21.06     0.2745748236174
                 7.495    0.44829431892377
                 2.797    0.28490261071525
                0.5215   0.015194859206082
 s    8 1.00
                  6665  -0.00029326965268655
                  1000  -0.0023180354739745
                   228  -0.011499786038565
                 64.71  -0.046826727009787
                 21.06   -0.12846616875047
                 7.495   -0.30126627246289
                 2.797   -0.25563070233011
                0.5215      1.093793361012
 s    1 1.00
                0.1596                   1
 p    3 1.00
                 9.439   0.056979251590039
                 2.002    0.31320721150073
                0.5456    0.76037674173753
 p    1 1.00
                0.1517                   1
 d    1 1.00
                  0.55                   1

14 0
 s    3 1.00
                 13.01   0.033498726389998
                 1.962    0.23480080117413
                0.4446     0.8136829578829
 s    1 1.00
                 0.122                   1
 p    1 1.00
                 0.727                   1

15 0
 s    3 1.00
                 13.01   0.033498726389998
                 1.962    0.23480080117413
                0.4446     0.8136829578829
 s    1 1.00
                 0.122                   1
 p    1 1.00
                 0.727                   1

16 0
 s    8 1.00
                  6665  0.00069158396281299
                  1000  0.0053257961529341
                   228   0.027060721042034
                 64.71    0.10165684614077
                 21.06     0.2745748236174
                 7.495    0.44829431892377
                 2.797    0.28490261071525
                0.5215   0.015194859206082
 s    8 1.00
                  6665  -0.00029326965268655
                  1000  -0.0023180354739745
                   228  -0.011499786038565
                 64.71  -0.046826727009787
                 21.06   -0.12846616875047
                 7.495   -0.30126627246289
                 2.797   -0.25563070233011
                0.5215      1.093793361012
 s    1 1.00
                0.1596                   1
 p    3 1.00
                 9.439   0.056979251590039
                 2.002    0.31320721150073
                0.5456    0.76037674173753
 p    1 1.00
                0.1517                   1
 d    1 1.00
                  0.55                   1

17 0
 s    3 1.00
                 13.01   0.033498726389998
                 1.962    0.23480080117413
                0.4446     0.8136829578829
 s    1 1.00
                 0.122                   1
 p    1 1.00
                 0.727                   1

18 0
 s    3 1.00
                 13.01   0.033498726389998
                 1.962    0.23480080117413
                0.4446     0.8136829578829
 s    1 1.00
                 0.122                   1
 p    1 1.00
                 0.727                   1

19 0
 s    8 1.00
                  6665  0.00069158396281299
                  1000  0.0053257961529341
                   228   0.027060721042034
                 64.71    0.10165684614077
                 21.06     0.2745748236174
                 7.495    0.44829431892377
                 2.797    0.28490261071525
                0.5215   0.015194859206082
 s    8 1.00
                  6665  -0.00029326965268655
                  1000  -0.0023180354739745
                   228  -0.011499786038565
                 64.71  -0.046826727009787
                 21.06   -0.12846616875047
                 7.495   -0.30126627246289
                 2.797   -0.25563070233011
                0.5215      1.093793361012
 s    1 1.00
                0.1596                   1
 p    3 1.00
                 9.439   0.056979251590039
                 2.002    0.31320721150073
                0.5456    0.76037674173753
 p    1 1.00
                0.1517                   1
 d    1 1.00
                  0.55                   1

20 0
 s    3 1.00
                 13.01   0.033498726389998
                 1.962    0.23480080117413
                0.4446     0.8136829578829
 s    1 1.00
                 0.122                   1
 p    1 1.00
                 0.727                   1

21 0
 s    8 1.00
                  6665  0.00069158396281299
                  1000  0.0053257961529341
                   228   0.027060721042034
                 64.71    0.10165684614077
                 21.06     0.2745748236174
                 7.495    0.44829431892377
                 2.797    0.28490261071525
                0.5215   0.015194859206082
 s    8 1.00
                  6665  -0.00029326965268655
                  1000  -0.0023180354739745
                   228  -0.011499786038565
                 64.71  -0.046826727009787
                 21.06   -0.12846616875047
                 7.495   -0.30126627246289
                 2.797   -0.25563070233011
                0.5215      1.093793361012
 s    1 1.00
                0.1596                   1
 p    3 1.00
                 9.439   0.056979251590039
                 2.002    0.31320721150073
                0.5456    0.76037674173753
 p    1 1.00
                0.1517                   1
 d    1 1.00
                  0.55                   1

22 0
 s    3 1.00
                 13.01   0.033498726389998
                 1.962    0.23480080117413
                0.4446     0.8136829578829
 s    1 1.00
                 0.122                   1
 p    1 1.00
                 0.727                   1

23 0
 s    3 1.00
                 13.01   0.033498726389998
                 1.962    0.23480080117413
                0.4446     0.8136829578829
 s    1 1.00
                 0.122                   1
 p    1 1.00
                 0.727                   1

24 0
 s    3 1.00
                 13.01   0.033498726389998
                 1.962    0.23480080117413
                0.4446     0.8136829578829
 s    1 1.00
                 0.122                   1
 p    1 1.00
                 0.727                   1

25 0
 s    8 1.00
                  6665  0.00069158396281299
                  1000  0.0053257961529341
                   228   0.027060721042034
                 64.71    0.10165684614077
                 21.06     0.2745748236174
                 7.495    0.44829431892377
                 2.797    0.28490261071525
                0.5215   0.015194859206082
 s    8 1.00
                  6665  -0.00029326965268655
                  1000  -0.0023180354739745
                   228  -0.011499786038565
                 64.71  -0.046826727009787
                 21.06   -0.12846616875047
                 7.495   -0.30126627246289
                 2.797   -0.25563070233011
                0.5215      1.093793361012
 s    1 1.00
                0.1596                   1
 p    3 1.00
                 9.439   0.056979251590039
                 2.002    0.31320721150073
                0.5456    0.76037674173753
 p    1 1.00
                0.1517                   1
 d    1 1.00
                  0.55                   1

26 0
 s    3 1.00
                 13.01   0.033498726389998
                 1.962    0.23480080117413
                0.4446     0.8136829578829
 s    1 1.00
                 0.122                   1
 p    1 1.00
                 0.727                   1

27 0
 s    3 1.00
                 13.01   0.033498726389998
                 1.962    0.23480080117413
                0.4446     0.8136829578829
 s    1 1.00
                 0.122                   1
 p    1 1.00
                 0.727                   1

28 0
 s    8 1.00
                  6665  0.00069158396281299
                  1000  0.0053257961529341
                   228   0.027060721042034
                 64.71    0.10165684614077
                 21.06     0.2745748236174
                 7.495    0.44829431892377
                 2.797    0.28490261071525
                0.5215   0.015194859206082
 s    8 1.00
                  6665  -0.00029326965268655
                  1000  -0.0023180354739745
                   228  -0.011499786038565
                 64.71  -0.046826727009787
                 21.06   -0.12846616875047
                 7.495   -0.30126627246289
                 2.797   -0.25563070233011
                0.5215      1.093793361012
 s    1 1.00
                0.1596                   1
 p    3 1.00
                 9.439   0.056979251590039
                 2.002    0.31320721150073
                0.5456    0.76037674173753
 p    1 1.00
                0.1517                   1
 d    1 1.00
                  0.55                   1

29 0
 s    3 1.00
                 13.01   0.033498726389998
                 1.962    0.23480080117413
                0.4446     0.8136829578829
 s    1 1.00
                 0.122                   1
 p    1 1.00
                 0.727                   1

30 0
 s    3 1.00
                 13.01   0.033498726389998
                 1.962    0.23480080117413
                0.4446     0.8136829578829
 s    1 1.00
                 0.122                   1
 p    1 1.00
                 0.727                   1

31 0
 s    8 1.00
                  6665  0.00069158396281299
                  1000  0.0053257961529341
                   228   0.027060721042034
                 64.71    0.10165684614077
                 21.06     0.2745748236174
                 7.495    0.44829431892377
                 2.797    0.28490261071525
                0.5215   0.015194859206082
 s    8 1.00
                  6665  -0.00029326965268655
                  1000  -0.0023180354739745
                   228  -0.011499786038565
                 64.71  -0.046826727009787
                 21.06   -0.12846616875047
                 7.495   -0.30126627246289
                 2.797   -0.25563070233011
                0.5215      1.093793361012
 s    1 1.00
                0.1596                   1
 p    3 1.00
                 9.439   0.056979251590039
                 2.002    0.31320721150073
                0.5456    0.76037674173753
 p    1 1.00
                0.1517                   1
 d    1 1.00
                  0.55                   1

32 0
 s    3 1.00
                 13.01   0.033498726389998
                 1.962    0.23480080117413
                0.4446     0.8136829578829
 s    1 1.00
                 0.122                   1
 p    1 1.00
                 0.727                   1

33 0
 s    3 1.00
                 13.01   0.033498726389998
                 1.962    0.23480080117413
                0.4446     0.8136829578829
 s    1 1.00
                 0.122                   1
 p    1 1.00
                 0.727                   1

34 0
 s    3 1.00
                 13.01   0.033498726389998
                 1.962    0.23480080117413
                0.4446     0.8136829578829
 s    1 1.00
                 0.122                   1
 p    1 1.00
                 0.727                   1

35 0
 s    3 1.00
                 13.01   0.033498726389998
                 1.962    0.23480080117413
                0.4446     0.8136829578829
 s    1 1.00
                 0.122                   1
 p    1 1.00
                 0.727                   1

36 0
 s    3 1.00
                 13.01   0.033498726389998
                 1.962    0.23480080117413
                0.4446     0.8136829578829
 s    1 1.00
                 0.122                   1
 p    1 1.00
                 0.727                   1

37 0
 s    3 1.00
                 13.01   0.033498726389998
                 1.962    0.23480080117413
                0.4446     0.8136829578829
 s    1 1.00
                 0.122                   1
 p    1 1.00
                 0.727                   1

[5d]
[7f]
[9g]

[MO]
 Sym= A
 Ene=               0
 Spin= Alpha
 Occup=    1.00000
   1    -1.1773200220038e-06
   2    1.4039982175932e-06
   3    1.5761295063938e-05
   4    -2.3147474085303e-06
   5    5.1684582802888e-06
   6    -6.7589709505814e-06
   7    -9.3745397790542e-07
   8    1.1734486555586e-06
   9    -1.0884222966382e-05
  10    2.0944087056831e-06
  11    2.0426599440245e-07
  12    -4.0033514643248e-07
  13    -1.598019109379e-07
  14    -3.8328611474178e-09
  15    6.8304276113974e-06
  16    -1.5857630317312e-05
  17    8.6255581514091e-07
  18    -6.8990911305628e-07
  19    -7.8962433399341e-06
  20    4.0700519547149e-06
  21    1.9255720457007e-06
  22    -1.7473036174999e-07
  23    -5.274997862981e-07
  24    -1.2801229603917e-07
  25    9.2736341781003e-06
  26    1.975059887977e-05
  27    6.7144699830508e-05
  28    -4.351485877296e-06
  29    -1.6034520938426e-05
  30    -7.02227481049e-06
  31    -2.9369174967677e-05
  32    9.3954721473722e-06
  33    -2.3742083462981e-05
  34    3.5523462808932e-06
  35    1.8800897162881e-06
  36    -7.0501387337505e-07
  37    -3.4420139899002e-06
  38    5.2965794518518e-06
  39    3.9035741059573e-05
  40    0.00011105334616857
  41    -0.00027071602611438
  42    -7.111995720271e-05
  43    4.8568124282857e-05
  44    -4.1925557452414e-05
  45    0.00043394198283091
  46    -0.0002857582395878
  47    -1.0639858889625e-05
  48    -2.8661217764538e-06
  49    -2.1249095606809e-05
  50    1.3791554335166e-05
  51    -1.1808580044187e-05
  52    2.3278997010249e-05
  53    4.7059224227415e-05
  54    6.1340239160193e-05
  55    -0.00042137806779847
  56    2.1394783044006e-05
  57    -1.0872866705056e-05
  58    -2.5382241364383e-05
  59    0.00015644927315204
  60    -0.00016224511743009
  61    -0.00013540159864272
  62    -1.6480993431035e-06
  63    1.2683028675171e-05
  64    -7.2816580902809e-06
  65    -5.3643366533534e-06
  66    5.437351905643e-06
  67    8.1959206917133e-05
  68    2.5984524374948e-06
  69    4.9661654474917e-05
  70    0.00012443935934024
  71    -4.7839565306747e-05
  72    -0.00011173014175208
  73    0.00067117557983226
  74    -0.00036372475314987
  75    7.7288205070189e-05
  76    -1.6444738302043e-05
  77    5.0801262755823e-05
  78    -2.1001376673013e-05
  79    -1.9613047537553e-06
  80    -1.2479841438941e-05
  81    2.5812221413886e-05
  82    -2.634024475511e-05
  83    6.3102428130935e-06
  84    -1.5604257923215e-06
  85    1.8628737237011e-06
  86    4.7025719588015e-06
  87    6.9099601686511e-06
  88    0.00012701299628668
  89    -1.6002916089556e-05
  90    -1.8818162509771e-06
  91    7.0781798376815e-06
  92    7.4203400221933e-05
  93    -4.8973262900598e-05
  94    3.7054862998408e-05
  95    -1.5216850347442e-06
  96    -7.7962980635569e-06
  97    3.2990756888246e-06
  98    2.2316340902187e-06
  99    3.3344156904511e-07
 100    1.7950269540015e-05
 101    -1.0875226220953e-05
 102    -7.7263233092767e-06
 103    4.9401704550163e-06
 104    3.2657257692261e-06
 105    5.2983076134975e-05
 106    -3.797400316168e-05
 107    -2.0011596672632e-05
 108    1.8117594130661e-05
 109    -1.2183357095581e-05
 110    4.6571349672347e-05
 111    -5.6089618576524e-05
 112    -2.05393199816e-05
 113    8.371030365108e-06
 114    -1.3860170747823e-05
 115    -6.7643424787771e-05
 116    0.00030106442984308
 117    -0.00074388458086365
 118    -0.00036340916132995
 119    0.00027397361297536
 120    -0.00030834528423788
 121    0.00049440363002329
 122    -0.00033765366022623
 123    2.5803851383554e-05
 124    2.6854676339366e-05
 125    -5.0552514489903e-06
 126    2.0061391121479e-06
 127    -5.3427699982486e-06
 128    8.2516376549599e-06
 129    -2.9679784089652e-06
 130    -1.3524358927472e-07
 131    -7.6057697758189e-06
 132    2.3191749478121e-06
 133    -1.0113710110696e-06
 134    2.0419003830386e-05
 135    3.7748767376403e-05
 136    4.7991857935754e-06
 137    -1.667735745423e-06
 138    3.5601992888588e-06
 139    9.0964772583855e-06
 140    1.4536390279223e-05
 141    -0.00011403104733549
 142    4.3879458633211e-06
 143    -4.291466669381e-06
 144    1.7418892077965e-06
 145    6.047193877582e-05
 146    -1.7338523397088e-05
 147    -9.5267866376314e-05
 148    -5.4393178067351e-07
 149    5.066575262575e-06
 150    -3.7895103371098e-06
 151    -1.7901984056787e-06
 152    4.3851163308288e-06
 153    -1.9705465207657e-05
 154    4.6659171462318e-06
 155    -3.692014135751e-05
 156    2.4166827712343e-05
 157    -8.6433487333739e-06
 158    -3.5764989713171e-05
 159    -5.7452219250038e-05
 160    -3.4618216476842e-05
 161    2.1726455569078e-05
 162    -7.8837837316909e-06
 163    0.00074349191398347
 164    0.00042898748468539
 165    -3.3972598394082e-05
 166    0.00061288548152484
 167    -0.00024144779725209
 168    -0.00052552013080469
 169    0.0016670430934413
 170    -0.0010107047888852
 171    0.00018341832729357
 172    -5.5963039900611e-05
 173    0.00017522454270557
 174    -1.7919276088825e-05
 175    -8.0016277123187e-05
 176    9.5615693911874e-06
 177    1.147763886414e-05
 178    1.8784725449538e-05
 179    -2.9748537825425e-06
 180    -1.4207516080334e-07
 181    2.2716349550017e-06
 182    5.7835562055818e-07
 183    1.2876950389221e-06
 184    -1.3871941526263e-05
 185    2.274992967068e-07
 186    -1.2577920371517e-06
 187    -3.9657195651134e-07
 188    1.0999150602867e-05
 189    1.3566465089932e-05
 190    1.1243181512022e-06
 191    9.8047360262893e-07
 192    2.1433304262639e-07
 193    7.5224818179389e-07
 194    6.1559303852704e-07
 195    -2.1346783296481e-06
 196    2.1250157553004e-06
 197    -1.749763496164e-05
 198    -1.9494786774859e-06
 199    -2.4652926344968e-06
 200    2.664909458436e-06
 201    0.00043582290632414
 202    0.00029490788741863
 203    -5.5350241777034e-05
 204    8.7143566663547e-05
 205    -9.2404396897196e-06
 206    0.00029381236062724
 207    6.5226295819892e-05
 208    -9.7649186467781e-05
 209    3.3441641149107e-06
 210    -3.055209928186e-05
 211    -0.002738373312198
 212    -0.0014972067491452
 213    -0.0022758196644883
 214    -0.00046461151576606
 215    0.0017978212847083
 216    -0.0015143906093259
 217    0.00090433329101156
 218    0.00013112522386647
 219    -0.00043287361124598
 220    2.4627416547181e-05
 221    0.00015956187775557
 222    -8.4538507967411e-05
 223    0.00011007981725147
 224    -0.00026537743583315
 225    -8.1723113922267e-07
 226    -7.3504147208018e-06
 227    -8.9645423051556e-08
 228    -4.2180340189714e-07
 229    3.8953781015117e-07
 230    8.2632122337238e-07
 231    -5.8257267737512e-07
 232    -2.1153998155788e-07
 233    -5.9115633226757e-07
 234    -6.8127420869521e-07
 235    3.3062886468851e-06
 236    5.6063073976525e-06
 237    -1.1634351224801e-05
 238    -5.0529492284118e-07
 239    -9.4294939916919e-07
 240    8.9821406975439e-07
 241    1.2126360584957e-05
 242    7.5782091148789e-06
 243    -1.5960595770359e-05
 244    -1.5418914112164e-07
 245    1.4962303809182e-06
 246    -5.5250811427962e-07
 247    -1.5967185626087e-07
 248    -8.6755017795326e-08
 249    -0.00084488385273511
 250    -0.00027998262296376
 251    5.5770762357703e-05
 252    0.00010024452984997
 253    9.0352867867081e-05
 254    -0.0023549568854053
 255    -0.00095022562182805
 256    -0.00010324350692111
 257    -0.00017448667441841
 258    0.00011373495945648
 259      -1.0023858265785
 260    -0.004243461664271
 261     0.010258967964661
 262    0.00093977831253147