[Molden Format]
made by pyscf v[2.0.1]
[Atoms] (AU)
O   1   8     0.00000000000000     0.00000000000000    11.31969581038057
H   2   1     0.00000000000000     0.00000000000000     9.49629398847960
H   3   1    -0.05031916615174     1.78353065140343    11.69556750684724
O   4   8     0.00000000000000     0.00000000000000     2.31533471513237
C   5   6     0.00000000000000     0.00000000000000     0.00000000000000
C   6   6     2.01118073026938    -1.40227222164369    -1.50774939176400
C   7   6    -2.01249334291722     1.41331050329955    -1.50315905028694
H   8   1     3.32037363730244    -2.26721897153159    -0.13599698591495
C   9   6     3.45899267434009     0.28739631745591    -3.37437943254505
H   10   1     1.07662969841332    -2.94725144642667    -2.56541439481080
H   11   1    -2.67503415753480     0.18421555839588    -3.06194479365997
H   12   1    -1.07974048864772     3.03851734677796    -2.43674295017013
C   13   6    -4.21607110578555     2.32938802552922     0.11994162256091
H   14   1     4.24440173074564     1.93368664142019    -2.34976285512790
H   15   1     2.15020713235517     1.04714335134846    -4.81494497423699
C   16   6     5.60746363007797    -1.12419643481196    -4.70268606082550
H   17   1    -3.46838323670267     3.50951302338067     1.66946842715333
H   18   1    -5.11873485366228     0.68575958301209     1.04047743976495
C   19   6    -6.18314754751344     3.80909592987882    -1.39656589068747
H   20   1     6.93011263717176    -1.87550812453645    -3.26656317360070
C   21   6     7.06356622236532     0.52877932406334    -6.57829775293605
H   22   1     4.82318879258361    -2.78573437948532    -5.70504560381835
H   23   1    -6.91582688743803     2.61304780074712    -2.95074552451969
H   24   1    -5.26532430573853     5.45420349051338    -2.31005832200284
C   25   6    -8.39941882261433     4.73263980500213     0.21800571437956
H   26   1     7.83338371486801     2.19084139882824    -5.57093109900697
H   27   1     5.73544244039420     1.27376866537418    -8.01071492370229
C   28   6     9.21124858443101    -0.89699110072176    -7.88926949186242
H   29   1    -7.66272760055236     5.92277078003992     1.77035591474408
H   30   1    -9.31497248082589     3.08753015622020     1.12614408368786
C   31   6   -10.35481709231879     6.21833079391143    -1.30905206253246
H   32   1    10.58815905329501    -1.61074586756696    -6.49512691622620
H   33   1    10.23506248045667     0.32468009384095    -9.23072870921204
H   34   1     8.47665842847139    -2.53598436989925    -8.94921964622535
H   35   1    -9.48948872868064     7.90013588951020    -2.18823918416067
H   36   1   -11.93332513000955     6.86460487874102    -0.11255798845995
H   37   1   -11.15126291841033     5.04495968327630    -2.83849898862534
[GTO]
1 0
 s    8 1.00
                 11720  0.00070964594651845
                  1759  0.0054672722921914
                 400.8   0.027823118610189
                 113.7    0.10474773971146
                 37.03    0.28292084635691
                 13.27    0.44849523869833
                 5.025    0.27081688521277
                 1.013    0.01545029160744
 s    8 1.00
                 11720  -0.00031444341168873
                  1759  -0.0024821376810179
                 400.8  -0.012316355381583
                 113.7  -0.050538917343672
                 37.03   -0.13938490331632
                 13.27   -0.32507749481778
                 5.025   -0.22984830758785
                 1.013     1.0953793467883
 s    1 1.00
                0.3023                   1
 p    3 1.00
                  17.7   0.062679166281506
                 3.854    0.33353656587936
                 1.046    0.74123964163973
 p    1 1.00
                0.2753                   1
 d    1 1.00
                 1.185                   1

2 0
 s    3 1.00
                 13.01   0.033498726389998
                 1.962    0.23480080117413
                0.4446     0.8136829578829
 s    1 1.00
                 0.122                   1
 p    1 1.00
                 0.727                   1

3 0
 s    3 1.00
                 13.01   0.033498726389998
                 1.962    0.23480080117413
                0.4446     0.8136829578829
 s    1 1.00
                 0.122                   1
 p    1 1.00
                 0.727                   1

4 0
 s    8 1.00
                 11720  0.00070964594651845
                  1759  0.0054672722921914
                 400.8   0.027823118610189
                 113.7    0.10474773971146
                 37.03    0.28292084635691
                 13.27    0.44849523869833
                 5.025    0.27081688521277
                 1.013    0.01545029160744
 s    8 1.00
                 11720  -0.00031444341168873
                  1759  -0.0024821376810179
                 400.8  -0.012316355381583
                 113.7  -0.050538917343672
                 37.03   -0.13938490331632
                 13.27   -0.32507749481778
                 5.025   -0.22984830758785
                 1.013     1.0953793467883
 s    1 1.00
                0.3023                   1
 p    3 1.00
                  17.7   0.062679166281506
                 3.854    0.33353656587936
                 1.046    0.74123964163973
 p    1 1.00
                0.2753                   1
 d    1 1.00
                 1.185                   1

5 0
 s    8 1.00
                  6665  0.00069158396281299
                  1000  0.0053257961529341
                   228   0.027060721042034
                 64.71    0.10165684614077
                 21.06     0.2745748236174
                 7.495    0.44829431892377
                 2.797    0.28490261071525
                0.5215   0.015194859206082
 s    8 1.00
                  6665  -0.00029326965268655
                  1000  -0.0023180354739745
                   228  -0.011499786038565
                 64.71  -0.046826727009787
                 21.06   -0.12846616875047
                 7.495   -0.30126627246289
                 2.797   -0.25563070233011
                0.5215      1.093793361012
 s    1 1.00
                0.1596                   1
 p    3 1.00
                 9.439   0.056979251590039
                 2.002    0.31320721150073
                0.5456    0.76037674173753
 p    1 1.00
                0.1517                   1
 d    1 1.00
                  0.55                   1

6 0
 s    8 1.00
                  6665  0.00069158396281299
                  1000  0.0053257961529341
                   228   0.027060721042034
                 64.71    0.10165684614077
                 21.06     0.2745748236174
                 7.495    0.44829431892377
                 2.797    0.28490261071525
                0.5215   0.015194859206082
 s    8 1.00
                  6665  -0.00029326965268655
                  1000  -0.0023180354739745
                   228  -0.011499786038565
                 64.71  -0.046826727009787
                 21.06   -0.12846616875047
                 7.495   -0.30126627246289
                 2.797   -0.25563070233011
                0.5215      1.093793361012
 s    1 1.00
                0.1596                   1
 p    3 1.00
                 9.439   0.056979251590039
                 2.002    0.31320721150073
                0.5456    0.76037674173753
 p    1 1.00
                0.1517                   1
 d    1 1.00
                  0.55                   1

7 0
 s    8 1.00
                  6665  0.00069158396281299
                  1000  0.0053257961529341
                   228   0.027060721042034
                 64.71    0.10165684614077
                 21.06     0.2745748236174
                 7.495    0.44829431892377
                 2.797    0.28490261071525
                0.5215   0.015194859206082
 s    8 1.00
                  6665  -0.00029326965268655
                  1000  -0.0023180354739745
                   228  -0.011499786038565
                 64.71  -0.046826727009787
                 21.06   -0.12846616875047
                 7.495   -0.30126627246289
                 2.797   -0.25563070233011
                0.5215      1.093793361012
 s    1 1.00
                0.1596                   1
 p    3 1.00
                 9.439   0.056979251590039
                 2.002    0.31320721150073
                0.5456    0.76037674173753
 p    1 1.00
                0.1517                   1
 d    1 1.00
                  0.55                   1

8 0
 s    3 1.00
                 13.01   0.033498726389998
                 1.962    0.23480080117413
                0.4446     0.8136829578829
 s    1 1.00
                 0.122                   1
 p    1 1.00
                 0.727                   1

9 0
 s    8 1.00
                  6665  0.00069158396281299
                  1000  0.0053257961529341
                   228   0.027060721042034
                 64.71    0.10165684614077
                 21.06     0.2745748236174
                 7.495    0.44829431892377
                 2.797    0.28490261071525
                0.5215   0.015194859206082
 s    8 1.00
                  6665  -0.00029326965268655
                  1000  -0.0023180354739745
                   228  -0.011499786038565
                 64.71  -0.046826727009787
                 21.06   -0.12846616875047
                 7.495   -0.30126627246289
                 2.797   -0.25563070233011
                0.5215      1.093793361012
 s    1 1.00
                0.1596                   1
 p    3 1.00
                 9.439   0.056979251590039
                 2.002    0.31320721150073
                0.5456    0.76037674173753
 p    1 1.00
                0.1517                   1
 d    1 1.00
                  0.55                   1

10 0
 s    3 1.00
                 13.01   0.033498726389998
                 1.962    0.23480080117413
                0.4446     0.8136829578829
 s    1 1.00
                 0.122                   1
 p    1 1.00
                 0.727                   1

11 0
 s    3 1.00
                 13.01   0.033498726389998
                 1.962    0.23480080117413
                0.4446     0.8136829578829
 s    1 1.00
                 0.122                   1
 p    1 1.00
                 0.727                   1

12 0
 s    3 1.00
                 13.01   0.033498726389998
                 1.962    0.23480080117413
                0.4446     0.8136829578829
 s    1 1.00
                 0.122                   1
 p    1 1.00
                 0.727                   1

13 0
 s    8 1.00
                  6665  0.00069158396281299
                  1000  0.0053257961529341
                   228   0.027060721042034
                 64.71    0.10165684614077
                 21.06     0.2745748236174
                 7.495    0.44829431892377
                 2.797    0.28490261071525
                0.5215   0.015194859206082
 s    8 1.00
                  6665  -0.00029326965268655
                  1000  -0.0023180354739745
                   228  -0.011499786038565
                 64.71  -0.046826727009787
                 21.06   -0.12846616875047
                 7.495   -0.30126627246289
                 2.797   -0.25563070233011
                0.5215      1.093793361012
 s    1 1.00
                0.1596                   1
 p    3 1.00
                 9.439   0.056979251590039
                 2.002    0.31320721150073
                0.5456    0.76037674173753
 p    1 1.00
                0.1517                   1
 d    1 1.00
                  0.55                   1

14 0
 s    3 1.00
                 13.01   0.033498726389998
                 1.962    0.23480080117413
                0.4446     0.8136829578829
 s    1 1.00
                 0.122                   1
 p    1 1.00
                 0.727                   1

15 0
 s    3 1.00
                 13.01   0.033498726389998
                 1.962    0.23480080117413
                0.4446     0.8136829578829
 s    1 1.00
                 0.122                   1
 p    1 1.00
                 0.727                   1

16 0
 s    8 1.00
                  6665  0.00069158396281299
                  1000  0.0053257961529341
                   228   0.027060721042034
                 64.71    0.10165684614077
                 21.06     0.2745748236174
                 7.495    0.44829431892377
                 2.797    0.28490261071525
                0.5215   0.015194859206082
 s    8 1.00
                  6665  -0.00029326965268655
                  1000  -0.0023180354739745
                   228  -0.011499786038565
                 64.71  -0.046826727009787
                 21.06   -0.12846616875047
                 7.495   -0.30126627246289
                 2.797   -0.25563070233011
                0.5215      1.093793361012
 s    1 1.00
                0.1596                   1
 p    3 1.00
                 9.439   0.056979251590039
                 2.002    0.31320721150073
                0.5456    0.76037674173753
 p    1 1.00
                0.1517                   1
 d    1 1.00
                  0.55                   1

17 0
 s    3 1.00
                 13.01   0.033498726389998
                 1.962    0.23480080117413
                0.4446     0.8136829578829
 s    1 1.00
                 0.122                   1
 p    1 1.00
                 0.727                   1

18 0
 s    3 1.00
                 13.01   0.033498726389998
                 1.962    0.23480080117413
                0.4446     0.8136829578829
 s    1 1.00
                 0.122                   1
 p    1 1.00
                 0.727                   1

19 0
 s    8 1.00
                  6665  0.00069158396281299
                  1000  0.0053257961529341
                   228   0.027060721042034
                 64.71    0.10165684614077
                 21.06     0.2745748236174
                 7.495    0.44829431892377
                 2.797    0.28490261071525
                0.5215   0.015194859206082
 s    8 1.00
                  6665  -0.00029326965268655
                  1000  -0.0023180354739745
                   228  -0.011499786038565
                 64.71  -0.046826727009787
                 21.06   -0.12846616875047
                 7.495   -0.30126627246289
                 2.797   -0.25563070233011
                0.5215      1.093793361012
 s    1 1.00
                0.1596                   1
 p    3 1.00
                 9.439   0.056979251590039
                 2.002    0.31320721150073
                0.5456    0.76037674173753
 p    1 1.00
                0.1517                   1
 d    1 1.00
                  0.55                   1

20 0
 s    3 1.00
                 13.01   0.033498726389998
                 1.962    0.23480080117413
                0.4446     0.8136829578829
 s    1 1.00
                 0.122                   1
 p    1 1.00
                 0.727                   1

21 0
 s    8 1.00
                  6665  0.00069158396281299
                  1000  0.0053257961529341
                   228   0.027060721042034
                 64.71    0.10165684614077
                 21.06     0.2745748236174
                 7.495    0.44829431892377
                 2.797    0.28490261071525
                0.5215   0.015194859206082
 s    8 1.00
                  6665  -0.00029326965268655
                  1000  -0.0023180354739745
                   228  -0.011499786038565
                 64.71  -0.046826727009787
                 21.06   -0.12846616875047
                 7.495   -0.30126627246289
                 2.797   -0.25563070233011
                0.5215      1.093793361012
 s    1 1.00
                0.1596                   1
 p    3 1.00
                 9.439   0.056979251590039
                 2.002    0.31320721150073
                0.5456    0.76037674173753
 p    1 1.00
                0.1517                   1
 d    1 1.00
                  0.55                   1

22 0
 s    3 1.00
                 13.01   0.033498726389998
                 1.962    0.23480080117413
                0.4446     0.8136829578829
 s    1 1.00
                 0.122                   1
 p    1 1.00
                 0.727                   1

23 0
 s    3 1.00
                 13.01   0.033498726389998
                 1.962    0.23480080117413
                0.4446     0.8136829578829
 s    1 1.00
                 0.122                   1
 p    1 1.00
                 0.727                   1

24 0
 s    3 1.00
                 13.01   0.033498726389998
                 1.962    0.23480080117413
                0.4446     0.8136829578829
 s    1 1.00
                 0.122                   1
 p    1 1.00
                 0.727                   1

25 0
 s    8 1.00
                  6665  0.00069158396281299
                  1000  0.0053257961529341
                   228   0.027060721042034
                 64.71    0.10165684614077
                 21.06     0.2745748236174
                 7.495    0.44829431892377
                 2.797    0.28490261071525
                0.5215   0.015194859206082
 s    8 1.00
                  6665  -0.00029326965268655
                  1000  -0.0023180354739745
                   228  -0.011499786038565
                 64.71  -0.046826727009787
                 21.06   -0.12846616875047
                 7.495   -0.30126627246289
                 2.797   -0.25563070233011
                0.5215      1.093793361012
 s    1 1.00
                0.1596                   1
 p    3 1.00
                 9.439   0.056979251590039
                 2.002    0.31320721150073
                0.5456    0.76037674173753
 p    1 1.00
                0.1517                   1
 d    1 1.00
                  0.55                   1

26 0
 s    3 1.00
                 13.01   0.033498726389998
                 1.962    0.23480080117413
                0.4446     0.8136829578829
 s    1 1.00
                 0.122                   1
 p    1 1.00
                 0.727                   1

27 0
 s    3 1.00
                 13.01   0.033498726389998
                 1.962    0.23480080117413
                0.4446     0.8136829578829
 s    1 1.00
                 0.122                   1
 p    1 1.00
                 0.727                   1

28 0
 s    8 1.00
                  6665  0.00069158396281299
                  1000  0.0053257961529341
                   228   0.027060721042034
                 64.71    0.10165684614077
                 21.06     0.2745748236174
                 7.495    0.44829431892377
                 2.797    0.28490261071525
                0.5215   0.015194859206082
 s    8 1.00
                  6665  -0.00029326965268655
                  1000  -0.0023180354739745
                   228  -0.011499786038565
                 64.71  -0.046826727009787
                 21.06   -0.12846616875047
                 7.495   -0.30126627246289
                 2.797   -0.25563070233011
                0.5215      1.093793361012
 s    1 1.00
                0.1596                   1
 p    3 1.00
                 9.439   0.056979251590039
                 2.002    0.31320721150073
                0.5456    0.76037674173753
 p    1 1.00
                0.1517                   1
 d    1 1.00
                  0.55                   1

29 0
 s    3 1.00
                 13.01   0.033498726389998
                 1.962    0.23480080117413
                0.4446     0.8136829578829
 s    1 1.00
                 0.122                   1
 p    1 1.00
                 0.727                   1

30 0
 s    3 1.00
                 13.01   0.033498726389998
                 1.962    0.23480080117413
                0.4446     0.8136829578829
 s    1 1.00
                 0.122                   1
 p    1 1.00
                 0.727                   1

31 0
 s    8 1.00
                  6665  0.00069158396281299
                  1000  0.0053257961529341
                   228   0.027060721042034
                 64.71    0.10165684614077
                 21.06     0.2745748236174
                 7.495    0.44829431892377
                 2.797    0.28490261071525
                0.5215   0.015194859206082
 s    8 1.00
                  6665  -0.00029326965268655
                  1000  -0.0023180354739745
                   228  -0.011499786038565
                 64.71  -0.046826727009787
                 21.06   -0.12846616875047
                 7.495   -0.30126627246289
                 2.797   -0.25563070233011
                0.5215      1.093793361012
 s    1 1.00
                0.1596                   1
 p    3 1.00
                 9.439   0.056979251590039
                 2.002    0.31320721150073
                0.5456    0.76037674173753
 p    1 1.00
                0.1517                   1
 d    1 1.00
                  0.55                   1

32 0
 s    3 1.00
                 13.01   0.033498726389998
                 1.962    0.23480080117413
                0.4446     0.8136829578829
 s    1 1.00
                 0.122                   1
 p    1 1.00
                 0.727                   1

33 0
 s    3 1.00
                 13.01   0.033498726389998
                 1.962    0.23480080117413
                0.4446     0.8136829578829
 s    1 1.00
                 0.122                   1
 p    1 1.00
                 0.727                   1

34 0
 s    3 1.00
                 13.01   0.033498726389998
                 1.962    0.23480080117413
                0.4446     0.8136829578829
 s    1 1.00
                 0.122                   1
 p    1 1.00
                 0.727                   1

35 0
 s    3 1.00
                 13.01   0.033498726389998
                 1.962    0.23480080117413
                0.4446     0.8136829578829
 s    1 1.00
                 0.122                   1
 p    1 1.00
                 0.727                   1

36 0
 s    3 1.00
                 13.01   0.033498726389998
                 1.962    0.23480080117413
                0.4446     0.8136829578829
 s    1 1.00
                 0.122                   1
 p    1 1.00
                 0.727                   1

37 0
 s    3 1.00
                 13.01   0.033498726389998
                 1.962    0.23480080117413
                0.4446     0.8136829578829
 s    1 1.00
                 0.122                   1
 p    1 1.00
                 0.727                   1

[5d]
[7f]
[9g]

[MO]
 Sym= A
 Ene=               0
 Spin= Alpha
 Occup=    1.00000
   1    7.7090046921892e-08
   2    3.7609932974798e-07
   3    -1.5430299408174e-07
   4    -1.9137437918641e-08
   5    1.3634542175131e-07
   6    -3.7676072941004e-07
   7    -1.3298350842364e-08
   8    2.0653601580779e-07
   9    1.0349270153184e-07
  10    -5.6980875769714e-08
  11    4.6487565353907e-10
  12    -2.2553887292421e-09
  13    -1.3541064796385e-08
  14    -9.3124748480485e-10
  15    4.6773758699984e-07
  16    4.4762180986047e-07
  17    1.0343460428286e-09
  18    4.0594621273346e-09
  19    2.5653852972682e-07
  20    1.6741226484711e-07
  21    -3.0376692313574e-07
  22    -2.5115168915868e-09
  23    3.5466039168501e-08
  24    -3.2475680855445e-08
  25    1.0046098612372e-05
  26    2.032612248449e-05
  27    6.794436489402e-05
  28    -4.0902335852292e-06
  29    -1.6223400266944e-05
  30    -5.932955447387e-06
  31    -2.9064678648991e-05
  32    9.502265801215e-06
  33    -2.3500118454934e-05
  34    3.3099183834793e-06
  35    1.8603431336252e-06
  36    -6.1368001472823e-07
  37    -3.4275833555658e-06
  38    5.2563708418047e-06
  39    3.7290749795007e-05
  40    0.0001087005754472
  41    -0.00026682473246991
  42    -7.0847315998247e-05
  43    4.7457259344314e-05
  44    -4.1453579751994e-05
  45    0.00043168345741819
  46    -0.0002853729011178
  47    -1.6572055824724e-05
  48    -2.9444548680218e-06
  49    -2.1030974184407e-05
  50    1.3598046036642e-05
  51    -1.1601768874003e-05
  52    2.2874952910432e-05
  53    4.6897555203127e-05
  54     6.08715674406e-05
  55    -0.00042319960876142
  56    2.1850974639577e-05
  57    -1.1230257527925e-05
  58    -2.5668083468597e-05
  59    0.00015903843812859
  60    -0.0001633778830747
  61    -0.00013270879337477
  62    -1.3914762705989e-06
  63    1.2818577852789e-05
  64    -7.3866549619116e-06
  65    -5.3570468446387e-06
  66    5.4983131469005e-06
  67    8.1910801049971e-05
  68    2.7734929435031e-06
  69    4.5957041231806e-05
  70    0.00012487331413648
  71    -4.8217777030639e-05
  72    -0.00011126430049333
  73    0.00066877596954879
  74    -0.00036187724245825
  75    7.8373210683705e-05
  76    -1.5971297723052e-05
  77    5.0523341762202e-05
  78    -2.0948959904952e-05
  79    -2.1916722741986e-06
  80    -1.2046435919108e-05
  81    2.5506061462809e-05
  82    -2.7786818676756e-05
  83    6.3586992264813e-06
  84    -1.6163663463098e-06
  85    2.0439794073089e-06
  86    4.6809588566233e-06
  87    6.896403939481e-06
  88    0.00012847833406583
  89    -1.6031983565329e-05
  90    -1.9086009598836e-06
  91    7.1951869592669e-06
  92    7.3555099290229e-05
  93    -5.0620457531345e-05
  94    3.5828044494079e-05
  95    -1.5811779757316e-06
  96    -7.7976193793202e-06
  97    3.2668122185446e-06
  98    2.2395700924518e-06
  99    3.8247020765546e-07
 100    1.8105859387753e-05
 101    -1.0293907275047e-05
 102    -7.7285941320032e-06
 103    5.0117057106171e-06
 104    3.075059211185e-06
 105    5.3163788811718e-05
 106    -3.7176980585329e-05
 107    -1.9861606122017e-05
 108    1.8047565129768e-05
 109    -1.2216207901276e-05
 110    4.6739405402632e-05
 111    -5.5472321082035e-05
 112    -2.043976515135e-05
 113    8.3370115953742e-06
 114    -1.3957041444407e-05
 115    -6.8161304295231e-05
 116    0.00029965482782757
 117    -0.00074183410858537
 118    -0.0003638291582297
 119    0.00027386011157183
 120    -0.00030635439461998
 121    0.00049446112743175
 122    -0.00033762009914865
 123    2.8648035672428e-05
 124    2.6795424657101e-05
 125    -4.6683252276722e-06
 126    1.8890356484325e-06
 127    -5.218490712975e-06
 128    8.0017200645585e-06
 129    -2.6729231437746e-06
 130    7.0243080268865e-07
 131    -7.6107330246653e-06
 132    2.2936680317713e-06
 133    -1.0177041576693e-06
 134    2.0295402153011e-05
 135    3.7914948203216e-05
 136    4.7383787007894e-06
 137    -1.6060296272661e-06
 138    3.7402730393551e-06
 139    9.2336998225129e-06
 140    1.4727234119616e-05
 141    -0.00011576364818712
 142    4.4316865421464e-06
 143    -4.3478400232991e-06
 144    1.6558572081217e-06
 145    6.1619298030171e-05
 146    -1.7388994784218e-05
 147    -9.5134797558697e-05
 148    -5.1777132860475e-07
 149    5.0675561625717e-06
 150    -3.7679338962765e-06
 151    -1.8517837792735e-06
 152    4.4248865437089e-06
 153    -1.8977482836625e-05
 154    1.926260386226e-06
 155    -3.6726562197343e-05
 156    2.4276216740661e-05
 157    -8.3685434737701e-06
 158    -3.5438905317331e-05
 159    -5.9367903553277e-05
 160    -3.4664658778192e-05
 161    2.1611135093994e-05
 162    -7.8453920841081e-06
 163    0.00074323318706791
 164    0.00042883904309161
 165    -3.2456471585443e-05
 166    0.00061483202244717
 167    -0.00024274522000102
 168    -0.00052562563993226
 169     0.001664722044978
 170    -0.0010111438582546
 171    0.00018630414542935
 172    -5.5436602954694e-05
 173    0.00017523352628066
 174    -1.8119237825037e-05
 175    -8.0277782444449e-05
 176    1.0066520745728e-05
 177    1.1435964200864e-05
 178     1.87473457324e-05
 179    -3.029796301329e-06
 180    -1.5922182287722e-07
 181    2.2723798485535e-06
 182    5.5467493797015e-07
 183    1.2677132043008e-06
 184    -1.3375696791228e-05
 185    1.9845253746788e-07
 186    -1.2967762638617e-06
 187    -3.3919871795655e-07
 188    1.0727989553022e-05
 189    1.3447955056033e-05
 190    9.0583598074588e-07
 191    9.5019082962698e-07
 192    2.1135516215818e-07
 193    7.6897789725588e-07
 194    6.2117538264458e-07
 195    -2.1162822637045e-06
 196    2.298171592865e-06
 197    -1.722425560727e-05
 198    -1.9719177322392e-06
 199    -2.4606489456847e-06
 200    2.6616829070349e-06
 201    0.00043643779070733
 202    0.00029629915472947
 203    -5.5160259616318e-05
 204    8.7107602615746e-05
 205    -9.2443656131896e-06
 206    0.00029460932468457
 207    6.7671465855828e-05
 208    -9.747174018492e-05
 209    3.1868308196941e-06
 210    -3.0577110978856e-05
 211    -0.002738142939321
 212    -0.0014972970090127
 213    -0.0022816890643028
 214    -0.0004667548366013
 215    0.0017986119674508
 216    -0.0015119919076001
 217    0.00090494666511629
 218    0.00012790852674234
 219    -0.00042924990406908
 220    2.4357157279367e-05
 221    0.00015925880176786
 222    -8.3975514605103e-05
 223     0.000109753213698
 224    -0.00026495538304759
 225    -8.0636517472835e-07
 226    -7.2780792228008e-06
 227    -8.2776560239806e-08
 228    -4.2420662571661e-07
 229    4.0349383125646e-07
 230    7.840970945858e-07
 231    -8.7208955097331e-07
 232    -2.1848878628303e-07
 233    -5.8283153337673e-07
 234    -6.9496626163194e-07
 235    3.3363436399638e-06
 236    5.6513544949112e-06
 237    -1.1846860474938e-05
 238    -4.8396076962782e-07
 239    -9.6158801806364e-07
 240    8.8926972539178e-07
 241    1.2333370731047e-05
 242    7.6339706448109e-06
 243    -1.6062101757035e-05
 244    -1.4705673310874e-07
 245    1.4986179163802e-06
 246    -5.4521361855856e-07
 247    -1.7733298679664e-07
 248    -6.8806115840174e-08
 249    -0.00084438584707569
 250    -0.00027970690211941
 251    5.5728887687272e-05
 252    0.00010039542269611
 253    9.0146477255879e-05
 254    -0.0023566005847334
 255    -0.00095635768525682
 256    -0.00010326910920655
 257    -0.00017453840803474
 258    0.00011336616667148
 259      -1.0023860779846
 260    -0.0042422946223818
 261     0.010265572538807
 262    0.00094613396986769