[Molden Format]
made by pyscf v[2.0.1]
[Atoms] (AU)
O   1   8     0.00000000000000     0.00000000000000    10.56380536055454
H   2   1     0.00000000000000     0.00000000000000     8.74040353865358
H   3   1    -0.05031916615174     1.78353065140343    10.93967705702121
O   4   8     0.00000000000000     0.00000000000000     2.31533471513237
C   5   6     0.00000000000000     0.00000000000000     0.00000000000000
C   6   6     2.01118073026938    -1.40227222164369    -1.50774939176400
C   7   6    -2.01249334291722     1.41331050329955    -1.50315905028694
H   8   1     3.32037363730244    -2.26721897153159    -0.13599698591495
C   9   6     3.45899267434009     0.28739631745591    -3.37437943254505
H   10   1     1.07662969841332    -2.94725144642667    -2.56541439481080
H   11   1    -2.67503415753480     0.18421555839588    -3.06194479365997
H   12   1    -1.07974048864772     3.03851734677796    -2.43674295017013
C   13   6    -4.21607110578555     2.32938802552922     0.11994162256091
H   14   1     4.24440173074564     1.93368664142019    -2.34976285512790
H   15   1     2.15020713235517     1.04714335134846    -4.81494497423699
C   16   6     5.60746363007797    -1.12419643481196    -4.70268606082550
H   17   1    -3.46838323670267     3.50951302338067     1.66946842715333
H   18   1    -5.11873485366228     0.68575958301209     1.04047743976495
C   19   6    -6.18314754751344     3.80909592987882    -1.39656589068747
H   20   1     6.93011263717176    -1.87550812453645    -3.26656317360070
C   21   6     7.06356622236532     0.52877932406334    -6.57829775293605
H   22   1     4.82318879258361    -2.78573437948532    -5.70504560381835
H   23   1    -6.91582688743803     2.61304780074712    -2.95074552451969
H   24   1    -5.26532430573853     5.45420349051338    -2.31005832200284
C   25   6    -8.39941882261433     4.73263980500213     0.21800571437956
H   26   1     7.83338371486801     2.19084139882824    -5.57093109900697
H   27   1     5.73544244039420     1.27376866537418    -8.01071492370229
C   28   6     9.21124858443101    -0.89699110072176    -7.88926949186242
H   29   1    -7.66272760055236     5.92277078003992     1.77035591474408
H   30   1    -9.31497248082589     3.08753015622020     1.12614408368786
C   31   6   -10.35481709231879     6.21833079391143    -1.30905206253246
H   32   1    10.58815905329501    -1.61074586756696    -6.49512691622620
H   33   1    10.23506248045667     0.32468009384095    -9.23072870921204
H   34   1     8.47665842847139    -2.53598436989925    -8.94921964622535
H   35   1    -9.48948872868064     7.90013588951020    -2.18823918416067
H   36   1   -11.93332513000955     6.86460487874102    -0.11255798845995
H   37   1   -11.15126291841033     5.04495968327630    -2.83849898862534
[GTO]
1 0
 s    8 1.00
                 11720  0.00070964594651845
                  1759  0.0054672722921914
                 400.8   0.027823118610189
                 113.7    0.10474773971146
                 37.03    0.28292084635691
                 13.27    0.44849523869833
                 5.025    0.27081688521277
                 1.013    0.01545029160744
 s    8 1.00
                 11720  -0.00031444341168873
                  1759  -0.0024821376810179
                 400.8  -0.012316355381583
                 113.7  -0.050538917343672
                 37.03   -0.13938490331632
                 13.27   -0.32507749481778
                 5.025   -0.22984830758785
                 1.013     1.0953793467883
 s    1 1.00
                0.3023                   1
 p    3 1.00
                  17.7   0.062679166281506
                 3.854    0.33353656587936
                 1.046    0.74123964163973
 p    1 1.00
                0.2753                   1
 d    1 1.00
                 1.185                   1

2 0
 s    3 1.00
                 13.01   0.033498726389998
                 1.962    0.23480080117413
                0.4446     0.8136829578829
 s    1 1.00
                 0.122                   1
 p    1 1.00
                 0.727                   1

3 0
 s    3 1.00
                 13.01   0.033498726389998
                 1.962    0.23480080117413
                0.4446     0.8136829578829
 s    1 1.00
                 0.122                   1
 p    1 1.00
                 0.727                   1

4 0
 s    8 1.00
                 11720  0.00070964594651845
                  1759  0.0054672722921914
                 400.8   0.027823118610189
                 113.7    0.10474773971146
                 37.03    0.28292084635691
                 13.27    0.44849523869833
                 5.025    0.27081688521277
                 1.013    0.01545029160744
 s    8 1.00
                 11720  -0.00031444341168873
                  1759  -0.0024821376810179
                 400.8  -0.012316355381583
                 113.7  -0.050538917343672
                 37.03   -0.13938490331632
                 13.27   -0.32507749481778
                 5.025   -0.22984830758785
                 1.013     1.0953793467883
 s    1 1.00
                0.3023                   1
 p    3 1.00
                  17.7   0.062679166281506
                 3.854    0.33353656587936
                 1.046    0.74123964163973
 p    1 1.00
                0.2753                   1
 d    1 1.00
                 1.185                   1

5 0
 s    8 1.00
                  6665  0.00069158396281299
                  1000  0.0053257961529341
                   228   0.027060721042034
                 64.71    0.10165684614077
                 21.06     0.2745748236174
                 7.495    0.44829431892377
                 2.797    0.28490261071525
                0.5215   0.015194859206082
 s    8 1.00
                  6665  -0.00029326965268655
                  1000  -0.0023180354739745
                   228  -0.011499786038565
                 64.71  -0.046826727009787
                 21.06   -0.12846616875047
                 7.495   -0.30126627246289
                 2.797   -0.25563070233011
                0.5215      1.093793361012
 s    1 1.00
                0.1596                   1
 p    3 1.00
                 9.439   0.056979251590039
                 2.002    0.31320721150073
                0.5456    0.76037674173753
 p    1 1.00
                0.1517                   1
 d    1 1.00
                  0.55                   1

6 0
 s    8 1.00
                  6665  0.00069158396281299
                  1000  0.0053257961529341
                   228   0.027060721042034
                 64.71    0.10165684614077
                 21.06     0.2745748236174
                 7.495    0.44829431892377
                 2.797    0.28490261071525
                0.5215   0.015194859206082
 s    8 1.00
                  6665  -0.00029326965268655
                  1000  -0.0023180354739745
                   228  -0.011499786038565
                 64.71  -0.046826727009787
                 21.06   -0.12846616875047
                 7.495   -0.30126627246289
                 2.797   -0.25563070233011
                0.5215      1.093793361012
 s    1 1.00
                0.1596                   1
 p    3 1.00
                 9.439   0.056979251590039
                 2.002    0.31320721150073
                0.5456    0.76037674173753
 p    1 1.00
                0.1517                   1
 d    1 1.00
                  0.55                   1

7 0
 s    8 1.00
                  6665  0.00069158396281299
                  1000  0.0053257961529341
                   228   0.027060721042034
                 64.71    0.10165684614077
                 21.06     0.2745748236174
                 7.495    0.44829431892377
                 2.797    0.28490261071525
                0.5215   0.015194859206082
 s    8 1.00
                  6665  -0.00029326965268655
                  1000  -0.0023180354739745
                   228  -0.011499786038565
                 64.71  -0.046826727009787
                 21.06   -0.12846616875047
                 7.495   -0.30126627246289
                 2.797   -0.25563070233011
                0.5215      1.093793361012
 s    1 1.00
                0.1596                   1
 p    3 1.00
                 9.439   0.056979251590039
                 2.002    0.31320721150073
                0.5456    0.76037674173753
 p    1 1.00
                0.1517                   1
 d    1 1.00
                  0.55                   1

8 0
 s    3 1.00
                 13.01   0.033498726389998
                 1.962    0.23480080117413
                0.4446     0.8136829578829
 s    1 1.00
                 0.122                   1
 p    1 1.00
                 0.727                   1

9 0
 s    8 1.00
                  6665  0.00069158396281299
                  1000  0.0053257961529341
                   228   0.027060721042034
                 64.71    0.10165684614077
                 21.06     0.2745748236174
                 7.495    0.44829431892377
                 2.797    0.28490261071525
                0.5215   0.015194859206082
 s    8 1.00
                  6665  -0.00029326965268655
                  1000  -0.0023180354739745
                   228  -0.011499786038565
                 64.71  -0.046826727009787
                 21.06   -0.12846616875047
                 7.495   -0.30126627246289
                 2.797   -0.25563070233011
                0.5215      1.093793361012
 s    1 1.00
                0.1596                   1
 p    3 1.00
                 9.439   0.056979251590039
                 2.002    0.31320721150073
                0.5456    0.76037674173753
 p    1 1.00
                0.1517                   1
 d    1 1.00
                  0.55                   1

10 0
 s    3 1.00
                 13.01   0.033498726389998
                 1.962    0.23480080117413
                0.4446     0.8136829578829
 s    1 1.00
                 0.122                   1
 p    1 1.00
                 0.727                   1

11 0
 s    3 1.00
                 13.01   0.033498726389998
                 1.962    0.23480080117413
                0.4446     0.8136829578829
 s    1 1.00
                 0.122                   1
 p    1 1.00
                 0.727                   1

12 0
 s    3 1.00
                 13.01   0.033498726389998
                 1.962    0.23480080117413
                0.4446     0.8136829578829
 s    1 1.00
                 0.122                   1
 p    1 1.00
                 0.727                   1

13 0
 s    8 1.00
                  6665  0.00069158396281299
                  1000  0.0053257961529341
                   228   0.027060721042034
                 64.71    0.10165684614077
                 21.06     0.2745748236174
                 7.495    0.44829431892377
                 2.797    0.28490261071525
                0.5215   0.015194859206082
 s    8 1.00
                  6665  -0.00029326965268655
                  1000  -0.0023180354739745
                   228  -0.011499786038565
                 64.71  -0.046826727009787
                 21.06   -0.12846616875047
                 7.495   -0.30126627246289
                 2.797   -0.25563070233011
                0.5215      1.093793361012
 s    1 1.00
                0.1596                   1
 p    3 1.00
                 9.439   0.056979251590039
                 2.002    0.31320721150073
                0.5456    0.76037674173753
 p    1 1.00
                0.1517                   1
 d    1 1.00
                  0.55                   1

14 0
 s    3 1.00
                 13.01   0.033498726389998
                 1.962    0.23480080117413
                0.4446     0.8136829578829
 s    1 1.00
                 0.122                   1
 p    1 1.00
                 0.727                   1

15 0
 s    3 1.00
                 13.01   0.033498726389998
                 1.962    0.23480080117413
                0.4446     0.8136829578829
 s    1 1.00
                 0.122                   1
 p    1 1.00
                 0.727                   1

16 0
 s    8 1.00
                  6665  0.00069158396281299
                  1000  0.0053257961529341
                   228   0.027060721042034
                 64.71    0.10165684614077
                 21.06     0.2745748236174
                 7.495    0.44829431892377
                 2.797    0.28490261071525
                0.5215   0.015194859206082
 s    8 1.00
                  6665  -0.00029326965268655
                  1000  -0.0023180354739745
                   228  -0.011499786038565
                 64.71  -0.046826727009787
                 21.06   -0.12846616875047
                 7.495   -0.30126627246289
                 2.797   -0.25563070233011
                0.5215      1.093793361012
 s    1 1.00
                0.1596                   1
 p    3 1.00
                 9.439   0.056979251590039
                 2.002    0.31320721150073
                0.5456    0.76037674173753
 p    1 1.00
                0.1517                   1
 d    1 1.00
                  0.55                   1

17 0
 s    3 1.00
                 13.01   0.033498726389998
                 1.962    0.23480080117413
                0.4446     0.8136829578829
 s    1 1.00
                 0.122                   1
 p    1 1.00
                 0.727                   1

18 0
 s    3 1.00
                 13.01   0.033498726389998
                 1.962    0.23480080117413
                0.4446     0.8136829578829
 s    1 1.00
                 0.122                   1
 p    1 1.00
                 0.727                   1

19 0
 s    8 1.00
                  6665  0.00069158396281299
                  1000  0.0053257961529341
                   228   0.027060721042034
                 64.71    0.10165684614077
                 21.06     0.2745748236174
                 7.495    0.44829431892377
                 2.797    0.28490261071525
                0.5215   0.015194859206082
 s    8 1.00
                  6665  -0.00029326965268655
                  1000  -0.0023180354739745
                   228  -0.011499786038565
                 64.71  -0.046826727009787
                 21.06   -0.12846616875047
                 7.495   -0.30126627246289
                 2.797   -0.25563070233011
                0.5215      1.093793361012
 s    1 1.00
                0.1596                   1
 p    3 1.00
                 9.439   0.056979251590039
                 2.002    0.31320721150073
                0.5456    0.76037674173753
 p    1 1.00
                0.1517                   1
 d    1 1.00
                  0.55                   1

20 0
 s    3 1.00
                 13.01   0.033498726389998
                 1.962    0.23480080117413
                0.4446     0.8136829578829
 s    1 1.00
                 0.122                   1
 p    1 1.00
                 0.727                   1

21 0
 s    8 1.00
                  6665  0.00069158396281299
                  1000  0.0053257961529341
                   228   0.027060721042034
                 64.71    0.10165684614077
                 21.06     0.2745748236174
                 7.495    0.44829431892377
                 2.797    0.28490261071525
                0.5215   0.015194859206082
 s    8 1.00
                  6665  -0.00029326965268655
                  1000  -0.0023180354739745
                   228  -0.011499786038565
                 64.71  -0.046826727009787
                 21.06   -0.12846616875047
                 7.495   -0.30126627246289
                 2.797   -0.25563070233011
                0.5215      1.093793361012
 s    1 1.00
                0.1596                   1
 p    3 1.00
                 9.439   0.056979251590039
                 2.002    0.31320721150073
                0.5456    0.76037674173753
 p    1 1.00
                0.1517                   1
 d    1 1.00
                  0.55                   1

22 0
 s    3 1.00
                 13.01   0.033498726389998
                 1.962    0.23480080117413
                0.4446     0.8136829578829
 s    1 1.00
                 0.122                   1
 p    1 1.00
                 0.727                   1

23 0
 s    3 1.00
                 13.01   0.033498726389998
                 1.962    0.23480080117413
                0.4446     0.8136829578829
 s    1 1.00
                 0.122                   1
 p    1 1.00
                 0.727                   1

24 0
 s    3 1.00
                 13.01   0.033498726389998
                 1.962    0.23480080117413
                0.4446     0.8136829578829
 s    1 1.00
                 0.122                   1
 p    1 1.00
                 0.727                   1

25 0
 s    8 1.00
                  6665  0.00069158396281299
                  1000  0.0053257961529341
                   228   0.027060721042034
                 64.71    0.10165684614077
                 21.06     0.2745748236174
                 7.495    0.44829431892377
                 2.797    0.28490261071525
                0.5215   0.015194859206082
 s    8 1.00
                  6665  -0.00029326965268655
                  1000  -0.0023180354739745
                   228  -0.011499786038565
                 64.71  -0.046826727009787
                 21.06   -0.12846616875047
                 7.495   -0.30126627246289
                 2.797   -0.25563070233011
                0.5215      1.093793361012
 s    1 1.00
                0.1596                   1
 p    3 1.00
                 9.439   0.056979251590039
                 2.002    0.31320721150073
                0.5456    0.76037674173753
 p    1 1.00
                0.1517                   1
 d    1 1.00
                  0.55                   1

26 0
 s    3 1.00
                 13.01   0.033498726389998
                 1.962    0.23480080117413
                0.4446     0.8136829578829
 s    1 1.00
                 0.122                   1
 p    1 1.00
                 0.727                   1

27 0
 s    3 1.00
                 13.01   0.033498726389998
                 1.962    0.23480080117413
                0.4446     0.8136829578829
 s    1 1.00
                 0.122                   1
 p    1 1.00
                 0.727                   1

28 0
 s    8 1.00
                  6665  0.00069158396281299
                  1000  0.0053257961529341
                   228   0.027060721042034
                 64.71    0.10165684614077
                 21.06     0.2745748236174
                 7.495    0.44829431892377
                 2.797    0.28490261071525
                0.5215   0.015194859206082
 s    8 1.00
                  6665  -0.00029326965268655
                  1000  -0.0023180354739745
                   228  -0.011499786038565
                 64.71  -0.046826727009787
                 21.06   -0.12846616875047
                 7.495   -0.30126627246289
                 2.797   -0.25563070233011
                0.5215      1.093793361012
 s    1 1.00
                0.1596                   1
 p    3 1.00
                 9.439   0.056979251590039
                 2.002    0.31320721150073
                0.5456    0.76037674173753
 p    1 1.00
                0.1517                   1
 d    1 1.00
                  0.55                   1

29 0
 s    3 1.00
                 13.01   0.033498726389998
                 1.962    0.23480080117413
                0.4446     0.8136829578829
 s    1 1.00
                 0.122                   1
 p    1 1.00
                 0.727                   1

30 0
 s    3 1.00
                 13.01   0.033498726389998
                 1.962    0.23480080117413
                0.4446     0.8136829578829
 s    1 1.00
                 0.122                   1
 p    1 1.00
                 0.727                   1

31 0
 s    8 1.00
                  6665  0.00069158396281299
                  1000  0.0053257961529341
                   228   0.027060721042034
                 64.71    0.10165684614077
                 21.06     0.2745748236174
                 7.495    0.44829431892377
                 2.797    0.28490261071525
                0.5215   0.015194859206082
 s    8 1.00
                  6665  -0.00029326965268655
                  1000  -0.0023180354739745
                   228  -0.011499786038565
                 64.71  -0.046826727009787
                 21.06   -0.12846616875047
                 7.495   -0.30126627246289
                 2.797   -0.25563070233011
                0.5215      1.093793361012
 s    1 1.00
                0.1596                   1
 p    3 1.00
                 9.439   0.056979251590039
                 2.002    0.31320721150073
                0.5456    0.76037674173753
 p    1 1.00
                0.1517                   1
 d    1 1.00
                  0.55                   1

32 0
 s    3 1.00
                 13.01   0.033498726389998
                 1.962    0.23480080117413
                0.4446     0.8136829578829
 s    1 1.00
                 0.122                   1
 p    1 1.00
                 0.727                   1

33 0
 s    3 1.00
                 13.01   0.033498726389998
                 1.962    0.23480080117413
                0.4446     0.8136829578829
 s    1 1.00
                 0.122                   1
 p    1 1.00
                 0.727                   1

34 0
 s    3 1.00
                 13.01   0.033498726389998
                 1.962    0.23480080117413
                0.4446     0.8136829578829
 s    1 1.00
                 0.122                   1
 p    1 1.00
                 0.727                   1

35 0
 s    3 1.00
                 13.01   0.033498726389998
                 1.962    0.23480080117413
                0.4446     0.8136829578829
 s    1 1.00
                 0.122                   1
 p    1 1.00
                 0.727                   1

36 0
 s    3 1.00
                 13.01   0.033498726389998
                 1.962    0.23480080117413
                0.4446     0.8136829578829
 s    1 1.00
                 0.122                   1
 p    1 1.00
                 0.727                   1

37 0
 s    3 1.00
                 13.01   0.033498726389998
                 1.962    0.23480080117413
                0.4446     0.8136829578829
 s    1 1.00
                 0.122                   1
 p    1 1.00
                 0.727                   1

[5d]
[7f]
[9g]

[MO]
 Sym= A
 Ene=               0
 Spin= Alpha
 Occup=    1.00000
   1    1.4080060503196e-07
   2    7.1543986538811e-07
   3    -2.2104460819738e-07
   4    -6.0190716310314e-08
   5    3.0819468260864e-07
   6    -7.1427920085438e-07
   7    -3.6439799787538e-08
   8    4.0467970311633e-07
   9    1.5991148780075e-07
  10    -9.1493737699972e-08
  11    1.6280369967378e-09
  12    -6.105206094277e-09
  13    -2.4348791831296e-08
  14    -1.8766717745013e-09
  15    9.0185424192332e-07
  16    7.8003193747346e-07
  17    4.3934106611546e-09
  18    6.2924156207953e-09
  19    3.8441978756245e-07
  20    3.7236497836278e-07
  21    -5.9167425903958e-07
  22    -6.6878976387151e-09
  23    5.5839866929404e-08
  24    -6.302293089525e-08
  25    1.0002146947527e-05
  26    2.0253364231355e-05
  27    6.8154603367759e-05
  28    -4.1088749559494e-06
  29    -1.6209692986518e-05
  30    -6.024871858084e-06
  31    -2.906814081251e-05
  32    9.4871033617845e-06
  33    -2.374817067703e-05
  34    3.3391799662473e-06
  35    1.8606175497579e-06
  36    -6.180489085292e-07
  37    -3.4288861112028e-06
  38    5.2594043851901e-06
  39    3.7330916970298e-05
  40    0.00010874810870448
  41    -0.00026693445733611
  42    -7.0861844367572e-05
  43    4.7527604107901e-05
  44    -4.1459778234661e-05
  45    0.00043168936042328
  46    -0.00028528251674951
  47    -1.6799804221053e-05
  48    -2.9693886793472e-06
  49    -2.1043799258725e-05
  50    1.3607542537192e-05
  51    -1.1611681797206e-05
  52    2.2888645847357e-05
  53    4.690331888907e-05
  54    6.089470835266e-05
  55    -0.00042321676004962
  56    2.1832901713425e-05
  57    -1.1221272075315e-05
  58    -2.5657389458547e-05
  59    0.00015904313319988
  60    -0.00016342051040042
  61    -0.00013260148040994
  62    -1.3924409478453e-06
  63    1.2821912272076e-05
  64    -7.3844523297427e-06
  65    -5.3592266513546e-06
  66    5.4969460099385e-06
  67    8.1911982448325e-05
  68    2.7543996571438e-06
  69    4.5746025709143e-05
  70    0.0001248265646047
  71    -4.8181086832309e-05
  72    -0.00011131852391669
  73    0.00066873803545782
  74    -0.00036188574837162
  75    7.8341836099525e-05
  76    -1.5986951036662e-05
  77    5.0532900168824e-05
  78    -2.0950571031504e-05
  79    -2.1789979791344e-06
  80    -1.2058802789364e-05
  81    2.5500766138976e-05
  82    -2.7848672289555e-05
  83    6.3574883354014e-06
  84    -1.6140725388017e-06
  85    2.0466477364037e-06
  86    4.6780099267113e-06
  87    6.887579544873e-06
  88    0.00012855191208196
  89    -1.602914996183e-05
  90    -1.8989849717684e-06
  91    7.1912767613418e-06
  92    7.3549013770718e-05
  93    -5.0670999333979e-05
  94    3.5816978917093e-05
  95    -1.5819972688328e-06
  96    -7.8015794198757e-06
  97    3.2667476613097e-06
  98    2.2404276526481e-06
  99    3.8595180922696e-07
 100    1.8119706479752e-05
 101    -1.0295077679875e-05
 102    -7.7274900506895e-06
 103    5.0142052206638e-06
 104    3.0710750846339e-06
 105    5.3165417078719e-05
 106    -3.7167232355292e-05
 107    -1.9865264818799e-05
 108    1.8060092732272e-05
 109    -1.2220164497445e-05
 110    4.6731819729785e-05
 111    -5.5468522487953e-05
 112    -2.0446135566077e-05
 113    8.333370665468e-06
 114    -1.3961345654848e-05
 115    -6.8159320016915e-05
 116    0.00029972150019333
 117    -0.00074144418095593
 118    -0.00036381387481481
 119    0.00027387907394689
 120    -0.00030644562254275
 121    0.00049439016984601
 122    -0.00033746578358093
 123    2.8439417971653e-05
 124    2.6801926466699e-05
 125    -4.682734242349e-06
 126    1.9044191756357e-06
 127    -5.2298716464837e-06
 128    8.0141688900521e-06
 129    -2.6715211126652e-06
 130    7.2351592337603e-07
 131    -7.6122384312249e-06
 132    2.2937854412713e-06
 133    -1.0186525031354e-06
 134    2.029448717177e-05
 135    3.7905607490867e-05
 136    4.739753819643e-06
 137    -1.6039934608754e-06
 138    3.7411464068443e-06
 139    9.2356467242248e-06
 140    1.4733634582701e-05
 141    -0.00011579578843442
 142    4.4284268696636e-06
 143    -4.3444175363981e-06
 144    1.6576826794755e-06
 145    6.1636921002589e-05
 146    -1.7396735005065e-05
 147    -9.5143070143836e-05
 148    -5.1764224489468e-07
 149    5.0690705081139e-06
 150    -3.7668829667079e-06
 151    -1.8536571884767e-06
 152    4.425004761291e-06
 153    -1.8990003175103e-05
 154    1.8190758372287e-06
 155    -3.6728423943695e-05
 156    2.4286667031631e-05
 157    -8.3694391417724e-06
 158    -3.5409989418931e-05
 159    -5.9312568420149e-05
 160    -3.4658395699677e-05
 161     2.16087504396e-05
 162    -7.8485310329043e-06
 163    0.00074326371635387
 164    0.00042886488161927
 165    -3.2855409784197e-05
 166    0.0006146236060371
 167    -0.00024260826900885
 168    -0.00052565407029057
 169    0.0016647388674165
 170    -0.0010110167072912
 171    0.00018606240012561
 172    -5.5478982707015e-05
 173    0.00017522216236682
 174    -1.8091360496975e-05
 175    -8.0263648755492e-05
 176    1.0040397365299e-05
 177    1.1437786897734e-05
 178    1.8741430962254e-05
 179    -3.0295885679402e-06
 180    -1.5880506095179e-07
 181    2.2725152267462e-06
 182    5.5365898222401e-07
 183    1.2644030732274e-06
 184    -1.3374740098403e-05
 185    2.0012276223252e-07
 186    -1.2953831229594e-06
 187    -3.4147537144359e-07
 188    1.0720704733601e-05
 189    1.345679065982e-05
 190    9.1356161695065e-07
 191    9.5042714217947e-07
 192    2.1046736168453e-07
 193    7.6910013716032e-07
 194    6.2160335725588e-07
 195    -2.1157620511714e-06
 196    2.2983354044811e-06
 197    -1.7224330042631e-05
 198    -1.9724032537027e-06
 199    -2.4606572638393e-06
 200    2.6616763268941e-06
 201    0.00043640745440192
 202    0.0002961960209891
 203    -5.5168901732134e-05
 204    8.7110693931569e-05
 205    -9.2474459251835e-06
 206    0.00029454880044014
 207    6.7478998433799e-05
 208    -9.7483454600733e-05
 209    3.1981759095387e-06
 210    -3.0581145494977e-05
 211    -0.0027381697005288
 212    -0.0014972936023651
 213    -0.0022811446237652
 214    -0.00046656895298293
 215    0.0017985760033172
 216    -0.001512207127255
 217    0.00090471711056778
 218    0.00012840355946534
 219    -0.00042973558389187
 220    2.4378244921357e-05
 221    0.00015930108975063
 222    -8.404080172678e-05
 223    0.00010978848585543
 224    -0.00026501308318047
 225    -8.0865586710636e-07
 226    -7.2829891469855e-06
 227    -8.2009760734975e-08
 228    -4.2402034109986e-07
 229    4.0330763597371e-07
 230    7.8310232926543e-07
 231    -8.7088334514171e-07
 232    -2.1805196423192e-07
 233    -5.833299928193e-07
 234    -6.9540240376183e-07
 235    3.3361732103384e-06
 236    5.6515839246519e-06
 237    -1.1837930402476e-05
 238    -4.8566708775538e-07
 239    -9.6133702090984e-07
 240     8.90709224802e-07
 241    1.2330259921131e-05
 242    7.6401976312787e-06
 243    -1.6063389241509e-05
 244    -1.4732945944064e-07
 245    1.4987458900766e-06
 246    -5.4513435459582e-07
 247    -1.7741748234843e-07
 248    -6.9087660994293e-08
 249    -0.00084441162364876
 250    -0.00027970127845496
 251    5.5727744925909e-05
 252    0.00010037354118829
 253    9.0155402379143e-05
 254    -0.0023564102381877
 255    -0.00095561499953554
 256    -0.00010327025180353
 257    -0.00017452957155454
 258    0.00011339903141325
 259      -1.0023860346794
 260    -0.0042424067383691
 261     0.010264663218458
 262    0.00094536645237034