[Molden Format]
made by pyscf v[2.0.1]
[Atoms] (AU)
O   1   8     0.00000000000000     0.00000000000000    11.69764103529358
H   2   1     0.00000000000000     0.00000000000000     9.87423921339262
H   3   1    -0.05031916615174     1.78353065140343    12.07351273176025
O   4   8     0.00000000000000     0.00000000000000     2.31533471513237
C   5   6     0.00000000000000     0.00000000000000     0.00000000000000
C   6   6     2.01118073026938    -1.40227222164369    -1.50774939176400
C   7   6    -2.01249334291722     1.41331050329955    -1.50315905028694
H   8   1     3.32037363730244    -2.26721897153159    -0.13599698591495
C   9   6     3.45899267434009     0.28739631745591    -3.37437943254505
H   10   1     1.07662969841332    -2.94725144642667    -2.56541439481080
H   11   1    -2.67503415753480     0.18421555839588    -3.06194479365997
H   12   1    -1.07974048864772     3.03851734677796    -2.43674295017013
C   13   6    -4.21607110578555     2.32938802552922     0.11994162256091
H   14   1     4.24440173074564     1.93368664142019    -2.34976285512790
H   15   1     2.15020713235517     1.04714335134846    -4.81494497423699
C   16   6     5.60746363007797    -1.12419643481196    -4.70268606082550
H   17   1    -3.46838323670267     3.50951302338067     1.66946842715333
H   18   1    -5.11873485366228     0.68575958301209     1.04047743976495
C   19   6    -6.18314754751344     3.80909592987882    -1.39656589068747
H   20   1     6.93011263717176    -1.87550812453645    -3.26656317360070
C   21   6     7.06356622236532     0.52877932406334    -6.57829775293605
H   22   1     4.82318879258361    -2.78573437948532    -5.70504560381835
H   23   1    -6.91582688743803     2.61304780074712    -2.95074552451969
H   24   1    -5.26532430573853     5.45420349051338    -2.31005832200284
C   25   6    -8.39941882261433     4.73263980500213     0.21800571437956
H   26   1     7.83338371486801     2.19084139882824    -5.57093109900697
H   27   1     5.73544244039420     1.27376866537418    -8.01071492370229
C   28   6     9.21124858443101    -0.89699110072176    -7.88926949186242
H   29   1    -7.66272760055236     5.92277078003992     1.77035591474408
H   30   1    -9.31497248082589     3.08753015622020     1.12614408368786
C   31   6   -10.35481709231879     6.21833079391143    -1.30905206253246
H   32   1    10.58815905329501    -1.61074586756696    -6.49512691622620
H   33   1    10.23506248045667     0.32468009384095    -9.23072870921204
H   34   1     8.47665842847139    -2.53598436989925    -8.94921964622535
H   35   1    -9.48948872868064     7.90013588951020    -2.18823918416067
H   36   1   -11.93332513000955     6.86460487874102    -0.11255798845995
H   37   1   -11.15126291841033     5.04495968327630    -2.83849898862534
[GTO]
1 0
 s    8 1.00
                 11720  0.00070964594651845
                  1759  0.0054672722921914
                 400.8   0.027823118610189
                 113.7    0.10474773971146
                 37.03    0.28292084635691
                 13.27    0.44849523869833
                 5.025    0.27081688521277
                 1.013    0.01545029160744
 s    8 1.00
                 11720  -0.00031444341168873
                  1759  -0.0024821376810179
                 400.8  -0.012316355381583
                 113.7  -0.050538917343672
                 37.03   -0.13938490331632
                 13.27   -0.32507749481778
                 5.025   -0.22984830758785
                 1.013     1.0953793467883
 s    1 1.00
                0.3023                   1
 p    3 1.00
                  17.7   0.062679166281506
                 3.854    0.33353656587936
                 1.046    0.74123964163973
 p    1 1.00
                0.2753                   1
 d    1 1.00
                 1.185                   1

2 0
 s    3 1.00
                 13.01   0.033498726389998
                 1.962    0.23480080117413
                0.4446     0.8136829578829
 s    1 1.00
                 0.122                   1
 p    1 1.00
                 0.727                   1

3 0
 s    3 1.00
                 13.01   0.033498726389998
                 1.962    0.23480080117413
                0.4446     0.8136829578829
 s    1 1.00
                 0.122                   1
 p    1 1.00
                 0.727                   1

4 0
 s    8 1.00
                 11720  0.00070964594651845
                  1759  0.0054672722921914
                 400.8   0.027823118610189
                 113.7    0.10474773971146
                 37.03    0.28292084635691
                 13.27    0.44849523869833
                 5.025    0.27081688521277
                 1.013    0.01545029160744
 s    8 1.00
                 11720  -0.00031444341168873
                  1759  -0.0024821376810179
                 400.8  -0.012316355381583
                 113.7  -0.050538917343672
                 37.03   -0.13938490331632
                 13.27   -0.32507749481778
                 5.025   -0.22984830758785
                 1.013     1.0953793467883
 s    1 1.00
                0.3023                   1
 p    3 1.00
                  17.7   0.062679166281506
                 3.854    0.33353656587936
                 1.046    0.74123964163973
 p    1 1.00
                0.2753                   1
 d    1 1.00
                 1.185                   1

5 0
 s    8 1.00
                  6665  0.00069158396281299
                  1000  0.0053257961529341
                   228   0.027060721042034
                 64.71    0.10165684614077
                 21.06     0.2745748236174
                 7.495    0.44829431892377
                 2.797    0.28490261071525
                0.5215   0.015194859206082
 s    8 1.00
                  6665  -0.00029326965268655
                  1000  -0.0023180354739745
                   228  -0.011499786038565
                 64.71  -0.046826727009787
                 21.06   -0.12846616875047
                 7.495   -0.30126627246289
                 2.797   -0.25563070233011
                0.5215      1.093793361012
 s    1 1.00
                0.1596                   1
 p    3 1.00
                 9.439   0.056979251590039
                 2.002    0.31320721150073
                0.5456    0.76037674173753
 p    1 1.00
                0.1517                   1
 d    1 1.00
                  0.55                   1

6 0
 s    8 1.00
                  6665  0.00069158396281299
                  1000  0.0053257961529341
                   228   0.027060721042034
                 64.71    0.10165684614077
                 21.06     0.2745748236174
                 7.495    0.44829431892377
                 2.797    0.28490261071525
                0.5215   0.015194859206082
 s    8 1.00
                  6665  -0.00029326965268655
                  1000  -0.0023180354739745
                   228  -0.011499786038565
                 64.71  -0.046826727009787
                 21.06   -0.12846616875047
                 7.495   -0.30126627246289
                 2.797   -0.25563070233011
                0.5215      1.093793361012
 s    1 1.00
                0.1596                   1
 p    3 1.00
                 9.439   0.056979251590039
                 2.002    0.31320721150073
                0.5456    0.76037674173753
 p    1 1.00
                0.1517                   1
 d    1 1.00
                  0.55                   1

7 0
 s    8 1.00
                  6665  0.00069158396281299
                  1000  0.0053257961529341
                   228   0.027060721042034
                 64.71    0.10165684614077
                 21.06     0.2745748236174
                 7.495    0.44829431892377
                 2.797    0.28490261071525
                0.5215   0.015194859206082
 s    8 1.00
                  6665  -0.00029326965268655
                  1000  -0.0023180354739745
                   228  -0.011499786038565
                 64.71  -0.046826727009787
                 21.06   -0.12846616875047
                 7.495   -0.30126627246289
                 2.797   -0.25563070233011
                0.5215      1.093793361012
 s    1 1.00
                0.1596                   1
 p    3 1.00
                 9.439   0.056979251590039
                 2.002    0.31320721150073
                0.5456    0.76037674173753
 p    1 1.00
                0.1517                   1
 d    1 1.00
                  0.55                   1

8 0
 s    3 1.00
                 13.01   0.033498726389998
                 1.962    0.23480080117413
                0.4446     0.8136829578829
 s    1 1.00
                 0.122                   1
 p    1 1.00
                 0.727                   1

9 0
 s    8 1.00
                  6665  0.00069158396281299
                  1000  0.0053257961529341
                   228   0.027060721042034
                 64.71    0.10165684614077
                 21.06     0.2745748236174
                 7.495    0.44829431892377
                 2.797    0.28490261071525
                0.5215   0.015194859206082
 s    8 1.00
                  6665  -0.00029326965268655
                  1000  -0.0023180354739745
                   228  -0.011499786038565
                 64.71  -0.046826727009787
                 21.06   -0.12846616875047
                 7.495   -0.30126627246289
                 2.797   -0.25563070233011
                0.5215      1.093793361012
 s    1 1.00
                0.1596                   1
 p    3 1.00
                 9.439   0.056979251590039
                 2.002    0.31320721150073
                0.5456    0.76037674173753
 p    1 1.00
                0.1517                   1
 d    1 1.00
                  0.55                   1

10 0
 s    3 1.00
                 13.01   0.033498726389998
                 1.962    0.23480080117413
                0.4446     0.8136829578829
 s    1 1.00
                 0.122                   1
 p    1 1.00
                 0.727                   1

11 0
 s    3 1.00
                 13.01   0.033498726389998
                 1.962    0.23480080117413
                0.4446     0.8136829578829
 s    1 1.00
                 0.122                   1
 p    1 1.00
                 0.727                   1

12 0
 s    3 1.00
                 13.01   0.033498726389998
                 1.962    0.23480080117413
                0.4446     0.8136829578829
 s    1 1.00
                 0.122                   1
 p    1 1.00
                 0.727                   1

13 0
 s    8 1.00
                  6665  0.00069158396281299
                  1000  0.0053257961529341
                   228   0.027060721042034
                 64.71    0.10165684614077
                 21.06     0.2745748236174
                 7.495    0.44829431892377
                 2.797    0.28490261071525
                0.5215   0.015194859206082
 s    8 1.00
                  6665  -0.00029326965268655
                  1000  -0.0023180354739745
                   228  -0.011499786038565
                 64.71  -0.046826727009787
                 21.06   -0.12846616875047
                 7.495   -0.30126627246289
                 2.797   -0.25563070233011
                0.5215      1.093793361012
 s    1 1.00
                0.1596                   1
 p    3 1.00
                 9.439   0.056979251590039
                 2.002    0.31320721150073
                0.5456    0.76037674173753
 p    1 1.00
                0.1517                   1
 d    1 1.00
                  0.55                   1

14 0
 s    3 1.00
                 13.01   0.033498726389998
                 1.962    0.23480080117413
                0.4446     0.8136829578829
 s    1 1.00
                 0.122                   1
 p    1 1.00
                 0.727                   1

15 0
 s    3 1.00
                 13.01   0.033498726389998
                 1.962    0.23480080117413
                0.4446     0.8136829578829
 s    1 1.00
                 0.122                   1
 p    1 1.00
                 0.727                   1

16 0
 s    8 1.00
                  6665  0.00069158396281299
                  1000  0.0053257961529341
                   228   0.027060721042034
                 64.71    0.10165684614077
                 21.06     0.2745748236174
                 7.495    0.44829431892377
                 2.797    0.28490261071525
                0.5215   0.015194859206082
 s    8 1.00
                  6665  -0.00029326965268655
                  1000  -0.0023180354739745
                   228  -0.011499786038565
                 64.71  -0.046826727009787
                 21.06   -0.12846616875047
                 7.495   -0.30126627246289
                 2.797   -0.25563070233011
                0.5215      1.093793361012
 s    1 1.00
                0.1596                   1
 p    3 1.00
                 9.439   0.056979251590039
                 2.002    0.31320721150073
                0.5456    0.76037674173753
 p    1 1.00
                0.1517                   1
 d    1 1.00
                  0.55                   1

17 0
 s    3 1.00
                 13.01   0.033498726389998
                 1.962    0.23480080117413
                0.4446     0.8136829578829
 s    1 1.00
                 0.122                   1
 p    1 1.00
                 0.727                   1

18 0
 s    3 1.00
                 13.01   0.033498726389998
                 1.962    0.23480080117413
                0.4446     0.8136829578829
 s    1 1.00
                 0.122                   1
 p    1 1.00
                 0.727                   1

19 0
 s    8 1.00
                  6665  0.00069158396281299
                  1000  0.0053257961529341
                   228   0.027060721042034
                 64.71    0.10165684614077
                 21.06     0.2745748236174
                 7.495    0.44829431892377
                 2.797    0.28490261071525
                0.5215   0.015194859206082
 s    8 1.00
                  6665  -0.00029326965268655
                  1000  -0.0023180354739745
                   228  -0.011499786038565
                 64.71  -0.046826727009787
                 21.06   -0.12846616875047
                 7.495   -0.30126627246289
                 2.797   -0.25563070233011
                0.5215      1.093793361012
 s    1 1.00
                0.1596                   1
 p    3 1.00
                 9.439   0.056979251590039
                 2.002    0.31320721150073
                0.5456    0.76037674173753
 p    1 1.00
                0.1517                   1
 d    1 1.00
                  0.55                   1

20 0
 s    3 1.00
                 13.01   0.033498726389998
                 1.962    0.23480080117413
                0.4446     0.8136829578829
 s    1 1.00
                 0.122                   1
 p    1 1.00
                 0.727                   1

21 0
 s    8 1.00
                  6665  0.00069158396281299
                  1000  0.0053257961529341
                   228   0.027060721042034
                 64.71    0.10165684614077
                 21.06     0.2745748236174
                 7.495    0.44829431892377
                 2.797    0.28490261071525
                0.5215   0.015194859206082
 s    8 1.00
                  6665  -0.00029326965268655
                  1000  -0.0023180354739745
                   228  -0.011499786038565
                 64.71  -0.046826727009787
                 21.06   -0.12846616875047
                 7.495   -0.30126627246289
                 2.797   -0.25563070233011
                0.5215      1.093793361012
 s    1 1.00
                0.1596                   1
 p    3 1.00
                 9.439   0.056979251590039
                 2.002    0.31320721150073
                0.5456    0.76037674173753
 p    1 1.00
                0.1517                   1
 d    1 1.00
                  0.55                   1

22 0
 s    3 1.00
                 13.01   0.033498726389998
                 1.962    0.23480080117413
                0.4446     0.8136829578829
 s    1 1.00
                 0.122                   1
 p    1 1.00
                 0.727                   1

23 0
 s    3 1.00
                 13.01   0.033498726389998
                 1.962    0.23480080117413
                0.4446     0.8136829578829
 s    1 1.00
                 0.122                   1
 p    1 1.00
                 0.727                   1

24 0
 s    3 1.00
                 13.01   0.033498726389998
                 1.962    0.23480080117413
                0.4446     0.8136829578829
 s    1 1.00
                 0.122                   1
 p    1 1.00
                 0.727                   1

25 0
 s    8 1.00
                  6665  0.00069158396281299
                  1000  0.0053257961529341
                   228   0.027060721042034
                 64.71    0.10165684614077
                 21.06     0.2745748236174
                 7.495    0.44829431892377
                 2.797    0.28490261071525
                0.5215   0.015194859206082
 s    8 1.00
                  6665  -0.00029326965268655
                  1000  -0.0023180354739745
                   228  -0.011499786038565
                 64.71  -0.046826727009787
                 21.06   -0.12846616875047
                 7.495   -0.30126627246289
                 2.797   -0.25563070233011
                0.5215      1.093793361012
 s    1 1.00
                0.1596                   1
 p    3 1.00
                 9.439   0.056979251590039
                 2.002    0.31320721150073
                0.5456    0.76037674173753
 p    1 1.00
                0.1517                   1
 d    1 1.00
                  0.55                   1

26 0
 s    3 1.00
                 13.01   0.033498726389998
                 1.962    0.23480080117413
                0.4446     0.8136829578829
 s    1 1.00
                 0.122                   1
 p    1 1.00
                 0.727                   1

27 0
 s    3 1.00
                 13.01   0.033498726389998
                 1.962    0.23480080117413
                0.4446     0.8136829578829
 s    1 1.00
                 0.122                   1
 p    1 1.00
                 0.727                   1

28 0
 s    8 1.00
                  6665  0.00069158396281299
                  1000  0.0053257961529341
                   228   0.027060721042034
                 64.71    0.10165684614077
                 21.06     0.2745748236174
                 7.495    0.44829431892377
                 2.797    0.28490261071525
                0.5215   0.015194859206082
 s    8 1.00
                  6665  -0.00029326965268655
                  1000  -0.0023180354739745
                   228  -0.011499786038565
                 64.71  -0.046826727009787
                 21.06   -0.12846616875047
                 7.495   -0.30126627246289
                 2.797   -0.25563070233011
                0.5215      1.093793361012
 s    1 1.00
                0.1596                   1
 p    3 1.00
                 9.439   0.056979251590039
                 2.002    0.31320721150073
                0.5456    0.76037674173753
 p    1 1.00
                0.1517                   1
 d    1 1.00
                  0.55                   1

29 0
 s    3 1.00
                 13.01   0.033498726389998
                 1.962    0.23480080117413
                0.4446     0.8136829578829
 s    1 1.00
                 0.122                   1
 p    1 1.00
                 0.727                   1

30 0
 s    3 1.00
                 13.01   0.033498726389998
                 1.962    0.23480080117413
                0.4446     0.8136829578829
 s    1 1.00
                 0.122                   1
 p    1 1.00
                 0.727                   1

31 0
 s    8 1.00
                  6665  0.00069158396281299
                  1000  0.0053257961529341
                   228   0.027060721042034
                 64.71    0.10165684614077
                 21.06     0.2745748236174
                 7.495    0.44829431892377
                 2.797    0.28490261071525
                0.5215   0.015194859206082
 s    8 1.00
                  6665  -0.00029326965268655
                  1000  -0.0023180354739745
                   228  -0.011499786038565
                 64.71  -0.046826727009787
                 21.06   -0.12846616875047
                 7.495   -0.30126627246289
                 2.797   -0.25563070233011
                0.5215      1.093793361012
 s    1 1.00
                0.1596                   1
 p    3 1.00
                 9.439   0.056979251590039
                 2.002    0.31320721150073
                0.5456    0.76037674173753
 p    1 1.00
                0.1517                   1
 d    1 1.00
                  0.55                   1

32 0
 s    3 1.00
                 13.01   0.033498726389998
                 1.962    0.23480080117413
                0.4446     0.8136829578829
 s    1 1.00
                 0.122                   1
 p    1 1.00
                 0.727                   1

33 0
 s    3 1.00
                 13.01   0.033498726389998
                 1.962    0.23480080117413
                0.4446     0.8136829578829
 s    1 1.00
                 0.122                   1
 p    1 1.00
                 0.727                   1

34 0
 s    3 1.00
                 13.01   0.033498726389998
                 1.962    0.23480080117413
                0.4446     0.8136829578829
 s    1 1.00
                 0.122                   1
 p    1 1.00
                 0.727                   1

35 0
 s    3 1.00
                 13.01   0.033498726389998
                 1.962    0.23480080117413
                0.4446     0.8136829578829
 s    1 1.00
                 0.122                   1
 p    1 1.00
                 0.727                   1

36 0
 s    3 1.00
                 13.01   0.033498726389998
                 1.962    0.23480080117413
                0.4446     0.8136829578829
 s    1 1.00
                 0.122                   1
 p    1 1.00
                 0.727                   1

37 0
 s    3 1.00
                 13.01   0.033498726389998
                 1.962    0.23480080117413
                0.4446     0.8136829578829
 s    1 1.00
                 0.122                   1
 p    1 1.00
                 0.727                   1

[5d]
[7f]
[9g]

[MO]
 Sym= A
 Ene=               0
 Spin= Alpha
 Occup=    1.00000
   1    -1.8463863824512e-05
   2    -8.1106840836656e-06
   3    3.2739314735382e-05
   4    -3.2510234291387e-08
   5    1.2338747222111e-06
   6    -3.5610781204543e-07
   7    2.263094227192e-07
   8    -8.1625160990036e-06
   9    -2.5481998748977e-05
  10    4.8574316280155e-06
  11    9.6813116470715e-09
  12    -3.8841669812953e-07
  13    4.2100092461457e-07
  14    2.3408949694618e-08
  15    -3.6292220196769e-06
  16    -5.0095370691623e-05
  17    -1.8796771755778e-08
  18    5.109617312771e-07
  19    -1.5694464660753e-05
  20    -1.7063951439671e-06
  21    2.1402977782862e-05
  22    8.1975544833439e-08
  23    -2.8607104552165e-06
  24    6.6508153822378e-07
  25       1.0013572113029
  26    0.0019416195676402
  27    -0.0067486408795983
  28    -4.4157375027381e-06
  29    7.1588910462708e-06
  30    -0.0016625868161769
  31    -3.5907175572889e-07
  32    -9.7056403040836e-07
  33     0.001802327969421
  34    0.00013187073307456
  35    -3.064025000048e-06
  36    1.299642690589e-06
  37    6.7824654209682e-05
  38    -0.00017667412839019
  39    0.00027058615293423
  40    0.00036495611143037
  41    0.0013849886771498
  42    1.499806310576e-05
  43    -9.9985837703277e-06
  44    -1.7189822740877e-05
  45    8.2822853128923e-05
  46    -6.3269692013282e-05
  47    0.0035222896397276
  48    -0.00054302471077652
  49    -8.6675802642927e-06
  50    2.5064017544209e-06
  51    2.8405766972088e-05
  52    -0.00010652226795304
  53    -8.5116727108344e-05
  54    -0.0001662137989714
  55    0.0013646114589718
  56    7.8215874479175e-05
  57    -7.230898760125e-06
  58    -3.6700082674598e-05
  59    -0.0004228698543914
  60    0.00047539750463377
  61    -0.00091690826455284
  62    -0.00011813845444763
  63    0.00015037613012773
  64    -0.00014286547266408
  65    5.5327126163456e-05
  66    -0.00013092469068799
  67    -4.0765010405864e-05
  68    -9.8969321401237e-05
  69    0.00051076500686125
  70    -6.1136782119785e-05
  71    3.9673717793016e-05
  72    -6.2717830148775e-05
  73    0.00099614543143581
  74    -0.00076847650825253
  75    -0.00063147047549868
  76    -0.00014166202169878
  77    -0.00012066807772711
  78    8.9648520418919e-05
  79    5.9308423535411e-05
  80    -0.00015257975066775
  81    -6.5840600132472e-05
  82    0.00020565436589104
  83    6.5769223240101e-05
  84    -4.8279609913075e-05
  85    4.9340294443219e-05
  86    2.4988692306024e-05
  87    4.8475092154937e-05
  88    -0.00060135586498936
  89    -1.6701732591171e-05
  90    -1.6773364024032e-05
  91    1.2824031297634e-05
  92    0.00025444297733729
  93    0.00061969757946085
  94    -1.9541575641971e-05
  95    1.7911622111503e-05
  96    1.1042056569665e-05
  97    6.9695541477772e-06
  98    -2.0906054237461e-05
  99    -4.5027808121382e-05
 100    -3.6299291258829e-05
 101    -0.00015676252038642
 102    9.8889014651673e-06
 103    -9.6176730454992e-06
 104    7.386752170937e-05
 105    -1.7425402765909e-05
 106    -0.000199515060883
 107    -6.4587861716791e-05
 108    1.1871007327045e-05
 109    7.430855214427e-05
 110    7.7332501791168e-05
 111    -5.6728392473307e-05
 112    -4.5851177449645e-05
 113    1.809277771056e-05
 114    6.9268847800216e-05
 115    -5.0083844862342e-05
 116    -0.00010271612443034
 117    0.00083694718004433
 118    -2.5482379239546e-05
 119    -1.1594630740521e-05
 120    3.3949776520416e-05
 121    0.00030064193229283
 122    2.739206967298e-05
 123    -0.00012970358588973
 124    -6.6959325118082e-06
 125    1.2501212769538e-05
 126    1.6034332892498e-05
 127    -3.2370795683893e-05
 128    4.9701930459011e-05
 129    -1.8883839855803e-05
 130    -0.00031895969530037
 131    7.3774515352641e-06
 132    5.8593484027875e-06
 133    2.9093940800502e-05
 134    2.585003375911e-05
 135    -0.00011890649354281
 136    -1.3427079406515e-05
 137    -2.3802503174015e-05
 138    -2.6441869565253e-05
 139    -2.104504532354e-05
 140    -3.736751054332e-05
 141    0.00028492675020914
 142    9.2114132960709e-06
 143    -1.6549151431455e-06
 144    -7.5365231132135e-06
 145    -0.00022822829703305
 146    5.0926507970776e-05
 147    6.3946468894178e-05
 148    -2.3734596071514e-06
 149    3.1229585626599e-06
 150    -3.4378690894744e-06
 151    1.161247828485e-05
 152    -4.8813618745028e-06
 153    -9.7827158367921e-05
 154    -0.00011756683528158
 155    -2.5581103631626e-05
 156    3.029586854449e-05
 157    2.0862072804384e-05
 158    -2.452777204869e-05
 159    -8.9004234391843e-05
 160    -5.9534917690065e-05
 161    -7.1026032181862e-06
 162     5.92807792283e-06
 163    5.3204560040419e-06
 164    -3.139164762102e-06
 165    -0.0002298661133237
 166    -2.0404868938236e-05
 167    2.242702596761e-05
 168    9.2635772934047e-06
 169    0.00023808951303092
 170    -0.00021141727677023
 171    -0.00012838716905011
 172    -3.2632015991397e-06
 173    9.5111835549668e-06
 174    -1.3748761698738e-05
 175    3.3505001758446e-06
 176    -1.8606408276636e-05
 177    -1.5640971358402e-05
 178    8.2905131754987e-05
 179    -6.5353709484273e-07
 180    2.0714654150598e-06
 181    -5.0724673182551e-06
 182     1.31026928473e-05
 183    2.4498264463779e-05
 184    -6.5633410320537e-05
 185    -9.6817516542793e-06
 186    6.0795818763547e-06
 187    9.2937071728539e-06
 188    0.00012316933286227
 189    -0.00010062508200306
 190    -8.1533671705735e-05
 191    1.4873256955447e-06
 192    2.1847856656651e-06
 193    -8.0010637127688e-06
 194    -3.249077496083e-06
 195    -4.4430046758839e-06
 196    -1.3635648259938e-05
 197    -1.8166185492402e-05
 198    5.6872246116033e-06
 199    2.0167070096152e-06
 200    -3.6677871903529e-06
 201    -1.7137085063296e-05
 202    1.8837227871622e-06
 203    -1.3041033731561e-05
 204    1.0209555420841e-05
 205    1.1691892641862e-05
 206    1.3809641987296e-05
 207    7.0070115197695e-05
 208    -1.6551264532718e-05
 209    3.7156516081724e-06
 210    1.5841391622013e-05
 211    -1.8077568218782e-05
 212    -2.9904773894695e-05
 213    0.00025307748227422
 214    1.0309649945117e-05
 215    -1.257978821392e-06
 216    -1.2320788826869e-05
 217    0.00019873081203819
 218    -5.3487956809898e-05
 219    -7.932659426404e-05
 220    -1.9946947280629e-06
 221    -1.7051481977116e-05
 222    5.5516068982873e-06
 223    9.7220012337572e-06
 224    -1.9974418349648e-06
 225    2.5896938025558e-05
 226    5.4221073499775e-05
 227    -1.2274668548633e-05
 228    -1.8212921802399e-06
 229    -9.2372450282981e-07
 230    9.7367233449851e-06
 231    5.4586896855449e-05
 232    -4.0377197573481e-06
 233    6.3026878252176e-06
 234    1.1990358523682e-05
 235    -1.1014000659942e-06
 236    -4.9147573578619e-06
 237    -8.1554717342366e-05
 238    6.1710828594152e-06
 239    1.5377305586555e-06
 240    -7.9332928363206e-06
 241    3.667089514933e-05
 242    -6.2291499368968e-05
 243    1.5729078379421e-05
 244    1.9698137417175e-06
 245    1.8657408602302e-06
 246    -2.147534900165e-06
 247    4.036172577086e-08
 248    1.2883293119919e-06
 249    -1.9938699224382e-05
 250    1.2678205032348e-05
 251    -4.4703355340394e-06
 252    -9.2344299189198e-07
 253    -3.4335222013645e-07
 254    -2.0237923287489e-05
 255    5.4480161675961e-05
 256    -2.0482655899846e-07
 257    4.1260685718219e-06
 258    -9.0133875402127e-07
 259    -1.1203524532484e-05
 260    -1.9949980010831e-05
 261    8.148580654555e-05
 262    -3.6202610411281e-06