[Molden Format]
made by pyscf v[2.0.1]
[Atoms] (AU)
O   1   8     0.00000000000000     0.00000000000000    10.94175058546756
H   2   1     0.00000000000000     0.00000000000000     9.11834876356659
H   3   1    -0.05031916615174     1.78353065140343    11.31762228193423
O   4   8     0.00000000000000     0.00000000000000     2.31533471513237
C   5   6     0.00000000000000     0.00000000000000     0.00000000000000
C   6   6     2.01118073026938    -1.40227222164369    -1.50774939176400
C   7   6    -2.01249334291722     1.41331050329955    -1.50315905028694
H   8   1     3.32037363730244    -2.26721897153159    -0.13599698591495
C   9   6     3.45899267434009     0.28739631745591    -3.37437943254505
H   10   1     1.07662969841332    -2.94725144642667    -2.56541439481080
H   11   1    -2.67503415753480     0.18421555839588    -3.06194479365997
H   12   1    -1.07974048864772     3.03851734677796    -2.43674295017013
C   13   6    -4.21607110578555     2.32938802552922     0.11994162256091
H   14   1     4.24440173074564     1.93368664142019    -2.34976285512790
H   15   1     2.15020713235517     1.04714335134846    -4.81494497423699
C   16   6     5.60746363007797    -1.12419643481196    -4.70268606082550
H   17   1    -3.46838323670267     3.50951302338067     1.66946842715333
H   18   1    -5.11873485366228     0.68575958301209     1.04047743976495
C   19   6    -6.18314754751344     3.80909592987882    -1.39656589068747
H   20   1     6.93011263717176    -1.87550812453645    -3.26656317360070
C   21   6     7.06356622236532     0.52877932406334    -6.57829775293605
H   22   1     4.82318879258361    -2.78573437948532    -5.70504560381835
H   23   1    -6.91582688743803     2.61304780074712    -2.95074552451969
H   24   1    -5.26532430573853     5.45420349051338    -2.31005832200284
C   25   6    -8.39941882261433     4.73263980500213     0.21800571437956
H   26   1     7.83338371486801     2.19084139882824    -5.57093109900697
H   27   1     5.73544244039420     1.27376866537418    -8.01071492370229
C   28   6     9.21124858443101    -0.89699110072176    -7.88926949186242
H   29   1    -7.66272760055236     5.92277078003992     1.77035591474408
H   30   1    -9.31497248082589     3.08753015622020     1.12614408368786
C   31   6   -10.35481709231879     6.21833079391143    -1.30905206253246
H   32   1    10.58815905329501    -1.61074586756696    -6.49512691622620
H   33   1    10.23506248045667     0.32468009384095    -9.23072870921204
H   34   1     8.47665842847139    -2.53598436989925    -8.94921964622535
H   35   1    -9.48948872868064     7.90013588951020    -2.18823918416067
H   36   1   -11.93332513000955     6.86460487874102    -0.11255798845995
H   37   1   -11.15126291841033     5.04495968327630    -2.83849898862534
[GTO]
1 0
 s    8 1.00
                 11720  0.00070964594651845
                  1759  0.0054672722921914
                 400.8   0.027823118610189
                 113.7    0.10474773971146
                 37.03    0.28292084635691
                 13.27    0.44849523869833
                 5.025    0.27081688521277
                 1.013    0.01545029160744
 s    8 1.00
                 11720  -0.00031444341168873
                  1759  -0.0024821376810179
                 400.8  -0.012316355381583
                 113.7  -0.050538917343672
                 37.03   -0.13938490331632
                 13.27   -0.32507749481778
                 5.025   -0.22984830758785
                 1.013     1.0953793467883
 s    1 1.00
                0.3023                   1
 p    3 1.00
                  17.7   0.062679166281506
                 3.854    0.33353656587936
                 1.046    0.74123964163973
 p    1 1.00
                0.2753                   1
 d    1 1.00
                 1.185                   1

2 0
 s    3 1.00
                 13.01   0.033498726389998
                 1.962    0.23480080117413
                0.4446     0.8136829578829
 s    1 1.00
                 0.122                   1
 p    1 1.00
                 0.727                   1

3 0
 s    3 1.00
                 13.01   0.033498726389998
                 1.962    0.23480080117413
                0.4446     0.8136829578829
 s    1 1.00
                 0.122                   1
 p    1 1.00
                 0.727                   1

4 0
 s    8 1.00
                 11720  0.00070964594651845
                  1759  0.0054672722921914
                 400.8   0.027823118610189
                 113.7    0.10474773971146
                 37.03    0.28292084635691
                 13.27    0.44849523869833
                 5.025    0.27081688521277
                 1.013    0.01545029160744
 s    8 1.00
                 11720  -0.00031444341168873
                  1759  -0.0024821376810179
                 400.8  -0.012316355381583
                 113.7  -0.050538917343672
                 37.03   -0.13938490331632
                 13.27   -0.32507749481778
                 5.025   -0.22984830758785
                 1.013     1.0953793467883
 s    1 1.00
                0.3023                   1
 p    3 1.00
                  17.7   0.062679166281506
                 3.854    0.33353656587936
                 1.046    0.74123964163973
 p    1 1.00
                0.2753                   1
 d    1 1.00
                 1.185                   1

5 0
 s    8 1.00
                  6665  0.00069158396281299
                  1000  0.0053257961529341
                   228   0.027060721042034
                 64.71    0.10165684614077
                 21.06     0.2745748236174
                 7.495    0.44829431892377
                 2.797    0.28490261071525
                0.5215   0.015194859206082
 s    8 1.00
                  6665  -0.00029326965268655
                  1000  -0.0023180354739745
                   228  -0.011499786038565
                 64.71  -0.046826727009787
                 21.06   -0.12846616875047
                 7.495   -0.30126627246289
                 2.797   -0.25563070233011
                0.5215      1.093793361012
 s    1 1.00
                0.1596                   1
 p    3 1.00
                 9.439   0.056979251590039
                 2.002    0.31320721150073
                0.5456    0.76037674173753
 p    1 1.00
                0.1517                   1
 d    1 1.00
                  0.55                   1

6 0
 s    8 1.00
                  6665  0.00069158396281299
                  1000  0.0053257961529341
                   228   0.027060721042034
                 64.71    0.10165684614077
                 21.06     0.2745748236174
                 7.495    0.44829431892377
                 2.797    0.28490261071525
                0.5215   0.015194859206082
 s    8 1.00
                  6665  -0.00029326965268655
                  1000  -0.0023180354739745
                   228  -0.011499786038565
                 64.71  -0.046826727009787
                 21.06   -0.12846616875047
                 7.495   -0.30126627246289
                 2.797   -0.25563070233011
                0.5215      1.093793361012
 s    1 1.00
                0.1596                   1
 p    3 1.00
                 9.439   0.056979251590039
                 2.002    0.31320721150073
                0.5456    0.76037674173753
 p    1 1.00
                0.1517                   1
 d    1 1.00
                  0.55                   1

7 0
 s    8 1.00
                  6665  0.00069158396281299
                  1000  0.0053257961529341
                   228   0.027060721042034
                 64.71    0.10165684614077
                 21.06     0.2745748236174
                 7.495    0.44829431892377
                 2.797    0.28490261071525
                0.5215   0.015194859206082
 s    8 1.00
                  6665  -0.00029326965268655
                  1000  -0.0023180354739745
                   228  -0.011499786038565
                 64.71  -0.046826727009787
                 21.06   -0.12846616875047
                 7.495   -0.30126627246289
                 2.797   -0.25563070233011
                0.5215      1.093793361012
 s    1 1.00
                0.1596                   1
 p    3 1.00
                 9.439   0.056979251590039
                 2.002    0.31320721150073
                0.5456    0.76037674173753
 p    1 1.00
                0.1517                   1
 d    1 1.00
                  0.55                   1

8 0
 s    3 1.00
                 13.01   0.033498726389998
                 1.962    0.23480080117413
                0.4446     0.8136829578829
 s    1 1.00
                 0.122                   1
 p    1 1.00
                 0.727                   1

9 0
 s    8 1.00
                  6665  0.00069158396281299
                  1000  0.0053257961529341
                   228   0.027060721042034
                 64.71    0.10165684614077
                 21.06     0.2745748236174
                 7.495    0.44829431892377
                 2.797    0.28490261071525
                0.5215   0.015194859206082
 s    8 1.00
                  6665  -0.00029326965268655
                  1000  -0.0023180354739745
                   228  -0.011499786038565
                 64.71  -0.046826727009787
                 21.06   -0.12846616875047
                 7.495   -0.30126627246289
                 2.797   -0.25563070233011
                0.5215      1.093793361012
 s    1 1.00
                0.1596                   1
 p    3 1.00
                 9.439   0.056979251590039
                 2.002    0.31320721150073
                0.5456    0.76037674173753
 p    1 1.00
                0.1517                   1
 d    1 1.00
                  0.55                   1

10 0
 s    3 1.00
                 13.01   0.033498726389998
                 1.962    0.23480080117413
                0.4446     0.8136829578829
 s    1 1.00
                 0.122                   1
 p    1 1.00
                 0.727                   1

11 0
 s    3 1.00
                 13.01   0.033498726389998
                 1.962    0.23480080117413
                0.4446     0.8136829578829
 s    1 1.00
                 0.122                   1
 p    1 1.00
                 0.727                   1

12 0
 s    3 1.00
                 13.01   0.033498726389998
                 1.962    0.23480080117413
                0.4446     0.8136829578829
 s    1 1.00
                 0.122                   1
 p    1 1.00
                 0.727                   1

13 0
 s    8 1.00
                  6665  0.00069158396281299
                  1000  0.0053257961529341
                   228   0.027060721042034
                 64.71    0.10165684614077
                 21.06     0.2745748236174
                 7.495    0.44829431892377
                 2.797    0.28490261071525
                0.5215   0.015194859206082
 s    8 1.00
                  6665  -0.00029326965268655
                  1000  -0.0023180354739745
                   228  -0.011499786038565
                 64.71  -0.046826727009787
                 21.06   -0.12846616875047
                 7.495   -0.30126627246289
                 2.797   -0.25563070233011
                0.5215      1.093793361012
 s    1 1.00
                0.1596                   1
 p    3 1.00
                 9.439   0.056979251590039
                 2.002    0.31320721150073
                0.5456    0.76037674173753
 p    1 1.00
                0.1517                   1
 d    1 1.00
                  0.55                   1

14 0
 s    3 1.00
                 13.01   0.033498726389998
                 1.962    0.23480080117413
                0.4446     0.8136829578829
 s    1 1.00
                 0.122                   1
 p    1 1.00
                 0.727                   1

15 0
 s    3 1.00
                 13.01   0.033498726389998
                 1.962    0.23480080117413
                0.4446     0.8136829578829
 s    1 1.00
                 0.122                   1
 p    1 1.00
                 0.727                   1

16 0
 s    8 1.00
                  6665  0.00069158396281299
                  1000  0.0053257961529341
                   228   0.027060721042034
                 64.71    0.10165684614077
                 21.06     0.2745748236174
                 7.495    0.44829431892377
                 2.797    0.28490261071525
                0.5215   0.015194859206082
 s    8 1.00
                  6665  -0.00029326965268655
                  1000  -0.0023180354739745
                   228  -0.011499786038565
                 64.71  -0.046826727009787
                 21.06   -0.12846616875047
                 7.495   -0.30126627246289
                 2.797   -0.25563070233011
                0.5215      1.093793361012
 s    1 1.00
                0.1596                   1
 p    3 1.00
                 9.439   0.056979251590039
                 2.002    0.31320721150073
                0.5456    0.76037674173753
 p    1 1.00
                0.1517                   1
 d    1 1.00
                  0.55                   1

17 0
 s    3 1.00
                 13.01   0.033498726389998
                 1.962    0.23480080117413
                0.4446     0.8136829578829
 s    1 1.00
                 0.122                   1
 p    1 1.00
                 0.727                   1

18 0
 s    3 1.00
                 13.01   0.033498726389998
                 1.962    0.23480080117413
                0.4446     0.8136829578829
 s    1 1.00
                 0.122                   1
 p    1 1.00
                 0.727                   1

19 0
 s    8 1.00
                  6665  0.00069158396281299
                  1000  0.0053257961529341
                   228   0.027060721042034
                 64.71    0.10165684614077
                 21.06     0.2745748236174
                 7.495    0.44829431892377
                 2.797    0.28490261071525
                0.5215   0.015194859206082
 s    8 1.00
                  6665  -0.00029326965268655
                  1000  -0.0023180354739745
                   228  -0.011499786038565
                 64.71  -0.046826727009787
                 21.06   -0.12846616875047
                 7.495   -0.30126627246289
                 2.797   -0.25563070233011
                0.5215      1.093793361012
 s    1 1.00
                0.1596                   1
 p    3 1.00
                 9.439   0.056979251590039
                 2.002    0.31320721150073
                0.5456    0.76037674173753
 p    1 1.00
                0.1517                   1
 d    1 1.00
                  0.55                   1

20 0
 s    3 1.00
                 13.01   0.033498726389998
                 1.962    0.23480080117413
                0.4446     0.8136829578829
 s    1 1.00
                 0.122                   1
 p    1 1.00
                 0.727                   1

21 0
 s    8 1.00
                  6665  0.00069158396281299
                  1000  0.0053257961529341
                   228   0.027060721042034
                 64.71    0.10165684614077
                 21.06     0.2745748236174
                 7.495    0.44829431892377
                 2.797    0.28490261071525
                0.5215   0.015194859206082
 s    8 1.00
                  6665  -0.00029326965268655
                  1000  -0.0023180354739745
                   228  -0.011499786038565
                 64.71  -0.046826727009787
                 21.06   -0.12846616875047
                 7.495   -0.30126627246289
                 2.797   -0.25563070233011
                0.5215      1.093793361012
 s    1 1.00
                0.1596                   1
 p    3 1.00
                 9.439   0.056979251590039
                 2.002    0.31320721150073
                0.5456    0.76037674173753
 p    1 1.00
                0.1517                   1
 d    1 1.00
                  0.55                   1

22 0
 s    3 1.00
                 13.01   0.033498726389998
                 1.962    0.23480080117413
                0.4446     0.8136829578829
 s    1 1.00
                 0.122                   1
 p    1 1.00
                 0.727                   1

23 0
 s    3 1.00
                 13.01   0.033498726389998
                 1.962    0.23480080117413
                0.4446     0.8136829578829
 s    1 1.00
                 0.122                   1
 p    1 1.00
                 0.727                   1

24 0
 s    3 1.00
                 13.01   0.033498726389998
                 1.962    0.23480080117413
                0.4446     0.8136829578829
 s    1 1.00
                 0.122                   1
 p    1 1.00
                 0.727                   1

25 0
 s    8 1.00
                  6665  0.00069158396281299
                  1000  0.0053257961529341
                   228   0.027060721042034
                 64.71    0.10165684614077
                 21.06     0.2745748236174
                 7.495    0.44829431892377
                 2.797    0.28490261071525
                0.5215   0.015194859206082
 s    8 1.00
                  6665  -0.00029326965268655
                  1000  -0.0023180354739745
                   228  -0.011499786038565
                 64.71  -0.046826727009787
                 21.06   -0.12846616875047
                 7.495   -0.30126627246289
                 2.797   -0.25563070233011
                0.5215      1.093793361012
 s    1 1.00
                0.1596                   1
 p    3 1.00
                 9.439   0.056979251590039
                 2.002    0.31320721150073
                0.5456    0.76037674173753
 p    1 1.00
                0.1517                   1
 d    1 1.00
                  0.55                   1

26 0
 s    3 1.00
                 13.01   0.033498726389998
                 1.962    0.23480080117413
                0.4446     0.8136829578829
 s    1 1.00
                 0.122                   1
 p    1 1.00
                 0.727                   1

27 0
 s    3 1.00
                 13.01   0.033498726389998
                 1.962    0.23480080117413
                0.4446     0.8136829578829
 s    1 1.00
                 0.122                   1
 p    1 1.00
                 0.727                   1

28 0
 s    8 1.00
                  6665  0.00069158396281299
                  1000  0.0053257961529341
                   228   0.027060721042034
                 64.71    0.10165684614077
                 21.06     0.2745748236174
                 7.495    0.44829431892377
                 2.797    0.28490261071525
                0.5215   0.015194859206082
 s    8 1.00
                  6665  -0.00029326965268655
                  1000  -0.0023180354739745
                   228  -0.011499786038565
                 64.71  -0.046826727009787
                 21.06   -0.12846616875047
                 7.495   -0.30126627246289
                 2.797   -0.25563070233011
                0.5215      1.093793361012
 s    1 1.00
                0.1596                   1
 p    3 1.00
                 9.439   0.056979251590039
                 2.002    0.31320721150073
                0.5456    0.76037674173753
 p    1 1.00
                0.1517                   1
 d    1 1.00
                  0.55                   1

29 0
 s    3 1.00
                 13.01   0.033498726389998
                 1.962    0.23480080117413
                0.4446     0.8136829578829
 s    1 1.00
                 0.122                   1
 p    1 1.00
                 0.727                   1

30 0
 s    3 1.00
                 13.01   0.033498726389998
                 1.962    0.23480080117413
                0.4446     0.8136829578829
 s    1 1.00
                 0.122                   1
 p    1 1.00
                 0.727                   1

31 0
 s    8 1.00
                  6665  0.00069158396281299
                  1000  0.0053257961529341
                   228   0.027060721042034
                 64.71    0.10165684614077
                 21.06     0.2745748236174
                 7.495    0.44829431892377
                 2.797    0.28490261071525
                0.5215   0.015194859206082
 s    8 1.00
                  6665  -0.00029326965268655
                  1000  -0.0023180354739745
                   228  -0.011499786038565
                 64.71  -0.046826727009787
                 21.06   -0.12846616875047
                 7.495   -0.30126627246289
                 2.797   -0.25563070233011
                0.5215      1.093793361012
 s    1 1.00
                0.1596                   1
 p    3 1.00
                 9.439   0.056979251590039
                 2.002    0.31320721150073
                0.5456    0.76037674173753
 p    1 1.00
                0.1517                   1
 d    1 1.00
                  0.55                   1

32 0
 s    3 1.00
                 13.01   0.033498726389998
                 1.962    0.23480080117413
                0.4446     0.8136829578829
 s    1 1.00
                 0.122                   1
 p    1 1.00
                 0.727                   1

33 0
 s    3 1.00
                 13.01   0.033498726389998
                 1.962    0.23480080117413
                0.4446     0.8136829578829
 s    1 1.00
                 0.122                   1
 p    1 1.00
                 0.727                   1

34 0
 s    3 1.00
                 13.01   0.033498726389998
                 1.962    0.23480080117413
                0.4446     0.8136829578829
 s    1 1.00
                 0.122                   1
 p    1 1.00
                 0.727                   1

35 0
 s    3 1.00
                 13.01   0.033498726389998
                 1.962    0.23480080117413
                0.4446     0.8136829578829
 s    1 1.00
                 0.122                   1
 p    1 1.00
                 0.727                   1

36 0
 s    3 1.00
                 13.01   0.033498726389998
                 1.962    0.23480080117413
                0.4446     0.8136829578829
 s    1 1.00
                 0.122                   1
 p    1 1.00
                 0.727                   1

37 0
 s    3 1.00
                 13.01   0.033498726389998
                 1.962    0.23480080117413
                0.4446     0.8136829578829
 s    1 1.00
                 0.122                   1
 p    1 1.00
                 0.727                   1

[5d]
[7f]
[9g]

[MO]
 Sym= A
 Ene=               0
 Spin= Alpha
 Occup=    1.00000
   1    -2.874550222748e-05
   2    -1.6002805546014e-05
   3    6.2552479585653e-05
   4    -5.8812637924517e-08
   5    2.3724795835903e-06
   6    -3.3001959893666e-07
   7    3.8532413044634e-07
   8    -1.4142510645362e-05
   9    -4.6789664795412e-05
  10    8.7667497273826e-06
  11    1.3558274585409e-08
  12    -6.4164381964444e-07
  13    5.6925333938834e-07
  14    3.0915853084095e-08
  15    -7.6364595438505e-06
  16    -9.2556216350589e-05
  17    -4.1038160753246e-08
  18    8.8550276987092e-07
  19    -2.7480537337452e-05
  20    -3.5635266841138e-06
  21    3.7927574339597e-05
  22    1.3328951959195e-07
  23    -4.5751233824893e-06
  24    1.3625898663178e-06
  25       1.0013591174882
  26    0.0019458154431226
  27    -0.006764657305022
  28    -4.5220467301891e-06
  29    7.6321972682889e-06
  30    -0.0016592812924425
  31    -2.8321508525321e-07
  32    -1.1655582104187e-06
  33     0.001811391749178
  34    0.00012982395950496
  35    -3.0318183502954e-06
  36    1.3210349240581e-06
  37    6.7678351651975e-05
  38    -0.00017627572207668
  39    0.00027176599431753
  40    0.00036768538864777
  41    0.0013957848529565
  42    1.5122853198142e-05
  43    -1.0004906838827e-05
  44    -1.4022453926483e-05
  45    8.2272721292618e-05
  46    -6.3214783706102e-05
  47    0.0035333613723852
  48    -0.00053970924609647
  49    -8.5900844040296e-06
  50    2.4810382118275e-06
  51    2.8532300054851e-05
  52    -0.00010680503956006
  53    -8.5074156469996e-05
  54    -0.00016612120950962
  55    0.0013668914677976
  56    7.8199484632274e-05
  57    -7.1886914694365e-06
  58    -3.6495105271469e-05
  59    -0.00042311785456388
  60    0.00047595443659394
  61    -0.00092090661186484
  62    -0.00011793032618326
  63    0.00015025088171886
  64    -0.00014283930273881
  65    5.5222396990228e-05
  66    -0.00013056980781154
  67    -4.0549929628404e-05
  68    -9.8580835110043e-05
  69    0.0005110153798844
  70    -6.1230889849003e-05
  71    3.9781555704855e-05
  72    -6.261096904134e-05
  73    0.00099763620877135
  74    -0.00076922707103398
  75    -0.00063375707637735
  76    -0.00014140638514323
  77    -0.000120684077582
  78    8.9630763933408e-05
  79    5.9177124895016e-05
  80    -0.00015226591507324
  81    -6.5310263467276e-05
  82    0.00020617284697192
  83    6.5862152505142e-05
  84    -4.8357677743908e-05
  85    4.9177597698569e-05
  86    2.5001380584849e-05
  87    4.848607237086e-05
  88    -0.00060321530370526
  89    -1.6666774568313e-05
  90    -1.6777794689271e-05
  91    1.272533196122e-05
  92    0.00025485388759723
  93    0.0006219522874345
  94    -1.8852046994113e-05
  95    1.7981350616194e-05
  96    1.1078212201594e-05
  97    7.0638434762577e-06
  98    -2.0780146892841e-05
  99    -4.5259949441308e-05
 100    -3.6673809184186e-05
 101    -0.00015729922298601
 102    9.6194667686858e-06
 103    -9.6910544076592e-06
 104    7.4096838258958e-05
 105    -1.7569513195747e-05
 106    -0.00020002209528316
 107    -6.4504469088704e-05
 108    1.157108125954e-05
 109    7.4435578781345e-05
 110    7.7366070593242e-05
 111    -5.7465664213425e-05
 112    -4.5706226155626e-05
 113    1.8248531084607e-05
 114    6.9408719723506e-05
 115    -4.9927471957345e-05
 116    -0.00010242870033295
 117    0.0008383663867491
 118    -2.5258669311391e-05
 119    -1.1744873101322e-05
 120    3.3938404510259e-05
 121    0.00029871019703875
 122    2.8084995009193e-05
 123    -0.00013246688549878
 124    -6.678903942236e-06
 125    1.2347074875478e-05
 126    1.5857388105068e-05
 127    -3.2327140640969e-05
 128    4.9711572614952e-05
 129    -1.8981243146883e-05
 130    -0.00032023628844629
 131    7.4335045106618e-06
 132    5.8728281578969e-06
 133    2.9132432085713e-05
 134    2.5841094961398e-05
 135    -0.00011874195160337
 136    -1.3444328092332e-05
 137    -2.3913351019603e-05
 138    -2.6514060579085e-05
 139    -2.1124265792128e-05
 140    -3.7510416789564e-05
 141    0.00028660274288106
 142    9.1896693749946e-06
 143    -1.6945266693265e-06
 144    -7.5190403692165e-06
 145    -0.00022851602711146
 146    5.162575919481e-05
 147    6.3581895602692e-05
 148    -2.3945351860607e-06
 149    3.131798547187e-06
 150    -3.5212796251578e-06
 151    1.1681902499532e-05
 152    -4.8687214409035e-06
 153    -9.7688614931391e-05
 154    -0.00011546025241306
 155    -2.5690840008861e-05
 156    3.0029252740531e-05
 157    2.0653188349803e-05
 158    -2.4488161399829e-05
 159    -8.8822010551519e-05
 160    -5.9443913638194e-05
 161    -7.1184483831132e-06
 162    6.0454338053437e-06
 163    5.5620011595363e-06
 164    -2.7286884694152e-06
 165    -0.00023300623391537
 166    -2.0515959505044e-05
 167    2.2434178866989e-05
 168    9.2155131513157e-06
 169    0.00023725755656704
 170    -0.00021047478501636
 171    -0.00012942546367469
 172    -3.1946145438296e-06
 173      9.4839553932e-06
 174    -1.3706565958213e-05
 175    3.3299458537861e-06
 176    -1.8506166416368e-05
 177    -1.5684188149496e-05
 178    8.3246195255743e-05
 179    -6.9851651758488e-07
 180    2.0451498878906e-06
 181    -5.0553485464254e-06
 182    1.3196481697363e-05
 183    2.4652971104847e-05
 184    -6.6690954558676e-05
 185    -9.6635326768484e-06
 186    6.1174950486847e-06
 187    9.2709001876876e-06
 188    0.00012355727201617
 189    -0.00010057303696749
 190    -8.2078348247243e-05
 191    1.4824362129287e-06
 192    2.2145599604166e-06
 193    -7.9920102163496e-06
 194    -3.2450685411187e-06
 195    -4.4898846186436e-06
 196    -1.3591613991443e-05
 197    -1.8243412986623e-05
 198    5.6926442283004e-06
 199    2.0118337477679e-06
 200    -3.6349431987477e-06
 201    -1.6959916070216e-05
 202    1.7400800455303e-06
 203    -1.3074758256324e-05
 204    1.0174387668848e-05
 205    1.1688053598165e-05
 206    1.3874211301888e-05
 207    6.9969414723105e-05
 208    -1.6514579571974e-05
 209    3.6993693237792e-06
 210    1.5863836069137e-05
 211    -1.8149232860022e-05
 212    -3.0007636715175e-05
 213    0.00025438839994638
 214    1.040659860273e-05
 215    -1.2752422189822e-06
 216    -1.2324134852093e-05
 217    0.0001986008499812
 218    -5.3447798210807e-05
 219    -7.9544288124108e-05
 220    -1.9960171737939e-06
 221    -1.7036362605776e-05
 222    5.5621435819546e-06
 223    9.731131557861e-06
 224    -2.0126304226235e-06
 225    2.6006801245611e-05
 226    5.4415163848923e-05
 227    -1.2302493638293e-05
 228    -1.8420371164457e-06
 229    -9.2155512592475e-07
 230    9.791920756288e-06
 231    5.4571937443836e-05
 232    -4.0491108137081e-06
 233    6.3197391394562e-06
 234    1.2004273736604e-05
 235    -1.0982313758497e-06
 236    -4.9077156105254e-06
 237    -8.1608829427816e-05
 238    6.162647731647e-06
 239    1.5460556148503e-06
 240    -7.9337008389274e-06
 241    3.6757673315301e-05
 242    -6.2405900709214e-05
 243    1.5788684786097e-05
 244    1.9782227092462e-06
 245    1.8724323560879e-06
 246    -2.1455966926012e-06
 247    3.961197224606e-08
 248    1.2893020904849e-06
 249    -1.9894800629356e-05
 250    1.2330515742197e-05
 251    -4.4557789632825e-06
 252    -8.9404718078906e-07
 253    -3.1020117644006e-07
 254    -2.0310961844511e-05
 255    5.4440839008274e-05
 256    -1.7390115924373e-07
 257    4.1127991336999e-06
 258    -8.9458204206295e-07
 259    -1.1135141794428e-05
 260    -1.9840363667581e-05
 261    8.070161790624e-05
 262    -3.6416409899178e-06