[Molden Format]
made by pyscf v[2.0.1]
[Atoms] (AU)
O   1   8     0.00000000000000     0.00000000000000     9.05202446090250
H   2   1     0.00000000000000     0.00000000000000     7.22862263900153
H   3   1    -0.05031916615174     1.78353065140343     9.42789615736916
O   4   8     0.00000000000000     0.00000000000000     2.31533471513237
C   5   6     0.00000000000000     0.00000000000000     0.00000000000000
C   6   6     2.01118073026938    -1.40227222164369    -1.50774939176400
C   7   6    -2.01249334291722     1.41331050329955    -1.50315905028694
H   8   1     3.32037363730244    -2.26721897153159    -0.13599698591495
C   9   6     3.45899267434009     0.28739631745591    -3.37437943254505
H   10   1     1.07662969841332    -2.94725144642667    -2.56541439481080
H   11   1    -2.67503415753480     0.18421555839588    -3.06194479365997
H   12   1    -1.07974048864772     3.03851734677796    -2.43674295017013
C   13   6    -4.21607110578555     2.32938802552922     0.11994162256091
H   14   1     4.24440173074564     1.93368664142019    -2.34976285512790
H   15   1     2.15020713235517     1.04714335134846    -4.81494497423699
C   16   6     5.60746363007797    -1.12419643481196    -4.70268606082550
H   17   1    -3.46838323670267     3.50951302338067     1.66946842715333
H   18   1    -5.11873485366228     0.68575958301209     1.04047743976495
C   19   6    -6.18314754751344     3.80909592987882    -1.39656589068747
H   20   1     6.93011263717176    -1.87550812453645    -3.26656317360070
C   21   6     7.06356622236532     0.52877932406334    -6.57829775293605
H   22   1     4.82318879258361    -2.78573437948532    -5.70504560381835
H   23   1    -6.91582688743803     2.61304780074712    -2.95074552451969
H   24   1    -5.26532430573853     5.45420349051338    -2.31005832200284
C   25   6    -8.39941882261433     4.73263980500213     0.21800571437956
H   26   1     7.83338371486801     2.19084139882824    -5.57093109900697
H   27   1     5.73544244039420     1.27376866537418    -8.01071492370229
C   28   6     9.21124858443101    -0.89699110072176    -7.88926949186242
H   29   1    -7.66272760055236     5.92277078003992     1.77035591474408
H   30   1    -9.31497248082589     3.08753015622020     1.12614408368786
C   31   6   -10.35481709231879     6.21833079391143    -1.30905206253246
H   32   1    10.58815905329501    -1.61074586756696    -6.49512691622620
H   33   1    10.23506248045667     0.32468009384095    -9.23072870921204
H   34   1     8.47665842847139    -2.53598436989925    -8.94921964622535
H   35   1    -9.48948872868064     7.90013588951020    -2.18823918416067
H   36   1   -11.93332513000955     6.86460487874102    -0.11255798845995
H   37   1   -11.15126291841033     5.04495968327630    -2.83849898862534
[GTO]
1 0
 s    8 1.00
                 11720  0.00070964594651845
                  1759  0.0054672722921914
                 400.8   0.027823118610189
                 113.7    0.10474773971146
                 37.03    0.28292084635691
                 13.27    0.44849523869833
                 5.025    0.27081688521277
                 1.013    0.01545029160744
 s    8 1.00
                 11720  -0.00031444341168873
                  1759  -0.0024821376810179
                 400.8  -0.012316355381583
                 113.7  -0.050538917343672
                 37.03   -0.13938490331632
                 13.27   -0.32507749481778
                 5.025   -0.22984830758785
                 1.013     1.0953793467883
 s    1 1.00
                0.3023                   1
 p    3 1.00
                  17.7   0.062679166281506
                 3.854    0.33353656587936
                 1.046    0.74123964163973
 p    1 1.00
                0.2753                   1
 d    1 1.00
                 1.185                   1

2 0
 s    3 1.00
                 13.01   0.033498726389998
                 1.962    0.23480080117413
                0.4446     0.8136829578829
 s    1 1.00
                 0.122                   1
 p    1 1.00
                 0.727                   1

3 0
 s    3 1.00
                 13.01   0.033498726389998
                 1.962    0.23480080117413
                0.4446     0.8136829578829
 s    1 1.00
                 0.122                   1
 p    1 1.00
                 0.727                   1

4 0
 s    8 1.00
                 11720  0.00070964594651845
                  1759  0.0054672722921914
                 400.8   0.027823118610189
                 113.7    0.10474773971146
                 37.03    0.28292084635691
                 13.27    0.44849523869833
                 5.025    0.27081688521277
                 1.013    0.01545029160744
 s    8 1.00
                 11720  -0.00031444341168873
                  1759  -0.0024821376810179
                 400.8  -0.012316355381583
                 113.7  -0.050538917343672
                 37.03   -0.13938490331632
                 13.27   -0.32507749481778
                 5.025   -0.22984830758785
                 1.013     1.0953793467883
 s    1 1.00
                0.3023                   1
 p    3 1.00
                  17.7   0.062679166281506
                 3.854    0.33353656587936
                 1.046    0.74123964163973
 p    1 1.00
                0.2753                   1
 d    1 1.00
                 1.185                   1

5 0
 s    8 1.00
                  6665  0.00069158396281299
                  1000  0.0053257961529341
                   228   0.027060721042034
                 64.71    0.10165684614077
                 21.06     0.2745748236174
                 7.495    0.44829431892377
                 2.797    0.28490261071525
                0.5215   0.015194859206082
 s    8 1.00
                  6665  -0.00029326965268655
                  1000  -0.0023180354739745
                   228  -0.011499786038565
                 64.71  -0.046826727009787
                 21.06   -0.12846616875047
                 7.495   -0.30126627246289
                 2.797   -0.25563070233011
                0.5215      1.093793361012
 s    1 1.00
                0.1596                   1
 p    3 1.00
                 9.439   0.056979251590039
                 2.002    0.31320721150073
                0.5456    0.76037674173753
 p    1 1.00
                0.1517                   1
 d    1 1.00
                  0.55                   1

6 0
 s    8 1.00
                  6665  0.00069158396281299
                  1000  0.0053257961529341
                   228   0.027060721042034
                 64.71    0.10165684614077
                 21.06     0.2745748236174
                 7.495    0.44829431892377
                 2.797    0.28490261071525
                0.5215   0.015194859206082
 s    8 1.00
                  6665  -0.00029326965268655
                  1000  -0.0023180354739745
                   228  -0.011499786038565
                 64.71  -0.046826727009787
                 21.06   -0.12846616875047
                 7.495   -0.30126627246289
                 2.797   -0.25563070233011
                0.5215      1.093793361012
 s    1 1.00
                0.1596                   1
 p    3 1.00
                 9.439   0.056979251590039
                 2.002    0.31320721150073
                0.5456    0.76037674173753
 p    1 1.00
                0.1517                   1
 d    1 1.00
                  0.55                   1

7 0
 s    8 1.00
                  6665  0.00069158396281299
                  1000  0.0053257961529341
                   228   0.027060721042034
                 64.71    0.10165684614077
                 21.06     0.2745748236174
                 7.495    0.44829431892377
                 2.797    0.28490261071525
                0.5215   0.015194859206082
 s    8 1.00
                  6665  -0.00029326965268655
                  1000  -0.0023180354739745
                   228  -0.011499786038565
                 64.71  -0.046826727009787
                 21.06   -0.12846616875047
                 7.495   -0.30126627246289
                 2.797   -0.25563070233011
                0.5215      1.093793361012
 s    1 1.00
                0.1596                   1
 p    3 1.00
                 9.439   0.056979251590039
                 2.002    0.31320721150073
                0.5456    0.76037674173753
 p    1 1.00
                0.1517                   1
 d    1 1.00
                  0.55                   1

8 0
 s    3 1.00
                 13.01   0.033498726389998
                 1.962    0.23480080117413
                0.4446     0.8136829578829
 s    1 1.00
                 0.122                   1
 p    1 1.00
                 0.727                   1

9 0
 s    8 1.00
                  6665  0.00069158396281299
                  1000  0.0053257961529341
                   228   0.027060721042034
                 64.71    0.10165684614077
                 21.06     0.2745748236174
                 7.495    0.44829431892377
                 2.797    0.28490261071525
                0.5215   0.015194859206082
 s    8 1.00
                  6665  -0.00029326965268655
                  1000  -0.0023180354739745
                   228  -0.011499786038565
                 64.71  -0.046826727009787
                 21.06   -0.12846616875047
                 7.495   -0.30126627246289
                 2.797   -0.25563070233011
                0.5215      1.093793361012
 s    1 1.00
                0.1596                   1
 p    3 1.00
                 9.439   0.056979251590039
                 2.002    0.31320721150073
                0.5456    0.76037674173753
 p    1 1.00
                0.1517                   1
 d    1 1.00
                  0.55                   1

10 0
 s    3 1.00
                 13.01   0.033498726389998
                 1.962    0.23480080117413
                0.4446     0.8136829578829
 s    1 1.00
                 0.122                   1
 p    1 1.00
                 0.727                   1

11 0
 s    3 1.00
                 13.01   0.033498726389998
                 1.962    0.23480080117413
                0.4446     0.8136829578829
 s    1 1.00
                 0.122                   1
 p    1 1.00
                 0.727                   1

12 0
 s    3 1.00
                 13.01   0.033498726389998
                 1.962    0.23480080117413
                0.4446     0.8136829578829
 s    1 1.00
                 0.122                   1
 p    1 1.00
                 0.727                   1

13 0
 s    8 1.00
                  6665  0.00069158396281299
                  1000  0.0053257961529341
                   228   0.027060721042034
                 64.71    0.10165684614077
                 21.06     0.2745748236174
                 7.495    0.44829431892377
                 2.797    0.28490261071525
                0.5215   0.015194859206082
 s    8 1.00
                  6665  -0.00029326965268655
                  1000  -0.0023180354739745
                   228  -0.011499786038565
                 64.71  -0.046826727009787
                 21.06   -0.12846616875047
                 7.495   -0.30126627246289
                 2.797   -0.25563070233011
                0.5215      1.093793361012
 s    1 1.00
                0.1596                   1
 p    3 1.00
                 9.439   0.056979251590039
                 2.002    0.31320721150073
                0.5456    0.76037674173753
 p    1 1.00
                0.1517                   1
 d    1 1.00
                  0.55                   1

14 0
 s    3 1.00
                 13.01   0.033498726389998
                 1.962    0.23480080117413
                0.4446     0.8136829578829
 s    1 1.00
                 0.122                   1
 p    1 1.00
                 0.727                   1

15 0
 s    3 1.00
                 13.01   0.033498726389998
                 1.962    0.23480080117413
                0.4446     0.8136829578829
 s    1 1.00
                 0.122                   1
 p    1 1.00
                 0.727                   1

16 0
 s    8 1.00
                  6665  0.00069158396281299
                  1000  0.0053257961529341
                   228   0.027060721042034
                 64.71    0.10165684614077
                 21.06     0.2745748236174
                 7.495    0.44829431892377
                 2.797    0.28490261071525
                0.5215   0.015194859206082
 s    8 1.00
                  6665  -0.00029326965268655
                  1000  -0.0023180354739745
                   228  -0.011499786038565
                 64.71  -0.046826727009787
                 21.06   -0.12846616875047
                 7.495   -0.30126627246289
                 2.797   -0.25563070233011
                0.5215      1.093793361012
 s    1 1.00
                0.1596                   1
 p    3 1.00
                 9.439   0.056979251590039
                 2.002    0.31320721150073
                0.5456    0.76037674173753
 p    1 1.00
                0.1517                   1
 d    1 1.00
                  0.55                   1

17 0
 s    3 1.00
                 13.01   0.033498726389998
                 1.962    0.23480080117413
                0.4446     0.8136829578829
 s    1 1.00
                 0.122                   1
 p    1 1.00
                 0.727                   1

18 0
 s    3 1.00
                 13.01   0.033498726389998
                 1.962    0.23480080117413
                0.4446     0.8136829578829
 s    1 1.00
                 0.122                   1
 p    1 1.00
                 0.727                   1

19 0
 s    8 1.00
                  6665  0.00069158396281299
                  1000  0.0053257961529341
                   228   0.027060721042034
                 64.71    0.10165684614077
                 21.06     0.2745748236174
                 7.495    0.44829431892377
                 2.797    0.28490261071525
                0.5215   0.015194859206082
 s    8 1.00
                  6665  -0.00029326965268655
                  1000  -0.0023180354739745
                   228  -0.011499786038565
                 64.71  -0.046826727009787
                 21.06   -0.12846616875047
                 7.495   -0.30126627246289
                 2.797   -0.25563070233011
                0.5215      1.093793361012
 s    1 1.00
                0.1596                   1
 p    3 1.00
                 9.439   0.056979251590039
                 2.002    0.31320721150073
                0.5456    0.76037674173753
 p    1 1.00
                0.1517                   1
 d    1 1.00
                  0.55                   1

20 0
 s    3 1.00
                 13.01   0.033498726389998
                 1.962    0.23480080117413
                0.4446     0.8136829578829
 s    1 1.00
                 0.122                   1
 p    1 1.00
                 0.727                   1

21 0
 s    8 1.00
                  6665  0.00069158396281299
                  1000  0.0053257961529341
                   228   0.027060721042034
                 64.71    0.10165684614077
                 21.06     0.2745748236174
                 7.495    0.44829431892377
                 2.797    0.28490261071525
                0.5215   0.015194859206082
 s    8 1.00
                  6665  -0.00029326965268655
                  1000  -0.0023180354739745
                   228  -0.011499786038565
                 64.71  -0.046826727009787
                 21.06   -0.12846616875047
                 7.495   -0.30126627246289
                 2.797   -0.25563070233011
                0.5215      1.093793361012
 s    1 1.00
                0.1596                   1
 p    3 1.00
                 9.439   0.056979251590039
                 2.002    0.31320721150073
                0.5456    0.76037674173753
 p    1 1.00
                0.1517                   1
 d    1 1.00
                  0.55                   1

22 0
 s    3 1.00
                 13.01   0.033498726389998
                 1.962    0.23480080117413
                0.4446     0.8136829578829
 s    1 1.00
                 0.122                   1
 p    1 1.00
                 0.727                   1

23 0
 s    3 1.00
                 13.01   0.033498726389998
                 1.962    0.23480080117413
                0.4446     0.8136829578829
 s    1 1.00
                 0.122                   1
 p    1 1.00
                 0.727                   1

24 0
 s    3 1.00
                 13.01   0.033498726389998
                 1.962    0.23480080117413
                0.4446     0.8136829578829
 s    1 1.00
                 0.122                   1
 p    1 1.00
                 0.727                   1

25 0
 s    8 1.00
                  6665  0.00069158396281299
                  1000  0.0053257961529341
                   228   0.027060721042034
                 64.71    0.10165684614077
                 21.06     0.2745748236174
                 7.495    0.44829431892377
                 2.797    0.28490261071525
                0.5215   0.015194859206082
 s    8 1.00
                  6665  -0.00029326965268655
                  1000  -0.0023180354739745
                   228  -0.011499786038565
                 64.71  -0.046826727009787
                 21.06   -0.12846616875047
                 7.495   -0.30126627246289
                 2.797   -0.25563070233011
                0.5215      1.093793361012
 s    1 1.00
                0.1596                   1
 p    3 1.00
                 9.439   0.056979251590039
                 2.002    0.31320721150073
                0.5456    0.76037674173753
 p    1 1.00
                0.1517                   1
 d    1 1.00
                  0.55                   1

26 0
 s    3 1.00
                 13.01   0.033498726389998
                 1.962    0.23480080117413
                0.4446     0.8136829578829
 s    1 1.00
                 0.122                   1
 p    1 1.00
                 0.727                   1

27 0
 s    3 1.00
                 13.01   0.033498726389998
                 1.962    0.23480080117413
                0.4446     0.8136829578829
 s    1 1.00
                 0.122                   1
 p    1 1.00
                 0.727                   1

28 0
 s    8 1.00
                  6665  0.00069158396281299
                  1000  0.0053257961529341
                   228   0.027060721042034
                 64.71    0.10165684614077
                 21.06     0.2745748236174
                 7.495    0.44829431892377
                 2.797    0.28490261071525
                0.5215   0.015194859206082
 s    8 1.00
                  6665  -0.00029326965268655
                  1000  -0.0023180354739745
                   228  -0.011499786038565
                 64.71  -0.046826727009787
                 21.06   -0.12846616875047
                 7.495   -0.30126627246289
                 2.797   -0.25563070233011
                0.5215      1.093793361012
 s    1 1.00
                0.1596                   1
 p    3 1.00
                 9.439   0.056979251590039
                 2.002    0.31320721150073
                0.5456    0.76037674173753
 p    1 1.00
                0.1517                   1
 d    1 1.00
                  0.55                   1

29 0
 s    3 1.00
                 13.01   0.033498726389998
                 1.962    0.23480080117413
                0.4446     0.8136829578829
 s    1 1.00
                 0.122                   1
 p    1 1.00
                 0.727                   1

30 0
 s    3 1.00
                 13.01   0.033498726389998
                 1.962    0.23480080117413
                0.4446     0.8136829578829
 s    1 1.00
                 0.122                   1
 p    1 1.00
                 0.727                   1

31 0
 s    8 1.00
                  6665  0.00069158396281299
                  1000  0.0053257961529341
                   228   0.027060721042034
                 64.71    0.10165684614077
                 21.06     0.2745748236174
                 7.495    0.44829431892377
                 2.797    0.28490261071525
                0.5215   0.015194859206082
 s    8 1.00
                  6665  -0.00029326965268655
                  1000  -0.0023180354739745
                   228  -0.011499786038565
                 64.71  -0.046826727009787
                 21.06   -0.12846616875047
                 7.495   -0.30126627246289
                 2.797   -0.25563070233011
                0.5215      1.093793361012
 s    1 1.00
                0.1596                   1
 p    3 1.00
                 9.439   0.056979251590039
                 2.002    0.31320721150073
                0.5456    0.76037674173753
 p    1 1.00
                0.1517                   1
 d    1 1.00
                  0.55                   1

32 0
 s    3 1.00
                 13.01   0.033498726389998
                 1.962    0.23480080117413
                0.4446     0.8136829578829
 s    1 1.00
                 0.122                   1
 p    1 1.00
                 0.727                   1

33 0
 s    3 1.00
                 13.01   0.033498726389998
                 1.962    0.23480080117413
                0.4446     0.8136829578829
 s    1 1.00
                 0.122                   1
 p    1 1.00
                 0.727                   1

34 0
 s    3 1.00
                 13.01   0.033498726389998
                 1.962    0.23480080117413
                0.4446     0.8136829578829
 s    1 1.00
                 0.122                   1
 p    1 1.00
                 0.727                   1

35 0
 s    3 1.00
                 13.01   0.033498726389998
                 1.962    0.23480080117413
                0.4446     0.8136829578829
 s    1 1.00
                 0.122                   1
 p    1 1.00
                 0.727                   1

36 0
 s    3 1.00
                 13.01   0.033498726389998
                 1.962    0.23480080117413
                0.4446     0.8136829578829
 s    1 1.00
                 0.122                   1
 p    1 1.00
                 0.727                   1

37 0
 s    3 1.00
                 13.01   0.033498726389998
                 1.962    0.23480080117413
                0.4446     0.8136829578829
 s    1 1.00
                 0.122                   1
 p    1 1.00
                 0.727                   1

[5d]
[7f]
[9g]

[MO]
 Sym= A
 Ene=               0
 Spin= Alpha
 Occup=    1.00000
   1    -6.6956110495515e-05
   2    -4.9373589372175e-05
   3    0.00013429297406746
   4    -4.9093085802175e-08
   5    5.8872084829953e-06
   6    1.2735932124284e-05
   7    5.358368591191e-07
   8    -2.6026430487877e-05
   9    -8.2511869074419e-05
  10    7.7854959205236e-06
  11    -5.269971816052e-08
  12    -2.1932803647508e-07
  13    3.7544426669188e-07
  14    6.0799719896849e-09
  15    -1.7391720741433e-05
  16    -0.00020846222751055
  17    -2.8491183687944e-07
  18    1.9895748286002e-06
  19    -4.1773176235679e-06
  20    -7.4629240885549e-06
  21    7.0189277287277e-05
  22    1.6525345335294e-07
  23    -4.026320019158e-06
  24    1.4630201020461e-06
  25       1.0013730883111
  26    0.0019761916847994
  27    -0.0068883579336782
  28    -4.9348188203158e-06
  29    9.7557662895815e-06
  30    -0.0016458300214672
  31    -2.54137013182e-07
  32    -2.2512408493034e-06
  33    0.0019043673663587
  34    0.00011611856287359
  35    -2.8855606269517e-06
  36    1.4537985741533e-06
  37    6.6946003708707e-05
  38    -0.0001742530108106
  39    0.00028345208804331
  40    0.00039292950649495
  41    0.0014885293865271
  42    1.5929436545673e-05
  43    -1.0055533609027e-05
  44    1.1721322318489e-05
  45    8.2455457062892e-05
  46    -6.5175509967123e-05
  47    0.0036275151694615
  48    -0.00051660058740027
  49    -8.3193064363009e-06
  50    2.5741222043699e-06
  51    2.9605106967774e-05
  52    -0.00010947294992694
  53    -8.4662155296131e-05
  54    -0.00016534622335568
  55    0.0013815627503065
  56    7.8530329504475e-05
  57    -7.0134321069712e-06
  58    -3.512903757656e-05
  59    -0.00042585115160632
  60    0.00048047161091315
  61    -0.00095647777984746
  62    -0.00011658936233578
  63    0.00014988914263603
  64    -0.00014314475604362
  65    5.4492675407219e-05
  66    -0.00012809777521498
  67    -3.9211320350816e-05
  68    -9.6193686911717e-05
  69    0.00051763271904696
  70    -6.2142221087026e-05
  71    4.0738439447262e-05
  72    -6.1923510741682e-05
  73    0.0010101653833929
  74    -0.0007770240372267
  75    -0.00065224590194462
  76    -0.00013991118397217
  77    -0.00012119819199639
  78    8.9750489278702e-05
  79    5.8519568015184e-05
  80    -0.00015042341094776
  81    -6.1280773473462e-05
  82    0.00021288485648614
  83    6.6601979304684e-05
  84    -4.8927253369386e-05
  85    4.7903786880091e-05
  86    2.5097289797029e-05
  87    4.859713098807e-05
  88    -0.0006175885956246
  89    -1.6463493360692e-05
  90    -1.6889498438171e-05
  91    1.2047112183239e-05
  92    0.00025918019501402
  93    0.00064025813680817
  94    -1.3571353982045e-05
  95    1.8644147334569e-05
  96    1.1379299826572e-05
  97    7.7111626791625e-06
  98    -1.9905979492495e-05
  99    -4.7258741241002e-05
 100    -3.9509802819977e-05
 101    -0.00016244879496484
 102    7.6043725578329e-06
 103    -1.0356676135525e-05
 104    7.612200888122e-05
 105    -1.8821256458174e-05
 106    -0.00020453835241573
 107    -6.4072378429229e-05
 108    9.3467574821691e-06
 109    7.5630869059721e-05
 110    7.784945481642e-05
 111    -6.3090823294878e-05
 112    -4.4695585388678e-05
 113    1.9468668167715e-05
 114    7.0675567092741e-05
 115    -4.8626113277527e-05
 116    -0.00010008672851201
 117    0.00084621861387082
 118    -2.3788521458298e-05
 119    -1.2813047064229e-05
 120    3.3735995083538e-05
 121    0.00028808798391372
 122    3.3271717672225e-05
 123    -0.00014854755843717
 124    -6.4958944117788e-06
 125    1.1244372413798e-05
 126    1.4971651230883e-05
 127    -3.2295725834897e-05
 128    5.0295848128108e-05
 129    -1.974424814822e-05
 130    -0.00033095302028084
 131    7.8572309668816e-06
 132    5.9826097110433e-06
 133    2.9477503335782e-05
 134    2.5755913985575e-05
 135    -0.00011756347159761
 136    -1.367396690895e-05
 137    -2.4785936559771e-05
 138    -2.7114573258266e-05
 139    -2.1736785734801e-05
 140    -3.8620899473494e-05
 141    0.00029959897667952
 142    9.0290428237398e-06
 143    -2.0327859620447e-06
 144    -7.3817371917458e-06
 145    -0.0002302790405668
 146    5.6956630352553e-05
 147    6.0492475774385e-05
 148    -2.5459507378536e-06
 149    3.2806043750224e-06
 150    -4.2268552742982e-06
 151    1.2214716609174e-05
 152    -4.7669258495819e-06
 153    -9.77077506766e-05
 154    -0.00010200373326653
 155    -2.6440169378125e-05
 156    2.8453534638636e-05
 157    1.9444981886317e-05
 158    -2.4531076373214e-05
 159    -8.6573202521944e-05
 160    -5.9069955347707e-05
 161    -7.2104798476916e-06
 162    6.569618594095e-06
 163    6.9746045261161e-06
 164    -3.0965538787422e-07
 165    -0.00025096847470244
 166    -2.1211146834904e-05
 167    2.2516820968849e-05
 168    9.0967434524465e-06
 169    0.0002333216698913
 170    -0.00020654733019038
 171    -0.00013583550188787
 172    -2.7995425343956e-06
 173    9.425257202077e-06
 174    -1.3567699455033e-05
 175    3.2170211861329e-06
 176    -1.8094198284736e-05
 177    -1.6029931627047e-05
 178    8.5474897745198e-05
 179    -1.0013255112929e-06
 180    1.814013024723e-06
 181    -4.8779338905723e-06
 182    1.3963870760225e-05
 183    2.5925944074994e-05
 184    -7.5271269242567e-05
 185    -9.5291411512566e-06
 186    6.4290880224324e-06
 187    9.0939346002547e-06
 188    0.00012682138519082
 189    -0.00010034641701905
 190    -8.6554823028395e-05
 191    1.439943588879e-06
 192    2.4507113417474e-06
 193    -7.9314585150505e-06
 194    -3.2115097257161e-06
 195    -4.8679897239446e-06
 196    -1.3226965189815e-05
 197    -1.8882217992159e-05
 198    5.7121058686639e-06
 199    1.979256280393e-06
 200    -3.3828133349673e-06
 201    -1.6076298323326e-05
 202    5.2410956215554e-07
 203    -1.3359322243709e-05
 204    1.0008282563202e-05
 205    1.1677726283096e-05
 206    1.4335657513815e-05
 207    6.9853853811527e-05
 208    -1.6367090289769e-05
 209    3.6339346913274e-06
 210    1.6080384028424e-05
 211    -1.8635352917306e-05
 212    -3.0686721569423e-05
 213    0.0002638074795944
 214    1.1151284786575e-05
 215    -1.4498961549716e-06
 216    -1.2328336452743e-05
 217    0.00019739478483526
 218    -5.239431537524e-05
 219    -8.1341961886321e-05
 220    -2.023594446059e-06
 221    -1.6927747357979e-05
 222    5.591162753155e-06
 223    9.8168225400675e-06
 224    -2.0999279294101e-06
 225    2.6922041229542e-05
 226    5.6091656798996e-05
 227    -1.2544741686261e-05
 228    -2.0147073283925e-06
 229    -9.0940281827477e-07
 230    1.0257809722374e-05
 231    5.4583453974672e-05
 232    -4.1468515101527e-06
 233    6.4575362607458e-06
 234    1.2148656939082e-05
 235    -1.0382500756837e-06
 236    -4.7933245409337e-06
 237    -8.2383742821229e-05
 238    6.0945831763831e-06
 239    1.6032888867361e-06
 240    -7.9424573608808e-06
 241    3.7576635227316e-05
 242    -6.3315762355163e-05
 243    1.6150172295325e-05
 244    2.040757224926e-06
 245    1.9400110192581e-06
 246    -2.1239013368601e-06
 247    2.577222414881e-08
 248    1.2930038973202e-06
 249    -1.9575034905721e-05
 250    9.8867895677037e-06
 251    -4.3223502393411e-06
 252    -7.5811289330842e-07
 253    -5.5884231018037e-08
 254    -2.0708148365231e-05
 255    5.4213659354507e-05
 256    6.1571983031899e-08
 257    3.9950502419844e-06
 258    -8.1150845025397e-07
 259    -1.0717413119555e-05
 260    -1.9188559067821e-05
 261    7.5026509585035e-05
 262    -3.8544748503069e-06