[Molden Format]
made by pyscf v[2.0.1]
[Atoms] (AU)
O   1   8     0.00000000000000     0.00000000000000     7.91818878616346
H   2   1     0.00000000000000     0.00000000000000     6.09478696426249
H   3   1    -0.05031916615174     1.78353065140343     8.29406048263013
O   4   8     0.00000000000000     0.00000000000000     2.31533471513237
C   5   6     0.00000000000000     0.00000000000000     0.00000000000000
C   6   6     2.01118073026938    -1.40227222164369    -1.50774939176400
C   7   6    -2.01249334291722     1.41331050329955    -1.50315905028694
H   8   1     3.32037363730244    -2.26721897153159    -0.13599698591495
C   9   6     3.45899267434009     0.28739631745591    -3.37437943254505
H   10   1     1.07662969841332    -2.94725144642667    -2.56541439481080
H   11   1    -2.67503415753480     0.18421555839588    -3.06194479365997
H   12   1    -1.07974048864772     3.03851734677796    -2.43674295017013
C   13   6    -4.21607110578555     2.32938802552922     0.11994162256091
H   14   1     4.24440173074564     1.93368664142019    -2.34976285512790
H   15   1     2.15020713235517     1.04714335134846    -4.81494497423699
C   16   6     5.60746363007797    -1.12419643481196    -4.70268606082550
H   17   1    -3.46838323670267     3.50951302338067     1.66946842715333
H   18   1    -5.11873485366228     0.68575958301209     1.04047743976495
C   19   6    -6.18314754751344     3.80909592987882    -1.39656589068747
H   20   1     6.93011263717176    -1.87550812453645    -3.26656317360070
C   21   6     7.06356622236532     0.52877932406334    -6.57829775293605
H   22   1     4.82318879258361    -2.78573437948532    -5.70504560381835
H   23   1    -6.91582688743803     2.61304780074712    -2.95074552451969
H   24   1    -5.26532430573853     5.45420349051338    -2.31005832200284
C   25   6    -8.39941882261433     4.73263980500213     0.21800571437956
H   26   1     7.83338371486801     2.19084139882824    -5.57093109900697
H   27   1     5.73544244039420     1.27376866537418    -8.01071492370229
C   28   6     9.21124858443101    -0.89699110072176    -7.88926949186242
H   29   1    -7.66272760055236     5.92277078003992     1.77035591474408
H   30   1    -9.31497248082589     3.08753015622020     1.12614408368786
C   31   6   -10.35481709231879     6.21833079391143    -1.30905206253246
H   32   1    10.58815905329501    -1.61074586756696    -6.49512691622620
H   33   1    10.23506248045667     0.32468009384095    -9.23072870921204
H   34   1     8.47665842847139    -2.53598436989925    -8.94921964622535
H   35   1    -9.48948872868064     7.90013588951020    -2.18823918416067
H   36   1   -11.93332513000955     6.86460487874102    -0.11255798845995
H   37   1   -11.15126291841033     5.04495968327630    -2.83849898862534
[GTO]
1 0
 s    8 1.00
                 11720  0.00070964594651845
                  1759  0.0054672722921914
                 400.8   0.027823118610189
                 113.7    0.10474773971146
                 37.03    0.28292084635691
                 13.27    0.44849523869833
                 5.025    0.27081688521277
                 1.013    0.01545029160744
 s    8 1.00
                 11720  -0.00031444341168873
                  1759  -0.0024821376810179
                 400.8  -0.012316355381583
                 113.7  -0.050538917343672
                 37.03   -0.13938490331632
                 13.27   -0.32507749481778
                 5.025   -0.22984830758785
                 1.013     1.0953793467883
 s    1 1.00
                0.3023                   1
 p    3 1.00
                  17.7   0.062679166281506
                 3.854    0.33353656587936
                 1.046    0.74123964163973
 p    1 1.00
                0.2753                   1
 d    1 1.00
                 1.185                   1

2 0
 s    3 1.00
                 13.01   0.033498726389998
                 1.962    0.23480080117413
                0.4446     0.8136829578829
 s    1 1.00
                 0.122                   1
 p    1 1.00
                 0.727                   1

3 0
 s    3 1.00
                 13.01   0.033498726389998
                 1.962    0.23480080117413
                0.4446     0.8136829578829
 s    1 1.00
                 0.122                   1
 p    1 1.00
                 0.727                   1

4 0
 s    8 1.00
                 11720  0.00070964594651845
                  1759  0.0054672722921914
                 400.8   0.027823118610189
                 113.7    0.10474773971146
                 37.03    0.28292084635691
                 13.27    0.44849523869833
                 5.025    0.27081688521277
                 1.013    0.01545029160744
 s    8 1.00
                 11720  -0.00031444341168873
                  1759  -0.0024821376810179
                 400.8  -0.012316355381583
                 113.7  -0.050538917343672
                 37.03   -0.13938490331632
                 13.27   -0.32507749481778
                 5.025   -0.22984830758785
                 1.013     1.0953793467883
 s    1 1.00
                0.3023                   1
 p    3 1.00
                  17.7   0.062679166281506
                 3.854    0.33353656587936
                 1.046    0.74123964163973
 p    1 1.00
                0.2753                   1
 d    1 1.00
                 1.185                   1

5 0
 s    8 1.00
                  6665  0.00069158396281299
                  1000  0.0053257961529341
                   228   0.027060721042034
                 64.71    0.10165684614077
                 21.06     0.2745748236174
                 7.495    0.44829431892377
                 2.797    0.28490261071525
                0.5215   0.015194859206082
 s    8 1.00
                  6665  -0.00029326965268655
                  1000  -0.0023180354739745
                   228  -0.011499786038565
                 64.71  -0.046826727009787
                 21.06   -0.12846616875047
                 7.495   -0.30126627246289
                 2.797   -0.25563070233011
                0.5215      1.093793361012
 s    1 1.00
                0.1596                   1
 p    3 1.00
                 9.439   0.056979251590039
                 2.002    0.31320721150073
                0.5456    0.76037674173753
 p    1 1.00
                0.1517                   1
 d    1 1.00
                  0.55                   1

6 0
 s    8 1.00
                  6665  0.00069158396281299
                  1000  0.0053257961529341
                   228   0.027060721042034
                 64.71    0.10165684614077
                 21.06     0.2745748236174
                 7.495    0.44829431892377
                 2.797    0.28490261071525
                0.5215   0.015194859206082
 s    8 1.00
                  6665  -0.00029326965268655
                  1000  -0.0023180354739745
                   228  -0.011499786038565
                 64.71  -0.046826727009787
                 21.06   -0.12846616875047
                 7.495   -0.30126627246289
                 2.797   -0.25563070233011
                0.5215      1.093793361012
 s    1 1.00
                0.1596                   1
 p    3 1.00
                 9.439   0.056979251590039
                 2.002    0.31320721150073
                0.5456    0.76037674173753
 p    1 1.00
                0.1517                   1
 d    1 1.00
                  0.55                   1

7 0
 s    8 1.00
                  6665  0.00069158396281299
                  1000  0.0053257961529341
                   228   0.027060721042034
                 64.71    0.10165684614077
                 21.06     0.2745748236174
                 7.495    0.44829431892377
                 2.797    0.28490261071525
                0.5215   0.015194859206082
 s    8 1.00
                  6665  -0.00029326965268655
                  1000  -0.0023180354739745
                   228  -0.011499786038565
                 64.71  -0.046826727009787
                 21.06   -0.12846616875047
                 7.495   -0.30126627246289
                 2.797   -0.25563070233011
                0.5215      1.093793361012
 s    1 1.00
                0.1596                   1
 p    3 1.00
                 9.439   0.056979251590039
                 2.002    0.31320721150073
                0.5456    0.76037674173753
 p    1 1.00
                0.1517                   1
 d    1 1.00
                  0.55                   1

8 0
 s    3 1.00
                 13.01   0.033498726389998
                 1.962    0.23480080117413
                0.4446     0.8136829578829
 s    1 1.00
                 0.122                   1
 p    1 1.00
                 0.727                   1

9 0
 s    8 1.00
                  6665  0.00069158396281299
                  1000  0.0053257961529341
                   228   0.027060721042034
                 64.71    0.10165684614077
                 21.06     0.2745748236174
                 7.495    0.44829431892377
                 2.797    0.28490261071525
                0.5215   0.015194859206082
 s    8 1.00
                  6665  -0.00029326965268655
                  1000  -0.0023180354739745
                   228  -0.011499786038565
                 64.71  -0.046826727009787
                 21.06   -0.12846616875047
                 7.495   -0.30126627246289
                 2.797   -0.25563070233011
                0.5215      1.093793361012
 s    1 1.00
                0.1596                   1
 p    3 1.00
                 9.439   0.056979251590039
                 2.002    0.31320721150073
                0.5456    0.76037674173753
 p    1 1.00
                0.1517                   1
 d    1 1.00
                  0.55                   1

10 0
 s    3 1.00
                 13.01   0.033498726389998
                 1.962    0.23480080117413
                0.4446     0.8136829578829
 s    1 1.00
                 0.122                   1
 p    1 1.00
                 0.727                   1

11 0
 s    3 1.00
                 13.01   0.033498726389998
                 1.962    0.23480080117413
                0.4446     0.8136829578829
 s    1 1.00
                 0.122                   1
 p    1 1.00
                 0.727                   1

12 0
 s    3 1.00
                 13.01   0.033498726389998
                 1.962    0.23480080117413
                0.4446     0.8136829578829
 s    1 1.00
                 0.122                   1
 p    1 1.00
                 0.727                   1

13 0
 s    8 1.00
                  6665  0.00069158396281299
                  1000  0.0053257961529341
                   228   0.027060721042034
                 64.71    0.10165684614077
                 21.06     0.2745748236174
                 7.495    0.44829431892377
                 2.797    0.28490261071525
                0.5215   0.015194859206082
 s    8 1.00
                  6665  -0.00029326965268655
                  1000  -0.0023180354739745
                   228  -0.011499786038565
                 64.71  -0.046826727009787
                 21.06   -0.12846616875047
                 7.495   -0.30126627246289
                 2.797   -0.25563070233011
                0.5215      1.093793361012
 s    1 1.00
                0.1596                   1
 p    3 1.00
                 9.439   0.056979251590039
                 2.002    0.31320721150073
                0.5456    0.76037674173753
 p    1 1.00
                0.1517                   1
 d    1 1.00
                  0.55                   1

14 0
 s    3 1.00
                 13.01   0.033498726389998
                 1.962    0.23480080117413
                0.4446     0.8136829578829
 s    1 1.00
                 0.122                   1
 p    1 1.00
                 0.727                   1

15 0
 s    3 1.00
                 13.01   0.033498726389998
                 1.962    0.23480080117413
                0.4446     0.8136829578829
 s    1 1.00
                 0.122                   1
 p    1 1.00
                 0.727                   1

16 0
 s    8 1.00
                  6665  0.00069158396281299
                  1000  0.0053257961529341
                   228   0.027060721042034
                 64.71    0.10165684614077
                 21.06     0.2745748236174
                 7.495    0.44829431892377
                 2.797    0.28490261071525
                0.5215   0.015194859206082
 s    8 1.00
                  6665  -0.00029326965268655
                  1000  -0.0023180354739745
                   228  -0.011499786038565
                 64.71  -0.046826727009787
                 21.06   -0.12846616875047
                 7.495   -0.30126627246289
                 2.797   -0.25563070233011
                0.5215      1.093793361012
 s    1 1.00
                0.1596                   1
 p    3 1.00
                 9.439   0.056979251590039
                 2.002    0.31320721150073
                0.5456    0.76037674173753
 p    1 1.00
                0.1517                   1
 d    1 1.00
                  0.55                   1

17 0
 s    3 1.00
                 13.01   0.033498726389998
                 1.962    0.23480080117413
                0.4446     0.8136829578829
 s    1 1.00
                 0.122                   1
 p    1 1.00
                 0.727                   1

18 0
 s    3 1.00
                 13.01   0.033498726389998
                 1.962    0.23480080117413
                0.4446     0.8136829578829
 s    1 1.00
                 0.122                   1
 p    1 1.00
                 0.727                   1

19 0
 s    8 1.00
                  6665  0.00069158396281299
                  1000  0.0053257961529341
                   228   0.027060721042034
                 64.71    0.10165684614077
                 21.06     0.2745748236174
                 7.495    0.44829431892377
                 2.797    0.28490261071525
                0.5215   0.015194859206082
 s    8 1.00
                  6665  -0.00029326965268655
                  1000  -0.0023180354739745
                   228  -0.011499786038565
                 64.71  -0.046826727009787
                 21.06   -0.12846616875047
                 7.495   -0.30126627246289
                 2.797   -0.25563070233011
                0.5215      1.093793361012
 s    1 1.00
                0.1596                   1
 p    3 1.00
                 9.439   0.056979251590039
                 2.002    0.31320721150073
                0.5456    0.76037674173753
 p    1 1.00
                0.1517                   1
 d    1 1.00
                  0.55                   1

20 0
 s    3 1.00
                 13.01   0.033498726389998
                 1.962    0.23480080117413
                0.4446     0.8136829578829
 s    1 1.00
                 0.122                   1
 p    1 1.00
                 0.727                   1

21 0
 s    8 1.00
                  6665  0.00069158396281299
                  1000  0.0053257961529341
                   228   0.027060721042034
                 64.71    0.10165684614077
                 21.06     0.2745748236174
                 7.495    0.44829431892377
                 2.797    0.28490261071525
                0.5215   0.015194859206082
 s    8 1.00
                  6665  -0.00029326965268655
                  1000  -0.0023180354739745
                   228  -0.011499786038565
                 64.71  -0.046826727009787
                 21.06   -0.12846616875047
                 7.495   -0.30126627246289
                 2.797   -0.25563070233011
                0.5215      1.093793361012
 s    1 1.00
                0.1596                   1
 p    3 1.00
                 9.439   0.056979251590039
                 2.002    0.31320721150073
                0.5456    0.76037674173753
 p    1 1.00
                0.1517                   1
 d    1 1.00
                  0.55                   1

22 0
 s    3 1.00
                 13.01   0.033498726389998
                 1.962    0.23480080117413
                0.4446     0.8136829578829
 s    1 1.00
                 0.122                   1
 p    1 1.00
                 0.727                   1

23 0
 s    3 1.00
                 13.01   0.033498726389998
                 1.962    0.23480080117413
                0.4446     0.8136829578829
 s    1 1.00
                 0.122                   1
 p    1 1.00
                 0.727                   1

24 0
 s    3 1.00
                 13.01   0.033498726389998
                 1.962    0.23480080117413
                0.4446     0.8136829578829
 s    1 1.00
                 0.122                   1
 p    1 1.00
                 0.727                   1

25 0
 s    8 1.00
                  6665  0.00069158396281299
                  1000  0.0053257961529341
                   228   0.027060721042034
                 64.71    0.10165684614077
                 21.06     0.2745748236174
                 7.495    0.44829431892377
                 2.797    0.28490261071525
                0.5215   0.015194859206082
 s    8 1.00
                  6665  -0.00029326965268655
                  1000  -0.0023180354739745
                   228  -0.011499786038565
                 64.71  -0.046826727009787
                 21.06   -0.12846616875047
                 7.495   -0.30126627246289
                 2.797   -0.25563070233011
                0.5215      1.093793361012
 s    1 1.00
                0.1596                   1
 p    3 1.00
                 9.439   0.056979251590039
                 2.002    0.31320721150073
                0.5456    0.76037674173753
 p    1 1.00
                0.1517                   1
 d    1 1.00
                  0.55                   1

26 0
 s    3 1.00
                 13.01   0.033498726389998
                 1.962    0.23480080117413
                0.4446     0.8136829578829
 s    1 1.00
                 0.122                   1
 p    1 1.00
                 0.727                   1

27 0
 s    3 1.00
                 13.01   0.033498726389998
                 1.962    0.23480080117413
                0.4446     0.8136829578829
 s    1 1.00
                 0.122                   1
 p    1 1.00
                 0.727                   1

28 0
 s    8 1.00
                  6665  0.00069158396281299
                  1000  0.0053257961529341
                   228   0.027060721042034
                 64.71    0.10165684614077
                 21.06     0.2745748236174
                 7.495    0.44829431892377
                 2.797    0.28490261071525
                0.5215   0.015194859206082
 s    8 1.00
                  6665  -0.00029326965268655
                  1000  -0.0023180354739745
                   228  -0.011499786038565
                 64.71  -0.046826727009787
                 21.06   -0.12846616875047
                 7.495   -0.30126627246289
                 2.797   -0.25563070233011
                0.5215      1.093793361012
 s    1 1.00
                0.1596                   1
 p    3 1.00
                 9.439   0.056979251590039
                 2.002    0.31320721150073
                0.5456    0.76037674173753
 p    1 1.00
                0.1517                   1
 d    1 1.00
                  0.55                   1

29 0
 s    3 1.00
                 13.01   0.033498726389998
                 1.962    0.23480080117413
                0.4446     0.8136829578829
 s    1 1.00
                 0.122                   1
 p    1 1.00
                 0.727                   1

30 0
 s    3 1.00
                 13.01   0.033498726389998
                 1.962    0.23480080117413
                0.4446     0.8136829578829
 s    1 1.00
                 0.122                   1
 p    1 1.00
                 0.727                   1

31 0
 s    8 1.00
                  6665  0.00069158396281299
                  1000  0.0053257961529341
                   228   0.027060721042034
                 64.71    0.10165684614077
                 21.06     0.2745748236174
                 7.495    0.44829431892377
                 2.797    0.28490261071525
                0.5215   0.015194859206082
 s    8 1.00
                  6665  -0.00029326965268655
                  1000  -0.0023180354739745
                   228  -0.011499786038565
                 64.71  -0.046826727009787
                 21.06   -0.12846616875047
                 7.495   -0.30126627246289
                 2.797   -0.25563070233011
                0.5215      1.093793361012
 s    1 1.00
                0.1596                   1
 p    3 1.00
                 9.439   0.056979251590039
                 2.002    0.31320721150073
                0.5456    0.76037674173753
 p    1 1.00
                0.1517                   1
 d    1 1.00
                  0.55                   1

32 0
 s    3 1.00
                 13.01   0.033498726389998
                 1.962    0.23480080117413
                0.4446     0.8136829578829
 s    1 1.00
                 0.122                   1
 p    1 1.00
                 0.727                   1

33 0
 s    3 1.00
                 13.01   0.033498726389998
                 1.962    0.23480080117413
                0.4446     0.8136829578829
 s    1 1.00
                 0.122                   1
 p    1 1.00
                 0.727                   1

34 0
 s    3 1.00
                 13.01   0.033498726389998
                 1.962    0.23480080117413
                0.4446     0.8136829578829
 s    1 1.00
                 0.122                   1
 p    1 1.00
                 0.727                   1

35 0
 s    3 1.00
                 13.01   0.033498726389998
                 1.962    0.23480080117413
                0.4446     0.8136829578829
 s    1 1.00
                 0.122                   1
 p    1 1.00
                 0.727                   1

36 0
 s    3 1.00
                 13.01   0.033498726389998
                 1.962    0.23480080117413
                0.4446     0.8136829578829
 s    1 1.00
                 0.122                   1
 p    1 1.00
                 0.727                   1

37 0
 s    3 1.00
                 13.01   0.033498726389998
                 1.962    0.23480080117413
                0.4446     0.8136829578829
 s    1 1.00
                 0.122                   1
 p    1 1.00
                 0.727                   1

[5d]
[7f]
[9g]

[MO]
 Sym= A
 Ene=               0
 Spin= Alpha
 Occup=    1.00000
   1    -6.7204181565656e-05
   2    -4.4001195921042e-05
   3    0.00013872492354023
   4    2.696130094511e-07
   5    5.2662354137612e-06
   6    5.3894171662919e-06
   7    -9.3698680212396e-08
   8    -2.3756976549469e-05
   9    -5.5017217303913e-05
  10    6.0847136458397e-06
  11    -2.2105889856047e-07
  12    1.8494769016836e-06
  13    1.2043851368358e-06
  14    2.4300972057888e-08
  15    -5.8722701633655e-05
  16    -0.00023108714524062
  17    -8.1515452027784e-07
  18    2.8321708037654e-06
  19    1.3549734126733e-05
  20    -4.6645812674889e-07
  21    5.3636449261196e-05
  22    1.4989174981942e-07
  23    5.4302946412619e-07
  24    -5.1059475758256e-06
  25       1.0013869397082
  26    0.0020127334732858
  27    -0.0069970567503102
  28    -5.3670694621384e-06
  29    1.2486962002246e-05
  30    -0.0016271450976288
  31    -1.9177289080048e-07
  32    -3.7690312536079e-06
  33    0.0020073021125994
  34    0.00010532555038388
  35    -2.7703870633998e-06
  36    1.5361258905245e-06
  37    6.5672643656473e-05
  38    -0.00017094739888477
  39    0.00029521179358407
  40    0.00041780803376563
  41    0.0015821533502959
  42    1.6544200164806e-05
  43    -1.0096730450096e-05
  44    3.6284899145756e-05
  45    8.4909058899298e-05
  46    -6.7396308797641e-05
  47    0.0037272096091636
  48    -0.00049432185447327
  49    -8.2266004069421e-06
  50    2.7523515160817e-06
  51    3.0530430595342e-05
  52    -0.00011202064195982
  53    -8.3992268237628e-05
  54    -0.00016412443360939
  55    0.0013936168438042
  56    7.8946766063027e-05
  57    -6.8064826653248e-06
  58    -3.3901641549981e-05
  59    -0.00043073365134362
  60    0.00048524427035134
  61    -0.0009922790343165
  62    -0.00011554586315868
  63    0.00014966865220035
  64    -0.00014349238409204
  65    5.3901445989748e-05
  66    -0.00012595576346848
  67    -3.7800050813901e-05
  68    -9.3703068968831e-05
  69    0.00052382741817356
  70    -6.2945538748981e-05
  71    4.171248854486e-05
  72    -6.1299048523554e-05
  73    0.0010243160054234
  74    -0.0007877091501618
  75    -0.00067197173815587
  76    -0.00013890579705735
  77    -0.00012156533737375
  78    8.9749836654723e-05
  79    5.8116961945795e-05
  80    -0.00014903598889175
  81    -5.7435200512504e-05
  82    0.00022194496723428
  83    6.732940546429e-05
  84    -4.9406281692494e-05
  85    4.6493220141763e-05
  86    2.5031776626643e-05
  87    4.8458320621738e-05
  88     -0.00062929538408
  89    -1.6347462420595e-05
  90    -1.7050352197734e-05
  91    1.1497751405043e-05
  92    0.00026334554099906
  93    0.00065760326990979
  94    -8.6168141566493e-06
  95    1.934758221602e-05
  96    1.1600408437372e-05
  97    8.2071554326342e-06
  98    -1.9010144591011e-05
  99    -4.9317429477026e-05
 100    -4.2061823563139e-05
 101    -0.00016783805396515
 102    5.6918450595008e-06
 103    -1.0970942722684e-05
 104    7.8188838496536e-05
 105    -1.9984573313411e-05
 106    -0.00020914376593069
 107    -6.375177759841e-05
 108    7.3374044016377e-06
 109    7.711323738922e-05
 110    7.8740755862503e-05
 111    -6.7630076189211e-05
 112    -4.3813014030228e-05
 113    2.0600266822497e-05
 114    7.2144621569062e-05
 115    -4.7907812852587e-05
 116    -9.8787988396656e-05
 117    0.00085772773860003
 118    -2.2622893911256e-05
 119    -1.3752217435123e-05
 120    3.3368484963593e-05
 121    0.0002844907044065
 122    3.8229327306059e-05
 123    -0.00015828748676534
 124    -6.1186261068928e-06
 125    1.0072286919223e-05
 126    1.4840947984788e-05
 127    -3.2585571007653e-05
 128    5.1512501284256e-05
 129    -2.0433899635533e-05
 130    -0.00034140204729705
 131    8.2488362441224e-06
 132    6.0476569627161e-06
 133    2.9785029536432e-05
 134    2.5537580655835e-05
 135    -0.00011727133022544
 136    -1.3920515862994e-05
 137    -2.5550531721593e-05
 138    -2.7804955242547e-05
 139    -2.2323331412377e-05
 140    -3.9692281400127e-05
 141    0.00031146461310186
 142    8.9143597868013e-06
 143    -2.3837622199072e-06
 144    -7.2854372471175e-06
 145    -0.00023162639880269
 146     6.15575254735e-05
 147    5.7848715930865e-05
 148    -2.6560832244853e-06
 149    3.4914426101515e-06
 150    -4.9548356712277e-06
 151    1.2725266252148e-05
 152    -4.6489256171044e-06
 153    -9.9043467074246e-05
 154    -9.4853323528199e-05
 155    -2.6771955870025e-05
 156    2.7618808571384e-05
 157    1.9252058563169e-05
 158    -2.5021552941842e-05
 159    -8.444308990582e-05
 160    -5.9158803225022e-05
 161    -7.4798973278567e-06
 162    6.8339614226873e-06
 163    7.9449641140416e-06
 164    1.3490923992684e-06
 165    -0.00026307092192579
 166    -2.1655885377568e-05
 167    2.2689714299266e-05
 168    9.2363349544997e-06
 169    0.00023204471351417
 170    -0.00020649307118495
 171    -0.00014067743992437
 172    -2.56627405605e-06
 173    9.5361987419985e-06
 174    -1.3677956521785e-05
 175    3.1067521686294e-06
 176    -1.8087811669154e-05
 177    -1.6405875416975e-05
 178    8.7058038668802e-05
 179    -1.2313664092365e-06
 180    1.5895367889059e-06
 181    -4.6739227185719e-06
 182    1.467282156871e-05
 183    2.7095582136043e-05
 184    -8.3259043267048e-05
 185    -9.3868216492074e-06
 186    6.719999265369e-06
 187    8.9362533376888e-06
 188    0.00012967343376036
 189    -0.00010037487087583
 190    -9.0594003465129e-05
 191    1.4011466602874e-06
 192    2.6511824719471e-06
 193    -7.8908140886079e-06
 194    -3.1792355144448e-06
 195    -5.206044061828e-06
 196    -1.2863463390039e-05
 197    -1.9494743943946e-05
 198    5.7294639310469e-06
 199    1.9699341240553e-06
 200    -3.1785367600984e-06
 201    -1.5743959492908e-05
 202    -7.2052347201942e-07
 203    -1.3628720193328e-05
 204    9.9694230853295e-06
 205    1.1721250865746e-05
 206    1.4869827116826e-05
 207    7.064312677723e-05
 208    -1.6381350309731e-05
 209    3.6356633056775e-06
 210    1.6354835023689e-05
 211    -1.9040370238808e-05
 212    -3.1258836705414e-05
 213    0.00027182066637156
 214    1.1785419979429e-05
 215    -1.6328482872851e-06
 216    -1.2380797348077e-05
 217    0.0001970597089195
 218    -5.1090217881586e-05
 219    -8.3373167516976e-05
 220    -2.0820993404714e-06
 221    -1.6934345752773e-05
 222    5.5917295796783e-06
 223    9.9512963133211e-06
 224    -2.1707332643902e-06
 225    2.779823184285e-05
 226    5.7806525580742e-05
 227    -1.2770854847946e-05
 228    -2.1878592808281e-06
 229    -9.1257987065908e-07
 230    1.0657216322928e-05
 231    5.4845239809277e-05
 232    -4.2282789743705e-06
 233    6.5787566500303e-06
 234    1.2325229103443e-05
 235    -9.7204403364933e-07
 236    -4.6693202004919e-06
 237    -8.314850191897e-05
 238    6.0242643325923e-06
 239    1.656302631786e-06
 240    -7.9560029531391e-06
 241    3.8397769402227e-05
 242    -6.407084132528e-05
 243    1.6477263337604e-05
 244    2.0951150245548e-06
 245    2.0072673034161e-06
 246    -2.0957386858938e-06
 247    2.5920937660116e-09
 248    1.2869382191886e-06
 249    -1.9428206382918e-05
 250    8.3749825725756e-06
 251    -4.2042845029716e-06
 252    -7.6394027030169e-07
 253    1.279662710787e-07
 254    -2.0962292494595e-05
 255    5.4427512706459e-05
 256    2.6795659408031e-07
 257    3.9108663831474e-06
 258    -7.2132034276082e-07
 259    -1.0463211538904e-05
 260    -1.8806916037616e-05
 261    7.0792607677787e-05
 262    -4.0601941280385e-06