[Molden Format]
made by pyscf v[2.0.1]
[Atoms] (AU)
O   1   8     0.00000000000000     0.00000000000000     9.80791491072852
H   2   1     0.00000000000000     0.00000000000000     7.98451308882755
H   3   1    -0.05031916615174     1.78353065140343    10.18378660719519
O   4   8     0.00000000000000     0.00000000000000     2.31533471513237
C   5   6     0.00000000000000     0.00000000000000     0.00000000000000
C   6   6     2.01118073026938    -1.40227222164369    -1.50774939176400
C   7   6    -2.01249334291722     1.41331050329955    -1.50315905028694
H   8   1     3.32037363730244    -2.26721897153159    -0.13599698591495
C   9   6     3.45899267434009     0.28739631745591    -3.37437943254505
H   10   1     1.07662969841332    -2.94725144642667    -2.56541439481080
H   11   1    -2.67503415753480     0.18421555839588    -3.06194479365997
H   12   1    -1.07974048864772     3.03851734677796    -2.43674295017013
C   13   6    -4.21607110578555     2.32938802552922     0.11994162256091
H   14   1     4.24440173074564     1.93368664142019    -2.34976285512790
H   15   1     2.15020713235517     1.04714335134846    -4.81494497423699
C   16   6     5.60746363007797    -1.12419643481196    -4.70268606082550
H   17   1    -3.46838323670267     3.50951302338067     1.66946842715333
H   18   1    -5.11873485366228     0.68575958301209     1.04047743976495
C   19   6    -6.18314754751344     3.80909592987882    -1.39656589068747
H   20   1     6.93011263717176    -1.87550812453645    -3.26656317360070
C   21   6     7.06356622236532     0.52877932406334    -6.57829775293605
H   22   1     4.82318879258361    -2.78573437948532    -5.70504560381835
H   23   1    -6.91582688743803     2.61304780074712    -2.95074552451969
H   24   1    -5.26532430573853     5.45420349051338    -2.31005832200284
C   25   6    -8.39941882261433     4.73263980500213     0.21800571437956
H   26   1     7.83338371486801     2.19084139882824    -5.57093109900697
H   27   1     5.73544244039420     1.27376866537418    -8.01071492370229
C   28   6     9.21124858443101    -0.89699110072176    -7.88926949186242
H   29   1    -7.66272760055236     5.92277078003992     1.77035591474408
H   30   1    -9.31497248082589     3.08753015622020     1.12614408368786
C   31   6   -10.35481709231879     6.21833079391143    -1.30905206253246
H   32   1    10.58815905329501    -1.61074586756696    -6.49512691622620
H   33   1    10.23506248045667     0.32468009384095    -9.23072870921204
H   34   1     8.47665842847139    -2.53598436989925    -8.94921964622535
H   35   1    -9.48948872868064     7.90013588951020    -2.18823918416067
H   36   1   -11.93332513000955     6.86460487874102    -0.11255798845995
H   37   1   -11.15126291841033     5.04495968327630    -2.83849898862534
[GTO]
1 0
 s    8 1.00
                 11720  0.00070964594651845
                  1759  0.0054672722921914
                 400.8   0.027823118610189
                 113.7    0.10474773971146
                 37.03    0.28292084635691
                 13.27    0.44849523869833
                 5.025    0.27081688521277
                 1.013    0.01545029160744
 s    8 1.00
                 11720  -0.00031444341168873
                  1759  -0.0024821376810179
                 400.8  -0.012316355381583
                 113.7  -0.050538917343672
                 37.03   -0.13938490331632
                 13.27   -0.32507749481778
                 5.025   -0.22984830758785
                 1.013     1.0953793467883
 s    1 1.00
                0.3023                   1
 p    3 1.00
                  17.7   0.062679166281506
                 3.854    0.33353656587936
                 1.046    0.74123964163973
 p    1 1.00
                0.2753                   1
 d    1 1.00
                 1.185                   1

2 0
 s    3 1.00
                 13.01   0.033498726389998
                 1.962    0.23480080117413
                0.4446     0.8136829578829
 s    1 1.00
                 0.122                   1
 p    1 1.00
                 0.727                   1

3 0
 s    3 1.00
                 13.01   0.033498726389998
                 1.962    0.23480080117413
                0.4446     0.8136829578829
 s    1 1.00
                 0.122                   1
 p    1 1.00
                 0.727                   1

4 0
 s    8 1.00
                 11720  0.00070964594651845
                  1759  0.0054672722921914
                 400.8   0.027823118610189
                 113.7    0.10474773971146
                 37.03    0.28292084635691
                 13.27    0.44849523869833
                 5.025    0.27081688521277
                 1.013    0.01545029160744
 s    8 1.00
                 11720  -0.00031444341168873
                  1759  -0.0024821376810179
                 400.8  -0.012316355381583
                 113.7  -0.050538917343672
                 37.03   -0.13938490331632
                 13.27   -0.32507749481778
                 5.025   -0.22984830758785
                 1.013     1.0953793467883
 s    1 1.00
                0.3023                   1
 p    3 1.00
                  17.7   0.062679166281506
                 3.854    0.33353656587936
                 1.046    0.74123964163973
 p    1 1.00
                0.2753                   1
 d    1 1.00
                 1.185                   1

5 0
 s    8 1.00
                  6665  0.00069158396281299
                  1000  0.0053257961529341
                   228   0.027060721042034
                 64.71    0.10165684614077
                 21.06     0.2745748236174
                 7.495    0.44829431892377
                 2.797    0.28490261071525
                0.5215   0.015194859206082
 s    8 1.00
                  6665  -0.00029326965268655
                  1000  -0.0023180354739745
                   228  -0.011499786038565
                 64.71  -0.046826727009787
                 21.06   -0.12846616875047
                 7.495   -0.30126627246289
                 2.797   -0.25563070233011
                0.5215      1.093793361012
 s    1 1.00
                0.1596                   1
 p    3 1.00
                 9.439   0.056979251590039
                 2.002    0.31320721150073
                0.5456    0.76037674173753
 p    1 1.00
                0.1517                   1
 d    1 1.00
                  0.55                   1

6 0
 s    8 1.00
                  6665  0.00069158396281299
                  1000  0.0053257961529341
                   228   0.027060721042034
                 64.71    0.10165684614077
                 21.06     0.2745748236174
                 7.495    0.44829431892377
                 2.797    0.28490261071525
                0.5215   0.015194859206082
 s    8 1.00
                  6665  -0.00029326965268655
                  1000  -0.0023180354739745
                   228  -0.011499786038565
                 64.71  -0.046826727009787
                 21.06   -0.12846616875047
                 7.495   -0.30126627246289
                 2.797   -0.25563070233011
                0.5215      1.093793361012
 s    1 1.00
                0.1596                   1
 p    3 1.00
                 9.439   0.056979251590039
                 2.002    0.31320721150073
                0.5456    0.76037674173753
 p    1 1.00
                0.1517                   1
 d    1 1.00
                  0.55                   1

7 0
 s    8 1.00
                  6665  0.00069158396281299
                  1000  0.0053257961529341
                   228   0.027060721042034
                 64.71    0.10165684614077
                 21.06     0.2745748236174
                 7.495    0.44829431892377
                 2.797    0.28490261071525
                0.5215   0.015194859206082
 s    8 1.00
                  6665  -0.00029326965268655
                  1000  -0.0023180354739745
                   228  -0.011499786038565
                 64.71  -0.046826727009787
                 21.06   -0.12846616875047
                 7.495   -0.30126627246289
                 2.797   -0.25563070233011
                0.5215      1.093793361012
 s    1 1.00
                0.1596                   1
 p    3 1.00
                 9.439   0.056979251590039
                 2.002    0.31320721150073
                0.5456    0.76037674173753
 p    1 1.00
                0.1517                   1
 d    1 1.00
                  0.55                   1

8 0
 s    3 1.00
                 13.01   0.033498726389998
                 1.962    0.23480080117413
                0.4446     0.8136829578829
 s    1 1.00
                 0.122                   1
 p    1 1.00
                 0.727                   1

9 0
 s    8 1.00
                  6665  0.00069158396281299
                  1000  0.0053257961529341
                   228   0.027060721042034
                 64.71    0.10165684614077
                 21.06     0.2745748236174
                 7.495    0.44829431892377
                 2.797    0.28490261071525
                0.5215   0.015194859206082
 s    8 1.00
                  6665  -0.00029326965268655
                  1000  -0.0023180354739745
                   228  -0.011499786038565
                 64.71  -0.046826727009787
                 21.06   -0.12846616875047
                 7.495   -0.30126627246289
                 2.797   -0.25563070233011
                0.5215      1.093793361012
 s    1 1.00
                0.1596                   1
 p    3 1.00
                 9.439   0.056979251590039
                 2.002    0.31320721150073
                0.5456    0.76037674173753
 p    1 1.00
                0.1517                   1
 d    1 1.00
                  0.55                   1

10 0
 s    3 1.00
                 13.01   0.033498726389998
                 1.962    0.23480080117413
                0.4446     0.8136829578829
 s    1 1.00
                 0.122                   1
 p    1 1.00
                 0.727                   1

11 0
 s    3 1.00
                 13.01   0.033498726389998
                 1.962    0.23480080117413
                0.4446     0.8136829578829
 s    1 1.00
                 0.122                   1
 p    1 1.00
                 0.727                   1

12 0
 s    3 1.00
                 13.01   0.033498726389998
                 1.962    0.23480080117413
                0.4446     0.8136829578829
 s    1 1.00
                 0.122                   1
 p    1 1.00
                 0.727                   1

13 0
 s    8 1.00
                  6665  0.00069158396281299
                  1000  0.0053257961529341
                   228   0.027060721042034
                 64.71    0.10165684614077
                 21.06     0.2745748236174
                 7.495    0.44829431892377
                 2.797    0.28490261071525
                0.5215   0.015194859206082
 s    8 1.00
                  6665  -0.00029326965268655
                  1000  -0.0023180354739745
                   228  -0.011499786038565
                 64.71  -0.046826727009787
                 21.06   -0.12846616875047
                 7.495   -0.30126627246289
                 2.797   -0.25563070233011
                0.5215      1.093793361012
 s    1 1.00
                0.1596                   1
 p    3 1.00
                 9.439   0.056979251590039
                 2.002    0.31320721150073
                0.5456    0.76037674173753
 p    1 1.00
                0.1517                   1
 d    1 1.00
                  0.55                   1

14 0
 s    3 1.00
                 13.01   0.033498726389998
                 1.962    0.23480080117413
                0.4446     0.8136829578829
 s    1 1.00
                 0.122                   1
 p    1 1.00
                 0.727                   1

15 0
 s    3 1.00
                 13.01   0.033498726389998
                 1.962    0.23480080117413
                0.4446     0.8136829578829
 s    1 1.00
                 0.122                   1
 p    1 1.00
                 0.727                   1

16 0
 s    8 1.00
                  6665  0.00069158396281299
                  1000  0.0053257961529341
                   228   0.027060721042034
                 64.71    0.10165684614077
                 21.06     0.2745748236174
                 7.495    0.44829431892377
                 2.797    0.28490261071525
                0.5215   0.015194859206082
 s    8 1.00
                  6665  -0.00029326965268655
                  1000  -0.0023180354739745
                   228  -0.011499786038565
                 64.71  -0.046826727009787
                 21.06   -0.12846616875047
                 7.495   -0.30126627246289
                 2.797   -0.25563070233011
                0.5215      1.093793361012
 s    1 1.00
                0.1596                   1
 p    3 1.00
                 9.439   0.056979251590039
                 2.002    0.31320721150073
                0.5456    0.76037674173753
 p    1 1.00
                0.1517                   1
 d    1 1.00
                  0.55                   1

17 0
 s    3 1.00
                 13.01   0.033498726389998
                 1.962    0.23480080117413
                0.4446     0.8136829578829
 s    1 1.00
                 0.122                   1
 p    1 1.00
                 0.727                   1

18 0
 s    3 1.00
                 13.01   0.033498726389998
                 1.962    0.23480080117413
                0.4446     0.8136829578829
 s    1 1.00
                 0.122                   1
 p    1 1.00
                 0.727                   1

19 0
 s    8 1.00
                  6665  0.00069158396281299
                  1000  0.0053257961529341
                   228   0.027060721042034
                 64.71    0.10165684614077
                 21.06     0.2745748236174
                 7.495    0.44829431892377
                 2.797    0.28490261071525
                0.5215   0.015194859206082
 s    8 1.00
                  6665  -0.00029326965268655
                  1000  -0.0023180354739745
                   228  -0.011499786038565
                 64.71  -0.046826727009787
                 21.06   -0.12846616875047
                 7.495   -0.30126627246289
                 2.797   -0.25563070233011
                0.5215      1.093793361012
 s    1 1.00
                0.1596                   1
 p    3 1.00
                 9.439   0.056979251590039
                 2.002    0.31320721150073
                0.5456    0.76037674173753
 p    1 1.00
                0.1517                   1
 d    1 1.00
                  0.55                   1

20 0
 s    3 1.00
                 13.01   0.033498726389998
                 1.962    0.23480080117413
                0.4446     0.8136829578829
 s    1 1.00
                 0.122                   1
 p    1 1.00
                 0.727                   1

21 0
 s    8 1.00
                  6665  0.00069158396281299
                  1000  0.0053257961529341
                   228   0.027060721042034
                 64.71    0.10165684614077
                 21.06     0.2745748236174
                 7.495    0.44829431892377
                 2.797    0.28490261071525
                0.5215   0.015194859206082
 s    8 1.00
                  6665  -0.00029326965268655
                  1000  -0.0023180354739745
                   228  -0.011499786038565
                 64.71  -0.046826727009787
                 21.06   -0.12846616875047
                 7.495   -0.30126627246289
                 2.797   -0.25563070233011
                0.5215      1.093793361012
 s    1 1.00
                0.1596                   1
 p    3 1.00
                 9.439   0.056979251590039
                 2.002    0.31320721150073
                0.5456    0.76037674173753
 p    1 1.00
                0.1517                   1
 d    1 1.00
                  0.55                   1

22 0
 s    3 1.00
                 13.01   0.033498726389998
                 1.962    0.23480080117413
                0.4446     0.8136829578829
 s    1 1.00
                 0.122                   1
 p    1 1.00
                 0.727                   1

23 0
 s    3 1.00
                 13.01   0.033498726389998
                 1.962    0.23480080117413
                0.4446     0.8136829578829
 s    1 1.00
                 0.122                   1
 p    1 1.00
                 0.727                   1

24 0
 s    3 1.00
                 13.01   0.033498726389998
                 1.962    0.23480080117413
                0.4446     0.8136829578829
 s    1 1.00
                 0.122                   1
 p    1 1.00
                 0.727                   1

25 0
 s    8 1.00
                  6665  0.00069158396281299
                  1000  0.0053257961529341
                   228   0.027060721042034
                 64.71    0.10165684614077
                 21.06     0.2745748236174
                 7.495    0.44829431892377
                 2.797    0.28490261071525
                0.5215   0.015194859206082
 s    8 1.00
                  6665  -0.00029326965268655
                  1000  -0.0023180354739745
                   228  -0.011499786038565
                 64.71  -0.046826727009787
                 21.06   -0.12846616875047
                 7.495   -0.30126627246289
                 2.797   -0.25563070233011
                0.5215      1.093793361012
 s    1 1.00
                0.1596                   1
 p    3 1.00
                 9.439   0.056979251590039
                 2.002    0.31320721150073
                0.5456    0.76037674173753
 p    1 1.00
                0.1517                   1
 d    1 1.00
                  0.55                   1

26 0
 s    3 1.00
                 13.01   0.033498726389998
                 1.962    0.23480080117413
                0.4446     0.8136829578829
 s    1 1.00
                 0.122                   1
 p    1 1.00
                 0.727                   1

27 0
 s    3 1.00
                 13.01   0.033498726389998
                 1.962    0.23480080117413
                0.4446     0.8136829578829
 s    1 1.00
                 0.122                   1
 p    1 1.00
                 0.727                   1

28 0
 s    8 1.00
                  6665  0.00069158396281299
                  1000  0.0053257961529341
                   228   0.027060721042034
                 64.71    0.10165684614077
                 21.06     0.2745748236174
                 7.495    0.44829431892377
                 2.797    0.28490261071525
                0.5215   0.015194859206082
 s    8 1.00
                  6665  -0.00029326965268655
                  1000  -0.0023180354739745
                   228  -0.011499786038565
                 64.71  -0.046826727009787
                 21.06   -0.12846616875047
                 7.495   -0.30126627246289
                 2.797   -0.25563070233011
                0.5215      1.093793361012
 s    1 1.00
                0.1596                   1
 p    3 1.00
                 9.439   0.056979251590039
                 2.002    0.31320721150073
                0.5456    0.76037674173753
 p    1 1.00
                0.1517                   1
 d    1 1.00
                  0.55                   1

29 0
 s    3 1.00
                 13.01   0.033498726389998
                 1.962    0.23480080117413
                0.4446     0.8136829578829
 s    1 1.00
                 0.122                   1
 p    1 1.00
                 0.727                   1

30 0
 s    3 1.00
                 13.01   0.033498726389998
                 1.962    0.23480080117413
                0.4446     0.8136829578829
 s    1 1.00
                 0.122                   1
 p    1 1.00
                 0.727                   1

31 0
 s    8 1.00
                  6665  0.00069158396281299
                  1000  0.0053257961529341
                   228   0.027060721042034
                 64.71    0.10165684614077
                 21.06     0.2745748236174
                 7.495    0.44829431892377
                 2.797    0.28490261071525
                0.5215   0.015194859206082
 s    8 1.00
                  6665  -0.00029326965268655
                  1000  -0.0023180354739745
                   228  -0.011499786038565
                 64.71  -0.046826727009787
                 21.06   -0.12846616875047
                 7.495   -0.30126627246289
                 2.797   -0.25563070233011
                0.5215      1.093793361012
 s    1 1.00
                0.1596                   1
 p    3 1.00
                 9.439   0.056979251590039
                 2.002    0.31320721150073
                0.5456    0.76037674173753
 p    1 1.00
                0.1517                   1
 d    1 1.00
                  0.55                   1

32 0
 s    3 1.00
                 13.01   0.033498726389998
                 1.962    0.23480080117413
                0.4446     0.8136829578829
 s    1 1.00
                 0.122                   1
 p    1 1.00
                 0.727                   1

33 0
 s    3 1.00
                 13.01   0.033498726389998
                 1.962    0.23480080117413
                0.4446     0.8136829578829
 s    1 1.00
                 0.122                   1
 p    1 1.00
                 0.727                   1

34 0
 s    3 1.00
                 13.01   0.033498726389998
                 1.962    0.23480080117413
                0.4446     0.8136829578829
 s    1 1.00
                 0.122                   1
 p    1 1.00
                 0.727                   1

35 0
 s    3 1.00
                 13.01   0.033498726389998
                 1.962    0.23480080117413
                0.4446     0.8136829578829
 s    1 1.00
                 0.122                   1
 p    1 1.00
                 0.727                   1

36 0
 s    3 1.00
                 13.01   0.033498726389998
                 1.962    0.23480080117413
                0.4446     0.8136829578829
 s    1 1.00
                 0.122                   1
 p    1 1.00
                 0.727                   1

37 0
 s    3 1.00
                 13.01   0.033498726389998
                 1.962    0.23480080117413
                0.4446     0.8136829578829
 s    1 1.00
                 0.122                   1
 p    1 1.00
                 0.727                   1

[5d]
[7f]
[9g]

[MO]
 Sym= A
 Ene=               0
 Spin= Alpha
 Occup=    1.00000
   1    -5.1622747570293e-05
   2    -3.5691362405903e-05
   3    0.00011892617789007
   4    -9.1105842689851e-08
   5    4.7782241999135e-06
   6    3.9803293122652e-06
   7    5.8467534367445e-07
   8    -2.33074871345e-05
   9    -8.1576794397436e-05
  10    1.2763408693375e-05
  11    -1.3529221366393e-09
  12    -7.8553140766616e-07
  13    4.1388477610711e-07
  14    1.7272495897482e-08
  15    -1.5473162191043e-05
  16    -0.00017301152729263
  17    -1.3060960135274e-07
  18    1.532757314446e-06
  19    -3.2974506577036e-05
  20    -7.5185803249368e-06
  21    6.4622461486344e-05
  22    1.8196846157496e-07
  23    -5.7186020732587e-06
  24    2.5419918576088e-06
  25       1.0013660760415
  26    0.0019605346138444
  27    -0.0068260876080747
  28    -4.7326211566928e-06
  29    8.6715001099966e-06
  30    -0.0016525434448663
  31    -2.3325630342787e-07
  32    -1.6394441485696e-06
  33    0.0018542711437033
  34    0.0001228411575621
  35    -2.9551393712086e-06
  36    1.3853433324412e-06
  37    6.734229842359e-05
  38    -0.00017533360555828
  39    0.00027719488825957
  40    0.00037957069803628
  41    0.0014409979861268
  42    1.5541578666069e-05
  43    -1.0032253906244e-05
  44    -1.4798537075109e-06
  45    8.1732130781844e-05
  46    -6.3955843391254e-05
  47    0.0035776150562098
  48    -0.0005283159401006
  49    -8.4212385020602e-06
  50    2.4934652165429e-06
  51    2.9083536059108e-05
  52    -0.00010813371172405
  53    -8.4903934798052e-05
  54    -0.00016579816466848
  55    0.0013741792630424
  56    7.8337873662643e-05
  57    -7.1141313594591e-06
  58    -3.5837585402171e-05
  59    -0.00042391068524658
  60    0.00047798689544785
  61    -0.00093762578302339
  62    -0.0001172281735937
  63    0.00015006493860846
  64    -0.00014297849436938
  65    5.4853462110221e-05
  66    -0.00012933225167934
  67    -3.9869163005153e-05
  68    -9.7371619323166e-05
  69    0.00051332908158456
  70    -6.1685980402845e-05
  71    4.0242700302642e-05
  72    -6.2290864318039e-05
  73    0.0010034053990478
  74    -0.00077242800737746
  75    -0.0006426595398766
  76    -0.00014059322452028
  77    -0.00012094754578593
  78    8.9699233203132e-05
  79    5.8806236481332e-05
  80    -0.000151282695735
  81    -6.3397443028515e-05
  82    0.0002088830737719
  83    6.6227374315805e-05
  84    -4.865312808803e-05
  85    4.8603621972695e-05
  86    2.5057617818283e-05
  87    4.8553732215119e-05
  88    -0.00061024494336875
  89    -1.6553636128497e-05
  90    -1.6821560366222e-05
  91    1.2393750338238e-05
  92    0.00025684392661231
  93    0.00063068946909678
  94    -1.6412654120853e-05
  95    1.8285020118358e-05
  96    1.1222843816538e-05
  97    7.3933067855844e-06
  98    -2.0349765474403e-05
  99    -4.6208090744524e-05
 100    -3.8028267158637e-05
 101    -0.00015966038365579
 102    8.6280370732317e-06
 103    -9.9998209012575e-06
 104    7.5044944803291e-05
 105    -1.8140865064394e-05
 106    -0.00020210564678072
 107    -6.4264657878305e-05
 108    1.0466391621095e-05
 109    7.4977546486448e-05
 110    7.7558064643547e-05
 111    -6.0322039301205e-05
 112    -4.5198355261621e-05
 113    1.8843022467907e-05
 114    6.9985200530272e-05
 115    -4.9297314266697e-05
 116    -0.00010129022247821
 117    0.00084256790995154
 118    -2.450864166427e-05
 119    -1.2274638219211e-05
 120    3.3876030468212e-05
 121    0.00029257232471654
 122    3.0609650156391e-05
 123    -0.00014138792488935
 124    -6.6100454994023e-06
 125    1.1828462649794e-05
 126    1.5312591639217e-05
 127    -3.2255970884604e-05
 128    4.9880485886676e-05
 129    -1.9323657116619e-05
 130    -0.00032531761560893
 131    7.6397977731319e-06
 132     5.92556096409e-06
 133    2.9301170780588e-05
 134    2.5789278475725e-05
 135    -0.00011809134904147
 136    -1.3553873795524e-05
 137    -2.4337664235022e-05
 138    -2.6776536038895e-05
 139    -2.1408262986895e-05
 140    -3.8025817560021e-05
 141    0.00029282557157995
 142    9.1033185051009e-06
 143    -1.8588741933186e-06
 144    -7.4514087898343e-06
 145    -0.00022928252534211
 146    5.4281925579541e-05
 147    6.205376552014e-05
 148    -2.4686808573858e-06
 149    3.1973210230272e-06
 150    -3.8558070819842e-06
 151    1.1933952217108e-05
 152    -4.81579641329e-06
 153    -9.7481171417553e-05
 154    -0.0001081803303169
 155    -2.6094463555978e-05
 156    2.9160715682756e-05
 157    1.995258672066e-05
 158    -2.4440228734662e-05
 159    -8.7865482539021e-05
 160    -5.9194574665886e-05
 161    -7.154620195986e-06
 162    6.3687266851749e-06
 163    6.3404262848286e-06
 164    -1.3995479638761e-06
 165    -0.00024298653903665
 166    -2.0888419076794e-05
 167      2.2465584696e-05
 168    9.1016171083287e-06
 169    0.00023476895668406
 170    -0.00020783576934231
 171    -0.00013284175512952
 172    -2.9711147892518e-06
 173    9.4192227521091e-06
 174    -1.3594404414575e-05
 175    3.2681560921788e-06
 176    -1.8226412796463e-05
 177    -1.5852074137798e-05
 178    8.4391965482585e-05
 179    -8.6058985470972e-07
 180    1.9315559908504e-06
 181    -4.9725784200815e-06
 182    1.3569977554939e-05
 183    2.5273421103275e-05
 184    -7.0860634055639e-05
 185    -9.5957599238552e-06
 186    6.2683065966262e-06
 187    9.1840780290811e-06
 188    0.00012514232678479
 189    -0.00010043280383108
 190    -8.4308193317939e-05
 191    1.4582990041006e-06
 192    2.3310533001203e-06
 193    -7.9573418432617e-06
 194    -3.2275515034715e-06
 195    -4.6748003059845e-06
 196    -1.3395659449664e-05
 197    -1.8527929717053e-05
 198    5.6996928361281e-06
 199    1.9933743295188e-06
 200    -3.5081887425314e-06
 201    -1.6425853469011e-05
 202    1.1631477058354e-06
 203    -1.3206629383585e-05
 204    1.0069440001435e-05
 205    1.1675473014276e-05
 206    1.4105183522068e-05
 207    6.9776811167007e-05
 208    -1.6411071759008e-05
 209    3.6523938890918e-06
 210    1.5958959515162e-05
 211    -1.8397076173497e-05
 212    -3.0356738513222e-05
 213    0.00025908444581841
 214    1.0769989565471e-05
 215    -1.3512137568122e-06
 216    -1.2325799621752e-05
 217    0.00019799401767601
 218    -5.3061450735533e-05
 219    -8.0369576490965e-05
 220    -2.0049038839091e-06
 221    -1.6974944585029e-05
 222    5.5841913339523e-06
 223    9.7674424238564e-06
 224    -2.0595405199946e-06
 225    2.6452518659167e-05
 226    5.5220839903526e-05
 227    -1.2418971243008e-05
 228    -1.9253164988305e-06
 229    -9.1265244972916e-07
 230    1.0016885089537e-05
 231    5.4521276911969e-05
 232    -4.0979958878296e-06
 233    6.3882857668746e-06
 234    1.206856716538e-05
 235    -1.0669851370638e-06
 236    -4.8467935793798e-06
 237    -8.1986062140689e-05
 238    6.1283496657252e-06
 239    1.5727608118665e-06
 240    -7.9337027119971e-06
 241    3.716945822426e-05
 242    -6.2848995920377e-05
 243    1.596115991316e-05
 244    2.0099894497084e-06
 245    1.9052553186113e-06
 246    -2.1348071373602e-06
 247    3.2013994604004e-08
 248    1.2936353300485e-06
 249    -1.9726709923528e-05
 250    1.1061958337456e-05
 251    -4.3938691080974e-06
 252    -8.0675487777853e-07
 253    -1.8402960424244e-07
 254    -2.053565198707e-05
 255    5.429717170944e-05
 256    -5.8118940074357e-08
 257    4.0564503243889e-06
 258    -8.6006740653685e-07
 259    -1.0906301368084e-05
 260    -1.9478514091651e-05
 261    7.7825722395608e-05
 262    -3.7361476741529e-06