[Molden Format]
made by pyscf v[2.0.1]
[Atoms] (AU)
O   1   8     0.00000000000000     0.00000000000000     6.78435311142442
H   2   1     0.00000000000000     0.00000000000000     4.96095128952346
H   3   1    -0.05031916615174     1.78353065140343     7.16022480789109
O   4   8     0.00000000000000     0.00000000000000     2.31533471513237
C   5   6     0.00000000000000     0.00000000000000     0.00000000000000
C   6   6     2.01118073026938    -1.40227222164369    -1.50774939176400
C   7   6    -2.01249334291722     1.41331050329955    -1.50315905028694
H   8   1     3.32037363730244    -2.26721897153159    -0.13599698591495
C   9   6     3.45899267434009     0.28739631745591    -3.37437943254505
H   10   1     1.07662969841332    -2.94725144642667    -2.56541439481080
H   11   1    -2.67503415753480     0.18421555839588    -3.06194479365997
H   12   1    -1.07974048864772     3.03851734677796    -2.43674295017013
C   13   6    -4.21607110578555     2.32938802552922     0.11994162256091
H   14   1     4.24440173074564     1.93368664142019    -2.34976285512790
H   15   1     2.15020713235517     1.04714335134846    -4.81494497423699
C   16   6     5.60746363007797    -1.12419643481196    -4.70268606082550
H   17   1    -3.46838323670267     3.50951302338067     1.66946842715333
H   18   1    -5.11873485366228     0.68575958301209     1.04047743976495
C   19   6    -6.18314754751344     3.80909592987882    -1.39656589068747
H   20   1     6.93011263717176    -1.87550812453645    -3.26656317360070
C   21   6     7.06356622236532     0.52877932406334    -6.57829775293605
H   22   1     4.82318879258361    -2.78573437948532    -5.70504560381835
H   23   1    -6.91582688743803     2.61304780074712    -2.95074552451969
H   24   1    -5.26532430573853     5.45420349051338    -2.31005832200284
C   25   6    -8.39941882261433     4.73263980500213     0.21800571437956
H   26   1     7.83338371486801     2.19084139882824    -5.57093109900697
H   27   1     5.73544244039420     1.27376866537418    -8.01071492370229
C   28   6     9.21124858443101    -0.89699110072176    -7.88926949186242
H   29   1    -7.66272760055236     5.92277078003992     1.77035591474408
H   30   1    -9.31497248082589     3.08753015622020     1.12614408368786
C   31   6   -10.35481709231879     6.21833079391143    -1.30905206253246
H   32   1    10.58815905329501    -1.61074586756696    -6.49512691622620
H   33   1    10.23506248045667     0.32468009384095    -9.23072870921204
H   34   1     8.47665842847139    -2.53598436989925    -8.94921964622535
H   35   1    -9.48948872868064     7.90013588951020    -2.18823918416067
H   36   1   -11.93332513000955     6.86460487874102    -0.11255798845995
H   37   1   -11.15126291841033     5.04495968327630    -2.83849898862534
[GTO]
1 0
 s    8 1.00
                 11720  0.00070964594651845
                  1759  0.0054672722921914
                 400.8   0.027823118610189
                 113.7    0.10474773971146
                 37.03    0.28292084635691
                 13.27    0.44849523869833
                 5.025    0.27081688521277
                 1.013    0.01545029160744
 s    8 1.00
                 11720  -0.00031444341168873
                  1759  -0.0024821376810179
                 400.8  -0.012316355381583
                 113.7  -0.050538917343672
                 37.03   -0.13938490331632
                 13.27   -0.32507749481778
                 5.025   -0.22984830758785
                 1.013     1.0953793467883
 s    1 1.00
                0.3023                   1
 p    3 1.00
                  17.7   0.062679166281506
                 3.854    0.33353656587936
                 1.046    0.74123964163973
 p    1 1.00
                0.2753                   1
 d    1 1.00
                 1.185                   1

2 0
 s    3 1.00
                 13.01   0.033498726389998
                 1.962    0.23480080117413
                0.4446     0.8136829578829
 s    1 1.00
                 0.122                   1
 p    1 1.00
                 0.727                   1

3 0
 s    3 1.00
                 13.01   0.033498726389998
                 1.962    0.23480080117413
                0.4446     0.8136829578829
 s    1 1.00
                 0.122                   1
 p    1 1.00
                 0.727                   1

4 0
 s    8 1.00
                 11720  0.00070964594651845
                  1759  0.0054672722921914
                 400.8   0.027823118610189
                 113.7    0.10474773971146
                 37.03    0.28292084635691
                 13.27    0.44849523869833
                 5.025    0.27081688521277
                 1.013    0.01545029160744
 s    8 1.00
                 11720  -0.00031444341168873
                  1759  -0.0024821376810179
                 400.8  -0.012316355381583
                 113.7  -0.050538917343672
                 37.03   -0.13938490331632
                 13.27   -0.32507749481778
                 5.025   -0.22984830758785
                 1.013     1.0953793467883
 s    1 1.00
                0.3023                   1
 p    3 1.00
                  17.7   0.062679166281506
                 3.854    0.33353656587936
                 1.046    0.74123964163973
 p    1 1.00
                0.2753                   1
 d    1 1.00
                 1.185                   1

5 0
 s    8 1.00
                  6665  0.00069158396281299
                  1000  0.0053257961529341
                   228   0.027060721042034
                 64.71    0.10165684614077
                 21.06     0.2745748236174
                 7.495    0.44829431892377
                 2.797    0.28490261071525
                0.5215   0.015194859206082
 s    8 1.00
                  6665  -0.00029326965268655
                  1000  -0.0023180354739745
                   228  -0.011499786038565
                 64.71  -0.046826727009787
                 21.06   -0.12846616875047
                 7.495   -0.30126627246289
                 2.797   -0.25563070233011
                0.5215      1.093793361012
 s    1 1.00
                0.1596                   1
 p    3 1.00
                 9.439   0.056979251590039
                 2.002    0.31320721150073
                0.5456    0.76037674173753
 p    1 1.00
                0.1517                   1
 d    1 1.00
                  0.55                   1

6 0
 s    8 1.00
                  6665  0.00069158396281299
                  1000  0.0053257961529341
                   228   0.027060721042034
                 64.71    0.10165684614077
                 21.06     0.2745748236174
                 7.495    0.44829431892377
                 2.797    0.28490261071525
                0.5215   0.015194859206082
 s    8 1.00
                  6665  -0.00029326965268655
                  1000  -0.0023180354739745
                   228  -0.011499786038565
                 64.71  -0.046826727009787
                 21.06   -0.12846616875047
                 7.495   -0.30126627246289
                 2.797   -0.25563070233011
                0.5215      1.093793361012
 s    1 1.00
                0.1596                   1
 p    3 1.00
                 9.439   0.056979251590039
                 2.002    0.31320721150073
                0.5456    0.76037674173753
 p    1 1.00
                0.1517                   1
 d    1 1.00
                  0.55                   1

7 0
 s    8 1.00
                  6665  0.00069158396281299
                  1000  0.0053257961529341
                   228   0.027060721042034
                 64.71    0.10165684614077
                 21.06     0.2745748236174
                 7.495    0.44829431892377
                 2.797    0.28490261071525
                0.5215   0.015194859206082
 s    8 1.00
                  6665  -0.00029326965268655
                  1000  -0.0023180354739745
                   228  -0.011499786038565
                 64.71  -0.046826727009787
                 21.06   -0.12846616875047
                 7.495   -0.30126627246289
                 2.797   -0.25563070233011
                0.5215      1.093793361012
 s    1 1.00
                0.1596                   1
 p    3 1.00
                 9.439   0.056979251590039
                 2.002    0.31320721150073
                0.5456    0.76037674173753
 p    1 1.00
                0.1517                   1
 d    1 1.00
                  0.55                   1

8 0
 s    3 1.00
                 13.01   0.033498726389998
                 1.962    0.23480080117413
                0.4446     0.8136829578829
 s    1 1.00
                 0.122                   1
 p    1 1.00
                 0.727                   1

9 0
 s    8 1.00
                  6665  0.00069158396281299
                  1000  0.0053257961529341
                   228   0.027060721042034
                 64.71    0.10165684614077
                 21.06     0.2745748236174
                 7.495    0.44829431892377
                 2.797    0.28490261071525
                0.5215   0.015194859206082
 s    8 1.00
                  6665  -0.00029326965268655
                  1000  -0.0023180354739745
                   228  -0.011499786038565
                 64.71  -0.046826727009787
                 21.06   -0.12846616875047
                 7.495   -0.30126627246289
                 2.797   -0.25563070233011
                0.5215      1.093793361012
 s    1 1.00
                0.1596                   1
 p    3 1.00
                 9.439   0.056979251590039
                 2.002    0.31320721150073
                0.5456    0.76037674173753
 p    1 1.00
                0.1517                   1
 d    1 1.00
                  0.55                   1

10 0
 s    3 1.00
                 13.01   0.033498726389998
                 1.962    0.23480080117413
                0.4446     0.8136829578829
 s    1 1.00
                 0.122                   1
 p    1 1.00
                 0.727                   1

11 0
 s    3 1.00
                 13.01   0.033498726389998
                 1.962    0.23480080117413
                0.4446     0.8136829578829
 s    1 1.00
                 0.122                   1
 p    1 1.00
                 0.727                   1

12 0
 s    3 1.00
                 13.01   0.033498726389998
                 1.962    0.23480080117413
                0.4446     0.8136829578829
 s    1 1.00
                 0.122                   1
 p    1 1.00
                 0.727                   1

13 0
 s    8 1.00
                  6665  0.00069158396281299
                  1000  0.0053257961529341
                   228   0.027060721042034
                 64.71    0.10165684614077
                 21.06     0.2745748236174
                 7.495    0.44829431892377
                 2.797    0.28490261071525
                0.5215   0.015194859206082
 s    8 1.00
                  6665  -0.00029326965268655
                  1000  -0.0023180354739745
                   228  -0.011499786038565
                 64.71  -0.046826727009787
                 21.06   -0.12846616875047
                 7.495   -0.30126627246289
                 2.797   -0.25563070233011
                0.5215      1.093793361012
 s    1 1.00
                0.1596                   1
 p    3 1.00
                 9.439   0.056979251590039
                 2.002    0.31320721150073
                0.5456    0.76037674173753
 p    1 1.00
                0.1517                   1
 d    1 1.00
                  0.55                   1

14 0
 s    3 1.00
                 13.01   0.033498726389998
                 1.962    0.23480080117413
                0.4446     0.8136829578829
 s    1 1.00
                 0.122                   1
 p    1 1.00
                 0.727                   1

15 0
 s    3 1.00
                 13.01   0.033498726389998
                 1.962    0.23480080117413
                0.4446     0.8136829578829
 s    1 1.00
                 0.122                   1
 p    1 1.00
                 0.727                   1

16 0
 s    8 1.00
                  6665  0.00069158396281299
                  1000  0.0053257961529341
                   228   0.027060721042034
                 64.71    0.10165684614077
                 21.06     0.2745748236174
                 7.495    0.44829431892377
                 2.797    0.28490261071525
                0.5215   0.015194859206082
 s    8 1.00
                  6665  -0.00029326965268655
                  1000  -0.0023180354739745
                   228  -0.011499786038565
                 64.71  -0.046826727009787
                 21.06   -0.12846616875047
                 7.495   -0.30126627246289
                 2.797   -0.25563070233011
                0.5215      1.093793361012
 s    1 1.00
                0.1596                   1
 p    3 1.00
                 9.439   0.056979251590039
                 2.002    0.31320721150073
                0.5456    0.76037674173753
 p    1 1.00
                0.1517                   1
 d    1 1.00
                  0.55                   1

17 0
 s    3 1.00
                 13.01   0.033498726389998
                 1.962    0.23480080117413
                0.4446     0.8136829578829
 s    1 1.00
                 0.122                   1
 p    1 1.00
                 0.727                   1

18 0
 s    3 1.00
                 13.01   0.033498726389998
                 1.962    0.23480080117413
                0.4446     0.8136829578829
 s    1 1.00
                 0.122                   1
 p    1 1.00
                 0.727                   1

19 0
 s    8 1.00
                  6665  0.00069158396281299
                  1000  0.0053257961529341
                   228   0.027060721042034
                 64.71    0.10165684614077
                 21.06     0.2745748236174
                 7.495    0.44829431892377
                 2.797    0.28490261071525
                0.5215   0.015194859206082
 s    8 1.00
                  6665  -0.00029326965268655
                  1000  -0.0023180354739745
                   228  -0.011499786038565
                 64.71  -0.046826727009787
                 21.06   -0.12846616875047
                 7.495   -0.30126627246289
                 2.797   -0.25563070233011
                0.5215      1.093793361012
 s    1 1.00
                0.1596                   1
 p    3 1.00
                 9.439   0.056979251590039
                 2.002    0.31320721150073
                0.5456    0.76037674173753
 p    1 1.00
                0.1517                   1
 d    1 1.00
                  0.55                   1

20 0
 s    3 1.00
                 13.01   0.033498726389998
                 1.962    0.23480080117413
                0.4446     0.8136829578829
 s    1 1.00
                 0.122                   1
 p    1 1.00
                 0.727                   1

21 0
 s    8 1.00
                  6665  0.00069158396281299
                  1000  0.0053257961529341
                   228   0.027060721042034
                 64.71    0.10165684614077
                 21.06     0.2745748236174
                 7.495    0.44829431892377
                 2.797    0.28490261071525
                0.5215   0.015194859206082
 s    8 1.00
                  6665  -0.00029326965268655
                  1000  -0.0023180354739745
                   228  -0.011499786038565
                 64.71  -0.046826727009787
                 21.06   -0.12846616875047
                 7.495   -0.30126627246289
                 2.797   -0.25563070233011
                0.5215      1.093793361012
 s    1 1.00
                0.1596                   1
 p    3 1.00
                 9.439   0.056979251590039
                 2.002    0.31320721150073
                0.5456    0.76037674173753
 p    1 1.00
                0.1517                   1
 d    1 1.00
                  0.55                   1

22 0
 s    3 1.00
                 13.01   0.033498726389998
                 1.962    0.23480080117413
                0.4446     0.8136829578829
 s    1 1.00
                 0.122                   1
 p    1 1.00
                 0.727                   1

23 0
 s    3 1.00
                 13.01   0.033498726389998
                 1.962    0.23480080117413
                0.4446     0.8136829578829
 s    1 1.00
                 0.122                   1
 p    1 1.00
                 0.727                   1

24 0
 s    3 1.00
                 13.01   0.033498726389998
                 1.962    0.23480080117413
                0.4446     0.8136829578829
 s    1 1.00
                 0.122                   1
 p    1 1.00
                 0.727                   1

25 0
 s    8 1.00
                  6665  0.00069158396281299
                  1000  0.0053257961529341
                   228   0.027060721042034
                 64.71    0.10165684614077
                 21.06     0.2745748236174
                 7.495    0.44829431892377
                 2.797    0.28490261071525
                0.5215   0.015194859206082
 s    8 1.00
                  6665  -0.00029326965268655
                  1000  -0.0023180354739745
                   228  -0.011499786038565
                 64.71  -0.046826727009787
                 21.06   -0.12846616875047
                 7.495   -0.30126627246289
                 2.797   -0.25563070233011
                0.5215      1.093793361012
 s    1 1.00
                0.1596                   1
 p    3 1.00
                 9.439   0.056979251590039
                 2.002    0.31320721150073
                0.5456    0.76037674173753
 p    1 1.00
                0.1517                   1
 d    1 1.00
                  0.55                   1

26 0
 s    3 1.00
                 13.01   0.033498726389998
                 1.962    0.23480080117413
                0.4446     0.8136829578829
 s    1 1.00
                 0.122                   1
 p    1 1.00
                 0.727                   1

27 0
 s    3 1.00
                 13.01   0.033498726389998
                 1.962    0.23480080117413
                0.4446     0.8136829578829
 s    1 1.00
                 0.122                   1
 p    1 1.00
                 0.727                   1

28 0
 s    8 1.00
                  6665  0.00069158396281299
                  1000  0.0053257961529341
                   228   0.027060721042034
                 64.71    0.10165684614077
                 21.06     0.2745748236174
                 7.495    0.44829431892377
                 2.797    0.28490261071525
                0.5215   0.015194859206082
 s    8 1.00
                  6665  -0.00029326965268655
                  1000  -0.0023180354739745
                   228  -0.011499786038565
                 64.71  -0.046826727009787
                 21.06   -0.12846616875047
                 7.495   -0.30126627246289
                 2.797   -0.25563070233011
                0.5215      1.093793361012
 s    1 1.00
                0.1596                   1
 p    3 1.00
                 9.439   0.056979251590039
                 2.002    0.31320721150073
                0.5456    0.76037674173753
 p    1 1.00
                0.1517                   1
 d    1 1.00
                  0.55                   1

29 0
 s    3 1.00
                 13.01   0.033498726389998
                 1.962    0.23480080117413
                0.4446     0.8136829578829
 s    1 1.00
                 0.122                   1
 p    1 1.00
                 0.727                   1

30 0
 s    3 1.00
                 13.01   0.033498726389998
                 1.962    0.23480080117413
                0.4446     0.8136829578829
 s    1 1.00
                 0.122                   1
 p    1 1.00
                 0.727                   1

31 0
 s    8 1.00
                  6665  0.00069158396281299
                  1000  0.0053257961529341
                   228   0.027060721042034
                 64.71    0.10165684614077
                 21.06     0.2745748236174
                 7.495    0.44829431892377
                 2.797    0.28490261071525
                0.5215   0.015194859206082
 s    8 1.00
                  6665  -0.00029326965268655
                  1000  -0.0023180354739745
                   228  -0.011499786038565
                 64.71  -0.046826727009787
                 21.06   -0.12846616875047
                 7.495   -0.30126627246289
                 2.797   -0.25563070233011
                0.5215      1.093793361012
 s    1 1.00
                0.1596                   1
 p    3 1.00
                 9.439   0.056979251590039
                 2.002    0.31320721150073
                0.5456    0.76037674173753
 p    1 1.00
                0.1517                   1
 d    1 1.00
                  0.55                   1

32 0
 s    3 1.00
                 13.01   0.033498726389998
                 1.962    0.23480080117413
                0.4446     0.8136829578829
 s    1 1.00
                 0.122                   1
 p    1 1.00
                 0.727                   1

33 0
 s    3 1.00
                 13.01   0.033498726389998
                 1.962    0.23480080117413
                0.4446     0.8136829578829
 s    1 1.00
                 0.122                   1
 p    1 1.00
                 0.727                   1

34 0
 s    3 1.00
                 13.01   0.033498726389998
                 1.962    0.23480080117413
                0.4446     0.8136829578829
 s    1 1.00
                 0.122                   1
 p    1 1.00
                 0.727                   1

35 0
 s    3 1.00
                 13.01   0.033498726389998
                 1.962    0.23480080117413
                0.4446     0.8136829578829
 s    1 1.00
                 0.122                   1
 p    1 1.00
                 0.727                   1

36 0
 s    3 1.00
                 13.01   0.033498726389998
                 1.962    0.23480080117413
                0.4446     0.8136829578829
 s    1 1.00
                 0.122                   1
 p    1 1.00
                 0.727                   1

37 0
 s    3 1.00
                 13.01   0.033498726389998
                 1.962    0.23480080117413
                0.4446     0.8136829578829
 s    1 1.00
                 0.122                   1
 p    1 1.00
                 0.727                   1

[5d]
[7f]
[9g]

[MO]
 Sym= A
 Ene=               0
 Spin= Alpha
 Occup=    1.00000
   1    -1.1756843024637e-07
   2    4.1427773327367e-06
   3    1.2440452703098e-05
   4    -6.7371859717737e-06
   5    -1.1570639897605e-06
   6    -1.9231921593417e-05
   7    -4.954190734022e-06
   8    -2.4628859601233e-07
   9    -1.6505207378406e-05
  10    1.0056424598712e-06
  11    -1.0395952945408e-06
  12    4.8205984513273e-08
  13    -9.6373172391875e-08
  14    -1.5116595222511e-07
  15    3.8452193602047e-06
  16    -4.7016291803338e-06
  17    -4.1363695862728e-06
  18    3.0522263112681e-09
  19    -1.5510969402306e-06
  20    -3.0663407701283e-06
  21    -5.563327669557e-06
  22    -5.1976997993082e-07
  23    6.8707377174856e-07
  24    1.9643472611113e-07
  25    5.3044389459382e-07
  26    1.0441884259707e-05
  27    -7.7805519359833e-06
  28    2.9990485298776e-05
  29    -7.2802140689552e-05
  30    -8.3029754925832e-05
  31    0.00011097966340695
  32    -0.00010275832145123
  33    -9.2707356830266e-05
  34    3.8961691134294e-06
  35    2.4154547998505e-06
  36    -8.4819205624159e-07
  37    1.2555083661898e-06
  38    1.0218466251329e-06
  39    4.788878337675e-05
  40    5.997185943201e-06
  41    -0.00087893299711842
  42    -0.00014172840576333
  43    0.00013397709578872
  44    0.00011742348569487
  45    -0.00048623297406432
  46    0.0002850045927787
  47    0.00033337027399668
  48    8.9283602937052e-06
  49    3.5018206565439e-05
  50    -2.4967328140631e-05
  51    -1.0010685458382e-05
  52    3.3646498557127e-05
  53    -2.6448110374049e-05
  54    6.6728593713158e-05
  55    0.00065007015729559
  56    0.00021069500771407
  57    5.5383853867008e-05
  58    -0.00023280908859776
  59    -0.00029107748401337
  60    0.00021331932117745
  61     0.000196086476536
  62    -6.5015541210165e-06
  63    1.950355035225e-05
  64    1.3188263125242e-06
  65    -2.4060984581107e-05
  66    -5.4017949949703e-06
  67    -7.3345283436817e-06
  68    -1.1206795078915e-05
  69    0.00023293165611647
  70    3.2507772003998e-05
  71    -7.6857649111894e-05
  72    4.3689817352113e-05
  73    -0.00016052537110637
  74    1.1691851137894e-05
  75    0.00011251264032737
  76    -1.1461465378504e-06
  77    -1.6303138453054e-05
  78    2.1680454938579e-06
  79    1.6810024637539e-05
  80    8.3999215500173e-07
  81    6.6386707511224e-05
  82    1.8800883124544e-05
  83    1.9513835106566e-05
  84    -5.1571253961311e-06
  85    -2.1426001296702e-05
  86    9.8533839463427e-05
  87    -0.00020890646900958
  88    -0.0017177506246937
  89    -0.00089693513399244
  90    0.00049553739880764
  91    0.0005904754039422
  92    -0.0011620982398371
  93    0.00059157484075996
  94    0.00078325656278098
  95    1.8929818350082e-05
  96    8.0713841096137e-05
  97    -7.4972805438641e-05
  98    -5.9253769900405e-05
  99    9.8962031747062e-05
 100    7.246615614033e-05
 101    1.3305669346402e-05
 102    2.9780461989234e-05
 103    -4.6613378576239e-06
 104    -2.0818177319974e-05
 105    -7.8562121558373e-07
 106    5.924509187798e-06
 107    1.7166805305384e-05
 108    -4.5231356000448e-06
 109    -4.3372414217899e-08
 110    -2.3953330506749e-05
 111    -5.8616548163875e-05
 112    5.678429133312e-06
 113    4.4672199433995e-06
 114    -2.5092127409902e-06
 115    1.2019264439408e-05
 116    0.00012993040106493
 117    -0.00018233681072161
 118    -0.00010710347326917
 119    -0.00017770705986552
 120    6.882900244003e-05
 121    -0.00027229107885866
 122    7.3168129407248e-05
 123    8.5741978000873e-05
 124    -3.3906135476326e-06
 125    1.0405913403783e-05
 126    -1.3580104964192e-05
 127    -1.2287104744149e-05
 128    1.3288127681243e-05
 129    0.0001996156313925
 130    0.00010472259675561
 131    2.3410021118304e-06
 132    2.1238027578457e-06
 133    -4.6976883240919e-06
 134    0.00019469378251114
 135    0.00014245679268594
 136    1.9329943565369e-06
 137    2.7167103913901e-06
 138    3.326637200104e-06
 139    9.4080999819551e-05
 140    -0.00029592762331092
 141    5.1301294540811e-05
 142    0.0008476956557572
 143    -0.00083192591892692
 144    -0.0004035682915732
 145    -0.00082382153471936
 146    0.00010655765753629
 147    0.00069633243287732
 148    1.8076328288898e-05
 149    0.00012873449861272
 150    2.6404887821732e-05
 151    -1.1418717718193e-05
 152    3.0342335581594e-05
 153    -3.2433890642288e-05
 154    -6.5004314676119e-05
 155    3.5888554385865e-06
 156    -7.4408962074956e-06
 157    5.6685502796328e-06
 158    0.00025045013322224
 159    6.8896680887014e-05
 160    1.4124630219004e-05
 161    7.2754331848284e-06
 162    -1.0321963213576e-05
 163    -0.0026908809824413
 164    -6.4315610408992e-06
 165    8.2582984476693e-06
 166    -1.985416233482e-05
 167    -2.4223306282254e-05
 168    8.6831537380258e-06
 169    -7.4499875479859e-05
 170    6.159536332995e-06
 171    8.585827606913e-06
 172    2.1072607104592e-07
 173    -1.9614608899064e-06
 174    -4.5028808229306e-06
 175    -7.7737882268092e-06
 176    -2.9724016801025e-06
 177    0.0003395119236441
 178    0.00039180184207253
 179    8.1921111268002e-05
 180    -4.4617246631114e-05
 181    -0.00010340064197878
 182      0.10336499146696
 183    0.00039875911184052
 184    -0.0028420611275237
 185    2.0563012518131e-06
 186    8.2898437217106e-06
 187    -4.2161103896874e-06
 188    -0.0011172775864504
 189    0.00044128338347417
 190    0.00078962293218326
 191    -5.3360779964998e-05
 192    -7.9279084537732e-05
 193    2.1797758121187e-05
 194    -1.6167296491278e-05
 195    -9.9203571670552e-05
 196    0.00032251122406189
 197    0.00040549883595702
 198    0.00012672602257141
 199    -2.5163456982246e-05
 200    -5.1227359179669e-05
 201    8.1023121186275e-06
 202    -1.5822942782845e-05
 203    1.2282196834095e-06
 204     1.94855864771e-06
 205    2.2496111572505e-06
 206    -1.075955933197e-05
 207    3.4439501425076e-05
 208    8.5613832964637e-07
 209    -2.8384673229547e-06
 210    1.6025274283308e-06
 211     0.013850090834933
 212    8.221826114591e-05
 213    -0.00018471241064474
 214    2.5716204124519e-06
 215    -6.8873138095536e-06
 216    5.7963940868524e-06
 217    -7.7776099638715e-05
 218    4.9226889797912e-05
 219    -3.7189968815518e-06
 220    1.5167946200606e-06
 221    2.0094658593709e-06
 222    -1.3251364525721e-06
 223    -3.8007184214278e-06
 224    4.6141035665044e-06
 225    8.9367306928989e-05
 226    4.9270076652506e-05
 227    -5.4573336768325e-06
 228    7.8317961594365e-05
 229    4.6196215177043e-05
 230    9.0132135239042e-05
 231    3.5888412696475e-05
 232    -7.076906620225e-05
 233    5.0597291020067e-05
 234    -3.075127786743e-05
 235     -0.99698315187602
 236    -0.0048649514584426
 237    0.0099260071160089
 238    -0.00012293352374477
 239    0.00011906772807443
 240    6.7439954904686e-05
 241    -0.00099571895838438
 242    0.00023177047921598
 243    0.00076582220532579
 244    -4.368705001408e-05
 245    -0.00011788447131376
 246    8.4137704415834e-05
 247    5.2944134537948e-05
 248    -0.00013930805793391
 249    8.794264505666e-06
 250    1.8344069076001e-05
 251    4.8052196594721e-06
 252    1.1722766811134e-06
 253    5.2937265022851e-06
 254    1.346660919862e-05
 255    2.2083012087093e-05
 256    6.5137773323384e-07
 257    -6.2117609634215e-06
 258    3.8598529502268e-06
 259    0.00079339769481368
 260    1.0402256481365e-05
 261    -3.3397198733662e-05
 262    3.8228504768134e-07
 263    -1.4257118072088e-07