[Molden Format]
made by pyscf v[2.0.1]
[Atoms] (AU)
O   1   8     0.00000000000000     0.00000000000000     9.42996968581551
H   2   1     0.00000000000000     0.00000000000000     7.60656786391454
H   3   1    -0.05031916615174     1.78353065140343     9.80584138228218
O   4   8     0.00000000000000     0.00000000000000     2.31533471513237
C   5   6     0.00000000000000     0.00000000000000     0.00000000000000
C   6   6     2.01118073026938    -1.40227222164369    -1.50774939176400
C   7   6    -2.01249334291722     1.41331050329955    -1.50315905028694
H   8   1     3.32037363730244    -2.26721897153159    -0.13599698591495
C   9   6     3.45899267434009     0.28739631745591    -3.37437943254505
H   10   1     1.07662969841332    -2.94725144642667    -2.56541439481080
H   11   1    -2.67503415753480     0.18421555839588    -3.06194479365997
H   12   1    -1.07974048864772     3.03851734677796    -2.43674295017013
C   13   6    -4.21607110578555     2.32938802552922     0.11994162256091
H   14   1     4.24440173074564     1.93368664142019    -2.34976285512790
H   15   1     2.15020713235517     1.04714335134846    -4.81494497423699
C   16   6     5.60746363007797    -1.12419643481196    -4.70268606082550
H   17   1    -3.46838323670267     3.50951302338067     1.66946842715333
H   18   1    -5.11873485366228     0.68575958301209     1.04047743976495
C   19   6    -6.18314754751344     3.80909592987882    -1.39656589068747
H   20   1     6.93011263717176    -1.87550812453645    -3.26656317360070
C   21   6     7.06356622236532     0.52877932406334    -6.57829775293605
H   22   1     4.82318879258361    -2.78573437948532    -5.70504560381835
H   23   1    -6.91582688743803     2.61304780074712    -2.95074552451969
H   24   1    -5.26532430573853     5.45420349051338    -2.31005832200284
C   25   6    -8.39941882261433     4.73263980500213     0.21800571437956
H   26   1     7.83338371486801     2.19084139882824    -5.57093109900697
H   27   1     5.73544244039420     1.27376866537418    -8.01071492370229
C   28   6     9.21124858443101    -0.89699110072176    -7.88926949186242
H   29   1    -7.66272760055236     5.92277078003992     1.77035591474408
H   30   1    -9.31497248082589     3.08753015622020     1.12614408368786
C   31   6   -10.35481709231879     6.21833079391143    -1.30905206253246
H   32   1    10.58815905329501    -1.61074586756696    -6.49512691622620
H   33   1    10.23506248045667     0.32468009384095    -9.23072870921204
H   34   1     8.47665842847139    -2.53598436989925    -8.94921964622535
H   35   1    -9.48948872868064     7.90013588951020    -2.18823918416067
H   36   1   -11.93332513000955     6.86460487874102    -0.11255798845995
H   37   1   -11.15126291841033     5.04495968327630    -2.83849898862534
[GTO]
1 0
 s    8 1.00
                 11720  0.00070964594651845
                  1759  0.0054672722921914
                 400.8   0.027823118610189
                 113.7    0.10474773971146
                 37.03    0.28292084635691
                 13.27    0.44849523869833
                 5.025    0.27081688521277
                 1.013    0.01545029160744
 s    8 1.00
                 11720  -0.00031444341168873
                  1759  -0.0024821376810179
                 400.8  -0.012316355381583
                 113.7  -0.050538917343672
                 37.03   -0.13938490331632
                 13.27   -0.32507749481778
                 5.025   -0.22984830758785
                 1.013     1.0953793467883
 s    1 1.00
                0.3023                   1
 p    3 1.00
                  17.7   0.062679166281506
                 3.854    0.33353656587936
                 1.046    0.74123964163973
 p    1 1.00
                0.2753                   1
 d    1 1.00
                 1.185                   1

2 0
 s    3 1.00
                 13.01   0.033498726389998
                 1.962    0.23480080117413
                0.4446     0.8136829578829
 s    1 1.00
                 0.122                   1
 p    1 1.00
                 0.727                   1

3 0
 s    3 1.00
                 13.01   0.033498726389998
                 1.962    0.23480080117413
                0.4446     0.8136829578829
 s    1 1.00
                 0.122                   1
 p    1 1.00
                 0.727                   1

4 0
 s    8 1.00
                 11720  0.00070964594651845
                  1759  0.0054672722921914
                 400.8   0.027823118610189
                 113.7    0.10474773971146
                 37.03    0.28292084635691
                 13.27    0.44849523869833
                 5.025    0.27081688521277
                 1.013    0.01545029160744
 s    8 1.00
                 11720  -0.00031444341168873
                  1759  -0.0024821376810179
                 400.8  -0.012316355381583
                 113.7  -0.050538917343672
                 37.03   -0.13938490331632
                 13.27   -0.32507749481778
                 5.025   -0.22984830758785
                 1.013     1.0953793467883
 s    1 1.00
                0.3023                   1
 p    3 1.00
                  17.7   0.062679166281506
                 3.854    0.33353656587936
                 1.046    0.74123964163973
 p    1 1.00
                0.2753                   1
 d    1 1.00
                 1.185                   1

5 0
 s    8 1.00
                  6665  0.00069158396281299
                  1000  0.0053257961529341
                   228   0.027060721042034
                 64.71    0.10165684614077
                 21.06     0.2745748236174
                 7.495    0.44829431892377
                 2.797    0.28490261071525
                0.5215   0.015194859206082
 s    8 1.00
                  6665  -0.00029326965268655
                  1000  -0.0023180354739745
                   228  -0.011499786038565
                 64.71  -0.046826727009787
                 21.06   -0.12846616875047
                 7.495   -0.30126627246289
                 2.797   -0.25563070233011
                0.5215      1.093793361012
 s    1 1.00
                0.1596                   1
 p    3 1.00
                 9.439   0.056979251590039
                 2.002    0.31320721150073
                0.5456    0.76037674173753
 p    1 1.00
                0.1517                   1
 d    1 1.00
                  0.55                   1

6 0
 s    8 1.00
                  6665  0.00069158396281299
                  1000  0.0053257961529341
                   228   0.027060721042034
                 64.71    0.10165684614077
                 21.06     0.2745748236174
                 7.495    0.44829431892377
                 2.797    0.28490261071525
                0.5215   0.015194859206082
 s    8 1.00
                  6665  -0.00029326965268655
                  1000  -0.0023180354739745
                   228  -0.011499786038565
                 64.71  -0.046826727009787
                 21.06   -0.12846616875047
                 7.495   -0.30126627246289
                 2.797   -0.25563070233011
                0.5215      1.093793361012
 s    1 1.00
                0.1596                   1
 p    3 1.00
                 9.439   0.056979251590039
                 2.002    0.31320721150073
                0.5456    0.76037674173753
 p    1 1.00
                0.1517                   1
 d    1 1.00
                  0.55                   1

7 0
 s    8 1.00
                  6665  0.00069158396281299
                  1000  0.0053257961529341
                   228   0.027060721042034
                 64.71    0.10165684614077
                 21.06     0.2745748236174
                 7.495    0.44829431892377
                 2.797    0.28490261071525
                0.5215   0.015194859206082
 s    8 1.00
                  6665  -0.00029326965268655
                  1000  -0.0023180354739745
                   228  -0.011499786038565
                 64.71  -0.046826727009787
                 21.06   -0.12846616875047
                 7.495   -0.30126627246289
                 2.797   -0.25563070233011
                0.5215      1.093793361012
 s    1 1.00
                0.1596                   1
 p    3 1.00
                 9.439   0.056979251590039
                 2.002    0.31320721150073
                0.5456    0.76037674173753
 p    1 1.00
                0.1517                   1
 d    1 1.00
                  0.55                   1

8 0
 s    3 1.00
                 13.01   0.033498726389998
                 1.962    0.23480080117413
                0.4446     0.8136829578829
 s    1 1.00
                 0.122                   1
 p    1 1.00
                 0.727                   1

9 0
 s    8 1.00
                  6665  0.00069158396281299
                  1000  0.0053257961529341
                   228   0.027060721042034
                 64.71    0.10165684614077
                 21.06     0.2745748236174
                 7.495    0.44829431892377
                 2.797    0.28490261071525
                0.5215   0.015194859206082
 s    8 1.00
                  6665  -0.00029326965268655
                  1000  -0.0023180354739745
                   228  -0.011499786038565
                 64.71  -0.046826727009787
                 21.06   -0.12846616875047
                 7.495   -0.30126627246289
                 2.797   -0.25563070233011
                0.5215      1.093793361012
 s    1 1.00
                0.1596                   1
 p    3 1.00
                 9.439   0.056979251590039
                 2.002    0.31320721150073
                0.5456    0.76037674173753
 p    1 1.00
                0.1517                   1
 d    1 1.00
                  0.55                   1

10 0
 s    3 1.00
                 13.01   0.033498726389998
                 1.962    0.23480080117413
                0.4446     0.8136829578829
 s    1 1.00
                 0.122                   1
 p    1 1.00
                 0.727                   1

11 0
 s    3 1.00
                 13.01   0.033498726389998
                 1.962    0.23480080117413
                0.4446     0.8136829578829
 s    1 1.00
                 0.122                   1
 p    1 1.00
                 0.727                   1

12 0
 s    3 1.00
                 13.01   0.033498726389998
                 1.962    0.23480080117413
                0.4446     0.8136829578829
 s    1 1.00
                 0.122                   1
 p    1 1.00
                 0.727                   1

13 0
 s    8 1.00
                  6665  0.00069158396281299
                  1000  0.0053257961529341
                   228   0.027060721042034
                 64.71    0.10165684614077
                 21.06     0.2745748236174
                 7.495    0.44829431892377
                 2.797    0.28490261071525
                0.5215   0.015194859206082
 s    8 1.00
                  6665  -0.00029326965268655
                  1000  -0.0023180354739745
                   228  -0.011499786038565
                 64.71  -0.046826727009787
                 21.06   -0.12846616875047
                 7.495   -0.30126627246289
                 2.797   -0.25563070233011
                0.5215      1.093793361012
 s    1 1.00
                0.1596                   1
 p    3 1.00
                 9.439   0.056979251590039
                 2.002    0.31320721150073
                0.5456    0.76037674173753
 p    1 1.00
                0.1517                   1
 d    1 1.00
                  0.55                   1

14 0
 s    3 1.00
                 13.01   0.033498726389998
                 1.962    0.23480080117413
                0.4446     0.8136829578829
 s    1 1.00
                 0.122                   1
 p    1 1.00
                 0.727                   1

15 0
 s    3 1.00
                 13.01   0.033498726389998
                 1.962    0.23480080117413
                0.4446     0.8136829578829
 s    1 1.00
                 0.122                   1
 p    1 1.00
                 0.727                   1

16 0
 s    8 1.00
                  6665  0.00069158396281299
                  1000  0.0053257961529341
                   228   0.027060721042034
                 64.71    0.10165684614077
                 21.06     0.2745748236174
                 7.495    0.44829431892377
                 2.797    0.28490261071525
                0.5215   0.015194859206082
 s    8 1.00
                  6665  -0.00029326965268655
                  1000  -0.0023180354739745
                   228  -0.011499786038565
                 64.71  -0.046826727009787
                 21.06   -0.12846616875047
                 7.495   -0.30126627246289
                 2.797   -0.25563070233011
                0.5215      1.093793361012
 s    1 1.00
                0.1596                   1
 p    3 1.00
                 9.439   0.056979251590039
                 2.002    0.31320721150073
                0.5456    0.76037674173753
 p    1 1.00
                0.1517                   1
 d    1 1.00
                  0.55                   1

17 0
 s    3 1.00
                 13.01   0.033498726389998
                 1.962    0.23480080117413
                0.4446     0.8136829578829
 s    1 1.00
                 0.122                   1
 p    1 1.00
                 0.727                   1

18 0
 s    3 1.00
                 13.01   0.033498726389998
                 1.962    0.23480080117413
                0.4446     0.8136829578829
 s    1 1.00
                 0.122                   1
 p    1 1.00
                 0.727                   1

19 0
 s    8 1.00
                  6665  0.00069158396281299
                  1000  0.0053257961529341
                   228   0.027060721042034
                 64.71    0.10165684614077
                 21.06     0.2745748236174
                 7.495    0.44829431892377
                 2.797    0.28490261071525
                0.5215   0.015194859206082
 s    8 1.00
                  6665  -0.00029326965268655
                  1000  -0.0023180354739745
                   228  -0.011499786038565
                 64.71  -0.046826727009787
                 21.06   -0.12846616875047
                 7.495   -0.30126627246289
                 2.797   -0.25563070233011
                0.5215      1.093793361012
 s    1 1.00
                0.1596                   1
 p    3 1.00
                 9.439   0.056979251590039
                 2.002    0.31320721150073
                0.5456    0.76037674173753
 p    1 1.00
                0.1517                   1
 d    1 1.00
                  0.55                   1

20 0
 s    3 1.00
                 13.01   0.033498726389998
                 1.962    0.23480080117413
                0.4446     0.8136829578829
 s    1 1.00
                 0.122                   1
 p    1 1.00
                 0.727                   1

21 0
 s    8 1.00
                  6665  0.00069158396281299
                  1000  0.0053257961529341
                   228   0.027060721042034
                 64.71    0.10165684614077
                 21.06     0.2745748236174
                 7.495    0.44829431892377
                 2.797    0.28490261071525
                0.5215   0.015194859206082
 s    8 1.00
                  6665  -0.00029326965268655
                  1000  -0.0023180354739745
                   228  -0.011499786038565
                 64.71  -0.046826727009787
                 21.06   -0.12846616875047
                 7.495   -0.30126627246289
                 2.797   -0.25563070233011
                0.5215      1.093793361012
 s    1 1.00
                0.1596                   1
 p    3 1.00
                 9.439   0.056979251590039
                 2.002    0.31320721150073
                0.5456    0.76037674173753
 p    1 1.00
                0.1517                   1
 d    1 1.00
                  0.55                   1

22 0
 s    3 1.00
                 13.01   0.033498726389998
                 1.962    0.23480080117413
                0.4446     0.8136829578829
 s    1 1.00
                 0.122                   1
 p    1 1.00
                 0.727                   1

23 0
 s    3 1.00
                 13.01   0.033498726389998
                 1.962    0.23480080117413
                0.4446     0.8136829578829
 s    1 1.00
                 0.122                   1
 p    1 1.00
                 0.727                   1

24 0
 s    3 1.00
                 13.01   0.033498726389998
                 1.962    0.23480080117413
                0.4446     0.8136829578829
 s    1 1.00
                 0.122                   1
 p    1 1.00
                 0.727                   1

25 0
 s    8 1.00
                  6665  0.00069158396281299
                  1000  0.0053257961529341
                   228   0.027060721042034
                 64.71    0.10165684614077
                 21.06     0.2745748236174
                 7.495    0.44829431892377
                 2.797    0.28490261071525
                0.5215   0.015194859206082
 s    8 1.00
                  6665  -0.00029326965268655
                  1000  -0.0023180354739745
                   228  -0.011499786038565
                 64.71  -0.046826727009787
                 21.06   -0.12846616875047
                 7.495   -0.30126627246289
                 2.797   -0.25563070233011
                0.5215      1.093793361012
 s    1 1.00
                0.1596                   1
 p    3 1.00
                 9.439   0.056979251590039
                 2.002    0.31320721150073
                0.5456    0.76037674173753
 p    1 1.00
                0.1517                   1
 d    1 1.00
                  0.55                   1

26 0
 s    3 1.00
                 13.01   0.033498726389998
                 1.962    0.23480080117413
                0.4446     0.8136829578829
 s    1 1.00
                 0.122                   1
 p    1 1.00
                 0.727                   1

27 0
 s    3 1.00
                 13.01   0.033498726389998
                 1.962    0.23480080117413
                0.4446     0.8136829578829
 s    1 1.00
                 0.122                   1
 p    1 1.00
                 0.727                   1

28 0
 s    8 1.00
                  6665  0.00069158396281299
                  1000  0.0053257961529341
                   228   0.027060721042034
                 64.71    0.10165684614077
                 21.06     0.2745748236174
                 7.495    0.44829431892377
                 2.797    0.28490261071525
                0.5215   0.015194859206082
 s    8 1.00
                  6665  -0.00029326965268655
                  1000  -0.0023180354739745
                   228  -0.011499786038565
                 64.71  -0.046826727009787
                 21.06   -0.12846616875047
                 7.495   -0.30126627246289
                 2.797   -0.25563070233011
                0.5215      1.093793361012
 s    1 1.00
                0.1596                   1
 p    3 1.00
                 9.439   0.056979251590039
                 2.002    0.31320721150073
                0.5456    0.76037674173753
 p    1 1.00
                0.1517                   1
 d    1 1.00
                  0.55                   1

29 0
 s    3 1.00
                 13.01   0.033498726389998
                 1.962    0.23480080117413
                0.4446     0.8136829578829
 s    1 1.00
                 0.122                   1
 p    1 1.00
                 0.727                   1

30 0
 s    3 1.00
                 13.01   0.033498726389998
                 1.962    0.23480080117413
                0.4446     0.8136829578829
 s    1 1.00
                 0.122                   1
 p    1 1.00
                 0.727                   1

31 0
 s    8 1.00
                  6665  0.00069158396281299
                  1000  0.0053257961529341
                   228   0.027060721042034
                 64.71    0.10165684614077
                 21.06     0.2745748236174
                 7.495    0.44829431892377
                 2.797    0.28490261071525
                0.5215   0.015194859206082
 s    8 1.00
                  6665  -0.00029326965268655
                  1000  -0.0023180354739745
                   228  -0.011499786038565
                 64.71  -0.046826727009787
                 21.06   -0.12846616875047
                 7.495   -0.30126627246289
                 2.797   -0.25563070233011
                0.5215      1.093793361012
 s    1 1.00
                0.1596                   1
 p    3 1.00
                 9.439   0.056979251590039
                 2.002    0.31320721150073
                0.5456    0.76037674173753
 p    1 1.00
                0.1517                   1
 d    1 1.00
                  0.55                   1

32 0
 s    3 1.00
                 13.01   0.033498726389998
                 1.962    0.23480080117413
                0.4446     0.8136829578829
 s    1 1.00
                 0.122                   1
 p    1 1.00
                 0.727                   1

33 0
 s    3 1.00
                 13.01   0.033498726389998
                 1.962    0.23480080117413
                0.4446     0.8136829578829
 s    1 1.00
                 0.122                   1
 p    1 1.00
                 0.727                   1

34 0
 s    3 1.00
                 13.01   0.033498726389998
                 1.962    0.23480080117413
                0.4446     0.8136829578829
 s    1 1.00
                 0.122                   1
 p    1 1.00
                 0.727                   1

35 0
 s    3 1.00
                 13.01   0.033498726389998
                 1.962    0.23480080117413
                0.4446     0.8136829578829
 s    1 1.00
                 0.122                   1
 p    1 1.00
                 0.727                   1

36 0
 s    3 1.00
                 13.01   0.033498726389998
                 1.962    0.23480080117413
                0.4446     0.8136829578829
 s    1 1.00
                 0.122                   1
 p    1 1.00
                 0.727                   1

37 0
 s    3 1.00
                 13.01   0.033498726389998
                 1.962    0.23480080117413
                0.4446     0.8136829578829
 s    1 1.00
                 0.122                   1
 p    1 1.00
                 0.727                   1

[5d]
[7f]
[9g]

[MO]
 Sym= A
 Ene=               0
 Spin= Alpha
 Occup=    1.00000
   1    -3.8220562167967e-07
   2    -2.4580495180262e-07
   3    3.5520347460839e-06
   4    -1.3543202347414e-06
   5    2.5170454534411e-07
   6    -3.1055999384906e-06
   7    -1.0175224173952e-06
   8    -2.4816056484209e-07
   9    -3.693032243639e-06
  10    7.6755826450508e-08
  11    2.2684162325275e-08
  12    -7.6265933119174e-08
  13    8.3124884673431e-09
  14    -2.892552904566e-08
  15    1.3164510655138e-06
  16    -7.8280160596233e-06
  17    1.7919525732195e-08
  18    -1.0900671706224e-07
  19    5.0720036943528e-07
  20    -3.058012411929e-07
  21    1.1511502128806e-06
  22    -7.4577963059438e-08
  23    1.008650335128e-07
  24    -1.3946543858784e-07
  25    -1.2585422355714e-07
  26    1.9237771296029e-06
  27    -1.3995324908538e-05
  28    4.3150011942374e-05
  29    -7.8541909874982e-05
  30    -9.685448482526e-05
  31    0.00011664750538359
  32    -0.00010365544237665
  33    -9.7151925533983e-05
  34    6.1042794137633e-06
  35    1.6477363801771e-06
  36    -1.1103244078589e-07
  37    1.2148777564123e-06
  38    1.0229310508538e-06
  39    4.8694153765137e-05
  40    8.2052338995722e-06
  41    -0.00087097356937825
  42    -0.00013980807085464
  43    0.00013142200914022
  44    0.00012921337132662
  45    -0.00047412265314004
  46    0.00027346685553854
  47    0.00032467581619711
  48    8.4023627861011e-06
  49    3.6928065103791e-05
  50    -2.5933974136794e-05
  51    -9.9239979999092e-06
  52    3.3163482762563e-05
  53    -2.6085130095823e-05
  54    6.6263670735195e-05
  55    0.00062888317659227
  56    0.00021765854638391
  57     5.43147816452e-05
  58    -0.00023939938827762
  59    -0.0002779791028468
  60    0.00020567897564194
  61    0.00018797343735775
  62    -5.977807956085e-06
  63    1.955824723593e-05
  64    6.7081682613171e-07
  65    -2.4122334106632e-05
  66    -4.7853346633317e-06
  67    -8.2525852178409e-06
  68    -1.0118796436552e-05
  69    0.00025255585690283
  70    2.6504851380526e-05
  71    -7.3973097192508e-05
  72    4.7897591486335e-05
  73    -0.00016970120095532
  74    1.7248331365774e-05
  75    0.00012462534153305
  76    -4.1399307486976e-07
  77    -1.7276419407067e-05
  78    2.4414541081959e-06
  79    1.7099953889449e-05
  80    1.2912957367759e-06
  81    6.5584036951281e-05
  82    1.8554423125994e-05
  83    1.9616641638556e-05
  84    -5.074206221546e-06
  85    -2.1295092867092e-05
  86    9.9010691783595e-05
  87    -0.0002088667405478
  88    -0.0017109357400591
  89    -0.00090817036759849
  90    0.00049965205058179
  91    0.00059915180123397
  92    -0.0011680885199342
  93    0.00058779111317985
  94    0.00078724518921748
  95    1.9161817025593e-05
  96    8.1672738867773e-05
  97    -7.5607301960737e-05
  98    -6.0037353171553e-05
  99    9.9984031061358e-05
 100    7.3610864343559e-05
 101    1.4162082298233e-05
 102    2.9879404827086e-05
 103    -4.5472863336393e-06
 104    -2.0995130360805e-05
 105    -2.4483394555741e-06
 106    7.1505968511342e-06
 107    1.7374658636051e-05
 108    -4.6420656781571e-06
 109    -2.1130997397407e-07
 110    -2.4630882462132e-05
 111    -5.8442354775813e-05
 112    5.7739198284533e-06
 113    4.3991616252694e-06
 114    -2.6870994264323e-06
 115    1.1429352776292e-05
 116    0.00013385275151375
 117    -0.00018596795575779
 118    -0.00010389646264853
 119    -0.0001843731829933
 120    6.5896023054398e-05
 121    -0.00027811015808732
 122    7.4471069443936e-05
 123    9.030826103549e-05
 124    -3.2493208080461e-06
 125    9.9503979555007e-06
 126    -1.3686068670395e-05
 127    -1.1984106624782e-05
 128    1.3092891170979e-05
 129    0.0002038974751681
 130    0.00010853989420437
 131    2.0810102726379e-06
 132    2.2223453965059e-06
 133    -4.6759534856494e-06
 134    0.00019684346389288
 135    0.00014471147636968
 136    1.5973720314243e-06
 137    3.0093573236407e-06
 138    3.864031234084e-06
 139    9.3105874063114e-05
 140    -0.00028759095898791
 141    4.9186185749369e-05
 142    0.00086814318341742
 143    -0.00083235235746884
 144    -0.00042699918547273
 145    -0.00080538012748417
 146    0.00010602252921116
 147    0.00067972727691401
 148    1.8474339702842e-05
 149    0.00012737526785583
 150    2.4465913705221e-05
 151    -1.1946087509851e-05
 152    3.2213206557893e-05
 153    -3.4849597535895e-05
 154    -7.3331063449106e-05
 155     4.36175211279e-06
 156    -7.445278727444e-06
 157    5.7862249582596e-06
 158    0.00025580895191355
 159    6.876701296592e-05
 160    1.4615812459506e-05
 161    7.0765045662724e-06
 162    -1.0705663282163e-05
 163    -0.0033843635623262
 164    -1.1955540715848e-05
 165    3.1426412955712e-05
 166    -2.1368677840892e-05
 167    -2.411175025471e-05
 168    8.506903045247e-06
 169    -8.5297733960755e-05
 170    1.0389812667461e-05
 171    1.3884834661022e-05
 172    -1.6679637953145e-07
 173    -1.6467606623061e-06
 174    -4.6876590553081e-06
 175    -8.0337941904969e-06
 176    -3.0053472119341e-06
 177    0.00034106918819324
 178    0.00039201536150086
 179    8.1895976769404e-05
 180    -4.4632547168388e-05
 181    -0.00010407522719532
 182      0.10288558120229
 183    0.00041892343147641
 184    -0.0028295379727292
 185    -6.7621484132949e-06
 186    -3.4337890342722e-06
 187    7.0273969177588e-06
 188    -0.0011250515869816
 189    0.00043807271970637
 190    0.00079575788045995
 191    -5.317421053437e-05
 192    -7.8342365966493e-05
 193    1.9781632963629e-05
 194    -1.7448443844715e-05
 195    -9.6976929921876e-05
 196    0.00033055886251475
 197    0.00040861002598893
 198    0.00012736703577055
 199    -2.4424425023128e-05
 200    -5.1115697961123e-05
 201    7.1386989234264e-06
 202    -1.6434295781699e-05
 203    1.2408911358264e-06
 204    2.2988790362094e-06
 205    2.6784507006534e-06
 206    -1.2027804644014e-05
 207    3.4835581547462e-05
 208    5.357517784982e-07
 209    -3.0901756896956e-06
 210    1.8624094935045e-06
 211     0.019330116426422
 212    0.00011075807212927
 213    -0.00025332496895195
 214    1.9779896211594e-06
 215    -6.9266150057155e-06
 216    6.9006634845827e-06
 217    -8.2300988200353e-05
 218    5.038396324145e-05
 219    3.7034343580799e-06
 220    1.8070599445196e-06
 221    2.3011858215762e-06
 222    -1.2000016488166e-06
 223    -4.7613813026691e-06
 224    6.1798656754489e-06
 225    9.3257734376743e-05
 226    4.8746110121893e-05
 227    -5.7315300574045e-06
 228    7.745758245927e-05
 229    4.615975224265e-05
 230    9.4350246172859e-05
 231    3.3832772922653e-05
 232    -7.0389159767371e-05
 233    4.9970691926623e-05
 234    -3.0116889503388e-05
 235     -0.99693932579377
 236    -0.0048625312912786
 237    0.0099257413765699
 238    -0.0001320360899807
 239    0.00012141791417707
 240    7.2818108149276e-05
 241    -0.00099359561743306
 242    0.0002328746299858
 243    0.00076412128276339
 244    -4.381229778153e-05
 245    -0.00011923379213841
 246    8.4876781505414e-05
 247    5.3620069819428e-05
 248    -0.00013993290645287
 249    9.8883743928966e-06
 250    2.5643801963551e-05
 251    5.8400559351499e-06
 252    2.769708034361e-06
 253    6.8029547115101e-06
 254    1.4829385873878e-05
 255    2.9361737682411e-05
 256    -4.3621031339986e-07
 257    -8.2790080401843e-06
 258    4.534433094725e-06
 259     0.001315078861613
 260    1.2745517766901e-05
 261    -2.4275791463637e-05
 262    8.9557331095749e-07
 263    -5.0429273168765e-07