[Molden Format]
made by pyscf v[2.0.1]
[Atoms] (AU)
O   1   8     0.00000000000000     0.00000000000000    10.94175058546756
H   2   1     0.00000000000000     0.00000000000000     9.11834876356659
H   3   1    -0.05031916615174     1.78353065140343    11.31762228193423
O   4   8     0.00000000000000     0.00000000000000     2.31533471513237
C   5   6     0.00000000000000     0.00000000000000     0.00000000000000
C   6   6     2.01118073026938    -1.40227222164369    -1.50774939176400
C   7   6    -2.01249334291722     1.41331050329955    -1.50315905028694
H   8   1     3.32037363730244    -2.26721897153159    -0.13599698591495
C   9   6     3.45899267434009     0.28739631745591    -3.37437943254505
H   10   1     1.07662969841332    -2.94725144642667    -2.56541439481080
H   11   1    -2.67503415753480     0.18421555839588    -3.06194479365997
H   12   1    -1.07974048864772     3.03851734677796    -2.43674295017013
C   13   6    -4.21607110578555     2.32938802552922     0.11994162256091
H   14   1     4.24440173074564     1.93368664142019    -2.34976285512790
H   15   1     2.15020713235517     1.04714335134846    -4.81494497423699
C   16   6     5.60746363007797    -1.12419643481196    -4.70268606082550
H   17   1    -3.46838323670267     3.50951302338067     1.66946842715333
H   18   1    -5.11873485366228     0.68575958301209     1.04047743976495
C   19   6    -6.18314754751344     3.80909592987882    -1.39656589068747
H   20   1     6.93011263717176    -1.87550812453645    -3.26656317360070
C   21   6     7.06356622236532     0.52877932406334    -6.57829775293605
H   22   1     4.82318879258361    -2.78573437948532    -5.70504560381835
H   23   1    -6.91582688743803     2.61304780074712    -2.95074552451969
H   24   1    -5.26532430573853     5.45420349051338    -2.31005832200284
C   25   6    -8.39941882261433     4.73263980500213     0.21800571437956
H   26   1     7.83338371486801     2.19084139882824    -5.57093109900697
H   27   1     5.73544244039420     1.27376866537418    -8.01071492370229
C   28   6     9.21124858443101    -0.89699110072176    -7.88926949186242
H   29   1    -7.66272760055236     5.92277078003992     1.77035591474408
H   30   1    -9.31497248082589     3.08753015622020     1.12614408368786
C   31   6   -10.35481709231879     6.21833079391143    -1.30905206253246
H   32   1    10.58815905329501    -1.61074586756696    -6.49512691622620
H   33   1    10.23506248045667     0.32468009384095    -9.23072870921204
H   34   1     8.47665842847139    -2.53598436989925    -8.94921964622535
H   35   1    -9.48948872868064     7.90013588951020    -2.18823918416067
H   36   1   -11.93332513000955     6.86460487874102    -0.11255798845995
H   37   1   -11.15126291841033     5.04495968327630    -2.83849898862534
[GTO]
1 0
 s    8 1.00
                 11720  0.00070964594651845
                  1759  0.0054672722921914
                 400.8   0.027823118610189
                 113.7    0.10474773971146
                 37.03    0.28292084635691
                 13.27    0.44849523869833
                 5.025    0.27081688521277
                 1.013    0.01545029160744
 s    8 1.00
                 11720  -0.00031444341168873
                  1759  -0.0024821376810179
                 400.8  -0.012316355381583
                 113.7  -0.050538917343672
                 37.03   -0.13938490331632
                 13.27   -0.32507749481778
                 5.025   -0.22984830758785
                 1.013     1.0953793467883
 s    1 1.00
                0.3023                   1
 p    3 1.00
                  17.7   0.062679166281506
                 3.854    0.33353656587936
                 1.046    0.74123964163973
 p    1 1.00
                0.2753                   1
 d    1 1.00
                 1.185                   1

2 0
 s    3 1.00
                 13.01   0.033498726389998
                 1.962    0.23480080117413
                0.4446     0.8136829578829
 s    1 1.00
                 0.122                   1
 p    1 1.00
                 0.727                   1

3 0
 s    3 1.00
                 13.01   0.033498726389998
                 1.962    0.23480080117413
                0.4446     0.8136829578829
 s    1 1.00
                 0.122                   1
 p    1 1.00
                 0.727                   1

4 0
 s    8 1.00
                 11720  0.00070964594651845
                  1759  0.0054672722921914
                 400.8   0.027823118610189
                 113.7    0.10474773971146
                 37.03    0.28292084635691
                 13.27    0.44849523869833
                 5.025    0.27081688521277
                 1.013    0.01545029160744
 s    8 1.00
                 11720  -0.00031444341168873
                  1759  -0.0024821376810179
                 400.8  -0.012316355381583
                 113.7  -0.050538917343672
                 37.03   -0.13938490331632
                 13.27   -0.32507749481778
                 5.025   -0.22984830758785
                 1.013     1.0953793467883
 s    1 1.00
                0.3023                   1
 p    3 1.00
                  17.7   0.062679166281506
                 3.854    0.33353656587936
                 1.046    0.74123964163973
 p    1 1.00
                0.2753                   1
 d    1 1.00
                 1.185                   1

5 0
 s    8 1.00
                  6665  0.00069158396281299
                  1000  0.0053257961529341
                   228   0.027060721042034
                 64.71    0.10165684614077
                 21.06     0.2745748236174
                 7.495    0.44829431892377
                 2.797    0.28490261071525
                0.5215   0.015194859206082
 s    8 1.00
                  6665  -0.00029326965268655
                  1000  -0.0023180354739745
                   228  -0.011499786038565
                 64.71  -0.046826727009787
                 21.06   -0.12846616875047
                 7.495   -0.30126627246289
                 2.797   -0.25563070233011
                0.5215      1.093793361012
 s    1 1.00
                0.1596                   1
 p    3 1.00
                 9.439   0.056979251590039
                 2.002    0.31320721150073
                0.5456    0.76037674173753
 p    1 1.00
                0.1517                   1
 d    1 1.00
                  0.55                   1

6 0
 s    8 1.00
                  6665  0.00069158396281299
                  1000  0.0053257961529341
                   228   0.027060721042034
                 64.71    0.10165684614077
                 21.06     0.2745748236174
                 7.495    0.44829431892377
                 2.797    0.28490261071525
                0.5215   0.015194859206082
 s    8 1.00
                  6665  -0.00029326965268655
                  1000  -0.0023180354739745
                   228  -0.011499786038565
                 64.71  -0.046826727009787
                 21.06   -0.12846616875047
                 7.495   -0.30126627246289
                 2.797   -0.25563070233011
                0.5215      1.093793361012
 s    1 1.00
                0.1596                   1
 p    3 1.00
                 9.439   0.056979251590039
                 2.002    0.31320721150073
                0.5456    0.76037674173753
 p    1 1.00
                0.1517                   1
 d    1 1.00
                  0.55                   1

7 0
 s    8 1.00
                  6665  0.00069158396281299
                  1000  0.0053257961529341
                   228   0.027060721042034
                 64.71    0.10165684614077
                 21.06     0.2745748236174
                 7.495    0.44829431892377
                 2.797    0.28490261071525
                0.5215   0.015194859206082
 s    8 1.00
                  6665  -0.00029326965268655
                  1000  -0.0023180354739745
                   228  -0.011499786038565
                 64.71  -0.046826727009787
                 21.06   -0.12846616875047
                 7.495   -0.30126627246289
                 2.797   -0.25563070233011
                0.5215      1.093793361012
 s    1 1.00
                0.1596                   1
 p    3 1.00
                 9.439   0.056979251590039
                 2.002    0.31320721150073
                0.5456    0.76037674173753
 p    1 1.00
                0.1517                   1
 d    1 1.00
                  0.55                   1

8 0
 s    3 1.00
                 13.01   0.033498726389998
                 1.962    0.23480080117413
                0.4446     0.8136829578829
 s    1 1.00
                 0.122                   1
 p    1 1.00
                 0.727                   1

9 0
 s    8 1.00
                  6665  0.00069158396281299
                  1000  0.0053257961529341
                   228   0.027060721042034
                 64.71    0.10165684614077
                 21.06     0.2745748236174
                 7.495    0.44829431892377
                 2.797    0.28490261071525
                0.5215   0.015194859206082
 s    8 1.00
                  6665  -0.00029326965268655
                  1000  -0.0023180354739745
                   228  -0.011499786038565
                 64.71  -0.046826727009787
                 21.06   -0.12846616875047
                 7.495   -0.30126627246289
                 2.797   -0.25563070233011
                0.5215      1.093793361012
 s    1 1.00
                0.1596                   1
 p    3 1.00
                 9.439   0.056979251590039
                 2.002    0.31320721150073
                0.5456    0.76037674173753
 p    1 1.00
                0.1517                   1
 d    1 1.00
                  0.55                   1

10 0
 s    3 1.00
                 13.01   0.033498726389998
                 1.962    0.23480080117413
                0.4446     0.8136829578829
 s    1 1.00
                 0.122                   1
 p    1 1.00
                 0.727                   1

11 0
 s    3 1.00
                 13.01   0.033498726389998
                 1.962    0.23480080117413
                0.4446     0.8136829578829
 s    1 1.00
                 0.122                   1
 p    1 1.00
                 0.727                   1

12 0
 s    3 1.00
                 13.01   0.033498726389998
                 1.962    0.23480080117413
                0.4446     0.8136829578829
 s    1 1.00
                 0.122                   1
 p    1 1.00
                 0.727                   1

13 0
 s    8 1.00
                  6665  0.00069158396281299
                  1000  0.0053257961529341
                   228   0.027060721042034
                 64.71    0.10165684614077
                 21.06     0.2745748236174
                 7.495    0.44829431892377
                 2.797    0.28490261071525
                0.5215   0.015194859206082
 s    8 1.00
                  6665  -0.00029326965268655
                  1000  -0.0023180354739745
                   228  -0.011499786038565
                 64.71  -0.046826727009787
                 21.06   -0.12846616875047
                 7.495   -0.30126627246289
                 2.797   -0.25563070233011
                0.5215      1.093793361012
 s    1 1.00
                0.1596                   1
 p    3 1.00
                 9.439   0.056979251590039
                 2.002    0.31320721150073
                0.5456    0.76037674173753
 p    1 1.00
                0.1517                   1
 d    1 1.00
                  0.55                   1

14 0
 s    3 1.00
                 13.01   0.033498726389998
                 1.962    0.23480080117413
                0.4446     0.8136829578829
 s    1 1.00
                 0.122                   1
 p    1 1.00
                 0.727                   1

15 0
 s    3 1.00
                 13.01   0.033498726389998
                 1.962    0.23480080117413
                0.4446     0.8136829578829
 s    1 1.00
                 0.122                   1
 p    1 1.00
                 0.727                   1

16 0
 s    8 1.00
                  6665  0.00069158396281299
                  1000  0.0053257961529341
                   228   0.027060721042034
                 64.71    0.10165684614077
                 21.06     0.2745748236174
                 7.495    0.44829431892377
                 2.797    0.28490261071525
                0.5215   0.015194859206082
 s    8 1.00
                  6665  -0.00029326965268655
                  1000  -0.0023180354739745
                   228  -0.011499786038565
                 64.71  -0.046826727009787
                 21.06   -0.12846616875047
                 7.495   -0.30126627246289
                 2.797   -0.25563070233011
                0.5215      1.093793361012
 s    1 1.00
                0.1596                   1
 p    3 1.00
                 9.439   0.056979251590039
                 2.002    0.31320721150073
                0.5456    0.76037674173753
 p    1 1.00
                0.1517                   1
 d    1 1.00
                  0.55                   1

17 0
 s    3 1.00
                 13.01   0.033498726389998
                 1.962    0.23480080117413
                0.4446     0.8136829578829
 s    1 1.00
                 0.122                   1
 p    1 1.00
                 0.727                   1

18 0
 s    3 1.00
                 13.01   0.033498726389998
                 1.962    0.23480080117413
                0.4446     0.8136829578829
 s    1 1.00
                 0.122                   1
 p    1 1.00
                 0.727                   1

19 0
 s    8 1.00
                  6665  0.00069158396281299
                  1000  0.0053257961529341
                   228   0.027060721042034
                 64.71    0.10165684614077
                 21.06     0.2745748236174
                 7.495    0.44829431892377
                 2.797    0.28490261071525
                0.5215   0.015194859206082
 s    8 1.00
                  6665  -0.00029326965268655
                  1000  -0.0023180354739745
                   228  -0.011499786038565
                 64.71  -0.046826727009787
                 21.06   -0.12846616875047
                 7.495   -0.30126627246289
                 2.797   -0.25563070233011
                0.5215      1.093793361012
 s    1 1.00
                0.1596                   1
 p    3 1.00
                 9.439   0.056979251590039
                 2.002    0.31320721150073
                0.5456    0.76037674173753
 p    1 1.00
                0.1517                   1
 d    1 1.00
                  0.55                   1

20 0
 s    3 1.00
                 13.01   0.033498726389998
                 1.962    0.23480080117413
                0.4446     0.8136829578829
 s    1 1.00
                 0.122                   1
 p    1 1.00
                 0.727                   1

21 0
 s    8 1.00
                  6665  0.00069158396281299
                  1000  0.0053257961529341
                   228   0.027060721042034
                 64.71    0.10165684614077
                 21.06     0.2745748236174
                 7.495    0.44829431892377
                 2.797    0.28490261071525
                0.5215   0.015194859206082
 s    8 1.00
                  6665  -0.00029326965268655
                  1000  -0.0023180354739745
                   228  -0.011499786038565
                 64.71  -0.046826727009787
                 21.06   -0.12846616875047
                 7.495   -0.30126627246289
                 2.797   -0.25563070233011
                0.5215      1.093793361012
 s    1 1.00
                0.1596                   1
 p    3 1.00
                 9.439   0.056979251590039
                 2.002    0.31320721150073
                0.5456    0.76037674173753
 p    1 1.00
                0.1517                   1
 d    1 1.00
                  0.55                   1

22 0
 s    3 1.00
                 13.01   0.033498726389998
                 1.962    0.23480080117413
                0.4446     0.8136829578829
 s    1 1.00
                 0.122                   1
 p    1 1.00
                 0.727                   1

23 0
 s    3 1.00
                 13.01   0.033498726389998
                 1.962    0.23480080117413
                0.4446     0.8136829578829
 s    1 1.00
                 0.122                   1
 p    1 1.00
                 0.727                   1

24 0
 s    3 1.00
                 13.01   0.033498726389998
                 1.962    0.23480080117413
                0.4446     0.8136829578829
 s    1 1.00
                 0.122                   1
 p    1 1.00
                 0.727                   1

25 0
 s    8 1.00
                  6665  0.00069158396281299
                  1000  0.0053257961529341
                   228   0.027060721042034
                 64.71    0.10165684614077
                 21.06     0.2745748236174
                 7.495    0.44829431892377
                 2.797    0.28490261071525
                0.5215   0.015194859206082
 s    8 1.00
                  6665  -0.00029326965268655
                  1000  -0.0023180354739745
                   228  -0.011499786038565
                 64.71  -0.046826727009787
                 21.06   -0.12846616875047
                 7.495   -0.30126627246289
                 2.797   -0.25563070233011
                0.5215      1.093793361012
 s    1 1.00
                0.1596                   1
 p    3 1.00
                 9.439   0.056979251590039
                 2.002    0.31320721150073
                0.5456    0.76037674173753
 p    1 1.00
                0.1517                   1
 d    1 1.00
                  0.55                   1

26 0
 s    3 1.00
                 13.01   0.033498726389998
                 1.962    0.23480080117413
                0.4446     0.8136829578829
 s    1 1.00
                 0.122                   1
 p    1 1.00
                 0.727                   1

27 0
 s    3 1.00
                 13.01   0.033498726389998
                 1.962    0.23480080117413
                0.4446     0.8136829578829
 s    1 1.00
                 0.122                   1
 p    1 1.00
                 0.727                   1

28 0
 s    8 1.00
                  6665  0.00069158396281299
                  1000  0.0053257961529341
                   228   0.027060721042034
                 64.71    0.10165684614077
                 21.06     0.2745748236174
                 7.495    0.44829431892377
                 2.797    0.28490261071525
                0.5215   0.015194859206082
 s    8 1.00
                  6665  -0.00029326965268655
                  1000  -0.0023180354739745
                   228  -0.011499786038565
                 64.71  -0.046826727009787
                 21.06   -0.12846616875047
                 7.495   -0.30126627246289
                 2.797   -0.25563070233011
                0.5215      1.093793361012
 s    1 1.00
                0.1596                   1
 p    3 1.00
                 9.439   0.056979251590039
                 2.002    0.31320721150073
                0.5456    0.76037674173753
 p    1 1.00
                0.1517                   1
 d    1 1.00
                  0.55                   1

29 0
 s    3 1.00
                 13.01   0.033498726389998
                 1.962    0.23480080117413
                0.4446     0.8136829578829
 s    1 1.00
                 0.122                   1
 p    1 1.00
                 0.727                   1

30 0
 s    3 1.00
                 13.01   0.033498726389998
                 1.962    0.23480080117413
                0.4446     0.8136829578829
 s    1 1.00
                 0.122                   1
 p    1 1.00
                 0.727                   1

31 0
 s    8 1.00
                  6665  0.00069158396281299
                  1000  0.0053257961529341
                   228   0.027060721042034
                 64.71    0.10165684614077
                 21.06     0.2745748236174
                 7.495    0.44829431892377
                 2.797    0.28490261071525
                0.5215   0.015194859206082
 s    8 1.00
                  6665  -0.00029326965268655
                  1000  -0.0023180354739745
                   228  -0.011499786038565
                 64.71  -0.046826727009787
                 21.06   -0.12846616875047
                 7.495   -0.30126627246289
                 2.797   -0.25563070233011
                0.5215      1.093793361012
 s    1 1.00
                0.1596                   1
 p    3 1.00
                 9.439   0.056979251590039
                 2.002    0.31320721150073
                0.5456    0.76037674173753
 p    1 1.00
                0.1517                   1
 d    1 1.00
                  0.55                   1

32 0
 s    3 1.00
                 13.01   0.033498726389998
                 1.962    0.23480080117413
                0.4446     0.8136829578829
 s    1 1.00
                 0.122                   1
 p    1 1.00
                 0.727                   1

33 0
 s    3 1.00
                 13.01   0.033498726389998
                 1.962    0.23480080117413
                0.4446     0.8136829578829
 s    1 1.00
                 0.122                   1
 p    1 1.00
                 0.727                   1

34 0
 s    3 1.00
                 13.01   0.033498726389998
                 1.962    0.23480080117413
                0.4446     0.8136829578829
 s    1 1.00
                 0.122                   1
 p    1 1.00
                 0.727                   1

35 0
 s    3 1.00
                 13.01   0.033498726389998
                 1.962    0.23480080117413
                0.4446     0.8136829578829
 s    1 1.00
                 0.122                   1
 p    1 1.00
                 0.727                   1

36 0
 s    3 1.00
                 13.01   0.033498726389998
                 1.962    0.23480080117413
                0.4446     0.8136829578829
 s    1 1.00
                 0.122                   1
 p    1 1.00
                 0.727                   1

37 0
 s    3 1.00
                 13.01   0.033498726389998
                 1.962    0.23480080117413
                0.4446     0.8136829578829
 s    1 1.00
                 0.122                   1
 p    1 1.00
                 0.727                   1

[5d]
[7f]
[9g]

[MO]
 Sym= A
 Ene=               0
 Spin= Alpha
 Occup=    1.00000
   1    -2.4366308160588e-07
   2    -2.3236263438054e-07
   3    2.483905059114e-06
   4    -9.2635573559684e-08
   5    -5.4802263545383e-08
   6    -4.3379316238941e-07
   7    -5.631433613549e-08
   8    -5.1947891918975e-07
   9    -1.858274543303e-06
  10    1.3551372894883e-07
  11    2.6551544548079e-09
  12    -1.5528902577457e-08
  13    9.2971177381305e-09
  14    -1.537925761057e-09
  15    2.1945224127473e-07
  16    -5.0522000967882e-06
  17    2.8818580759592e-09
  18    7.0851233644873e-09
  19    -4.4127754830949e-07
  20    -1.8755235349804e-07
  21    1.6047186239036e-06
  22    -3.7864883600271e-09
  23    -4.1837660091631e-08
  24    3.0977843899834e-08
  25    -1.8911932803364e-07
  26    7.0037669963172e-07
  27    -1.5260891024843e-05
  28    4.5122294401269e-05
  29    -7.9876733391073e-05
  30    -9.9090040271462e-05
  31    0.00011801464533277
  32    -0.0001043851972161
  33    -9.8765482301217e-05
  34    6.2883308016094e-06
  35    1.5965100762417e-06
  36    -4.1139604009513e-08
  37    1.207633640497e-06
  38    1.020321085756e-06
  39    4.8874346857251e-05
  40     8.99928620943e-06
  41    -0.00087112144600836
  42    -0.0001406723251663
  43    0.00013170033886338
  44    0.00013062615949039
  45    -0.00047305976361134
  46    0.00027203640562641
  47    0.00032426702549563
  48    8.4170954932852e-06
  49    3.7265578961819e-05
  50    -2.6173918182189e-05
  51    -9.96842557221e-06
  52    3.3210367854015e-05
  53    -2.5999961633894e-05
  54    6.6018211384533e-05
  55    0.00062566450870246
  56    0.00021940138176145
  57    5.3832037427477e-05
  58    -0.0002408571971528
  59    -0.00027560712917217
  60    0.00020434766821336
  61    0.00018657066330444
  62    -5.9119827458927e-06
  63    1.9575460317365e-05
  64    5.5982312272424e-07
  65    -2.4160395732559e-05
  66    -4.6473700042124e-06
  67    -8.1190875239696e-06
  68    -1.0568148481228e-05
  69    0.00025164172034596
  70    2.8702139327669e-05
  71    -7.5126129201859e-05
  72    4.699139435212e-05
  73    -0.00016667078159806
  74    1.5717304627591e-05
  75    0.0001248861393553
  76    -2.5987585297317e-07
  77    -1.7041079128751e-05
  78    2.3593412951235e-06
  79    1.6958428553493e-05
  80    1.4214439995775e-06
  81    6.5712168904328e-05
  82    1.886527353866e-05
  83    1.9631727644003e-05
  84    -5.0606154268018e-06
  85    -2.131534181552e-05
  86    9.909388106439e-05
  87    -0.00020894965659817
  88    -0.0017095662723992
  89    -0.00091021647230423
  90    0.00050046819761532
  91    0.00060086133567363
  92    -0.0011687391038542
  93    0.00058718705941064
  94    0.00078796765191041
  95    1.916314715252e-05
  96    8.1856164676547e-05
  97    -7.5720774274499e-05
  98    -6.0151520495987e-05
  99    0.00010017095411332
 100    7.3804021137196e-05
 101    1.4388608387868e-05
 102    2.9899441074179e-05
 103    -4.5392968670051e-06
 104    -2.1043086937498e-05
 105    -1.9574372542036e-06
 106    7.681518216111e-06
 107    1.7373377858102e-05
 108    -4.6292211814702e-06
 109    -2.4555494623143e-07
 110    -2.4396793132091e-05
 111    -5.8288888914721e-05
 112    5.7694966754462e-06
 113    4.3856102717767e-06
 114    -2.7353786199006e-06
 115    1.1493737258874e-05
 116    0.0001335602412721
 117    -0.00018451241708012
 118    -0.00010529301007617
 119    -0.00018330584434094
 120    6.8501213404231e-05
 121    -0.00027855249729157
 122    7.5243755862532e-05
 123    9.0090737590509e-05
 124    -3.3138668597471e-06
 125    1.0155134142314e-05
 126    -1.3660256309031e-05
 127    -1.2111877916222e-05
 128    1.3281896176996e-05
 129    0.0002046229919198
 130    0.00010907979537999
 131    1.9982537161867e-06
 132    2.2492388310359e-06
 133    -4.6582902850913e-06
 134    0.00019728462336344
 135    0.00014495795048505
 136    1.5532081409142e-06
 137    3.0620479012714e-06
 138    3.9199010647466e-06
 139    9.2950894034378e-05
 140    -0.00028608775674292
 141    4.8298182250077e-05
 142    0.00087255773661524
 143    -0.00083218388177872
 144    -0.00043075468827075
 145    -0.00080187541755881
 146    0.00010582973230733
 147    0.00067683406277274
 148    1.8560650604297e-05
 149    0.00012715607108779
 150    2.4072525385655e-05
 151    -1.2031465591811e-05
 152    3.2547130044437e-05
 153    -3.3159146496926e-05
 154    -7.2250464830706e-05
 155    4.1233528144323e-06
 156    -7.4704669121501e-06
 157    5.7844039326189e-06
 158    0.00025653202698219
 159    6.9754003967922e-05
 160    1.4460693432958e-05
 161    7.2593284212116e-06
 162    -1.0598620331045e-05
 163    -0.0031480812823369
 164    -1.0535957071024e-05
 165    2.0166683300892e-05
 166    -2.1421768191139e-05
 167    -2.4063657243405e-05
 168    8.4718973528188e-06
 169    -8.2129423473551e-05
 170    9.1051013049353e-06
 171    1.0972366897828e-05
 172    1.218535860912e-08
 173    -1.8787050432706e-06
 174    -4.5951098595306e-06
 175    -7.97073617978e-06
 176    -2.968471051525e-06
 177    0.00034200599365384
 178    0.00039237650880342
 179    8.1884349713311e-05
 180    -4.4597115363174e-05
 181    -0.00010422619088148
 182      0.10280421554146
 183    0.0004227149329992
 184    -0.0028271977553484
 185    -8.3502039794926e-06
 186    -5.5983086059868e-06
 187    9.2443905573725e-06
 188    -0.0011264379079933
 189    0.00043745326150296
 190    0.00079715346942202
 191    -5.3103630701811e-05
 192    -7.8178267176627e-05
 193    1.9392928784284e-05
 194    -1.7693215600896e-05
 195    -9.6588961004306e-05
 196    0.0003313295121213
 197    0.00040889390683609
 198    0.00012748918086117
 199    -2.4335840129489e-05
 200    -5.1108803817013e-05
 201    7.4375492538086e-06
 202    -1.6393329188327e-05
 203    1.2563429663052e-06
 204    2.1401289402652e-06
 205    2.4951941691864e-06
 206    -1.1779935390133e-05
 207    3.4794374970787e-05
 208    7.0552630218073e-07
 209    -2.9735569201557e-06
 210    1.7422937592431e-06
 211     0.016981130499383
 212    9.8652738436566e-05
 213    -0.00022466086947747
 214    2.0711397060477e-06
 215    -6.9279997191997e-06
 216    6.5506018585526e-06
 217    -8.0648358690019e-05
 218    5.0247294373058e-05
 219    2.9849896915237e-07
 220    1.7050317924561e-06
 221    2.1609754797902e-06
 222    -1.2554799558462e-06
 223    -4.373496668188e-06
 224    5.5357209160277e-06
 225    9.4033472531294e-05
 226    4.8558531147272e-05
 227    -5.7927128540728e-06
 228    7.7294747319075e-05
 229    4.6144873358399e-05
 230    9.5112600826453e-05
 231    3.3615383491902e-05
 232    -7.0325211275302e-05
 233    4.9854618416536e-05
 234    -2.9993517056614e-05
 235     -0.99699149413162
 236    -0.0048623746478986
 237    0.0099262250459872
 238    -0.0001337044996788
 239    0.00012192460829922
 240    7.3783012067261e-05
 241    -0.00099325329020545
 242    0.00023306271274071
 243    0.00076378922889787
 244    -4.38356843404e-05
 245    -0.00011950063571721
 246    8.5006917231578e-05
 247    5.3748578402517e-05
 248    -0.0001400530502529
 249    9.4130523126184e-06
 250    2.2887427865598e-05
 251    5.4000943778752e-06
 252    2.0693280189836e-06
 253    6.1588474544027e-06
 254    1.4354369873897e-05
 255    2.6659040144026e-05
 256    4.4809337178539e-08
 257    -7.3986987150234e-06
 258    4.2512545138545e-06
 259    0.0011660880355441
 260    1.2168449374558e-05
 261    -2.921991738594e-05
 262    6.6551355295696e-07
 263    -3.3525736840512e-07