[Molden Format]
made by pyscf v[2.0.1]
[Atoms] (AU)
O   1   8     0.00000000000000     0.00000000000000    10.56380536055454
H   2   1     0.00000000000000     0.00000000000000     8.74040353865358
H   3   1    -0.05031916615174     1.78353065140343    10.93967705702121
O   4   8     0.00000000000000     0.00000000000000     2.31533471513237
C   5   6     0.00000000000000     0.00000000000000     0.00000000000000
C   6   6     2.01118073026938    -1.40227222164369    -1.50774939176400
C   7   6    -2.01249334291722     1.41331050329955    -1.50315905028694
H   8   1     3.32037363730244    -2.26721897153159    -0.13599698591495
C   9   6     3.45899267434009     0.28739631745591    -3.37437943254505
H   10   1     1.07662969841332    -2.94725144642667    -2.56541439481080
H   11   1    -2.67503415753480     0.18421555839588    -3.06194479365997
H   12   1    -1.07974048864772     3.03851734677796    -2.43674295017013
C   13   6    -4.21607110578555     2.32938802552922     0.11994162256091
H   14   1     4.24440173074564     1.93368664142019    -2.34976285512790
H   15   1     2.15020713235517     1.04714335134846    -4.81494497423699
C   16   6     5.60746363007797    -1.12419643481196    -4.70268606082550
H   17   1    -3.46838323670267     3.50951302338067     1.66946842715333
H   18   1    -5.11873485366228     0.68575958301209     1.04047743976495
C   19   6    -6.18314754751344     3.80909592987882    -1.39656589068747
H   20   1     6.93011263717176    -1.87550812453645    -3.26656317360070
C   21   6     7.06356622236532     0.52877932406334    -6.57829775293605
H   22   1     4.82318879258361    -2.78573437948532    -5.70504560381835
H   23   1    -6.91582688743803     2.61304780074712    -2.95074552451969
H   24   1    -5.26532430573853     5.45420349051338    -2.31005832200284
C   25   6    -8.39941882261433     4.73263980500213     0.21800571437956
H   26   1     7.83338371486801     2.19084139882824    -5.57093109900697
H   27   1     5.73544244039420     1.27376866537418    -8.01071492370229
C   28   6     9.21124858443101    -0.89699110072176    -7.88926949186242
H   29   1    -7.66272760055236     5.92277078003992     1.77035591474408
H   30   1    -9.31497248082589     3.08753015622020     1.12614408368786
C   31   6   -10.35481709231879     6.21833079391143    -1.30905206253246
H   32   1    10.58815905329501    -1.61074586756696    -6.49512691622620
H   33   1    10.23506248045667     0.32468009384095    -9.23072870921204
H   34   1     8.47665842847139    -2.53598436989925    -8.94921964622535
H   35   1    -9.48948872868064     7.90013588951020    -2.18823918416067
H   36   1   -11.93332513000955     6.86460487874102    -0.11255798845995
H   37   1   -11.15126291841033     5.04495968327630    -2.83849898862534
[GTO]
1 0
 s    8 1.00
                 11720  0.00070964594651845
                  1759  0.0054672722921914
                 400.8   0.027823118610189
                 113.7    0.10474773971146
                 37.03    0.28292084635691
                 13.27    0.44849523869833
                 5.025    0.27081688521277
                 1.013    0.01545029160744
 s    8 1.00
                 11720  -0.00031444341168873
                  1759  -0.0024821376810179
                 400.8  -0.012316355381583
                 113.7  -0.050538917343672
                 37.03   -0.13938490331632
                 13.27   -0.32507749481778
                 5.025   -0.22984830758785
                 1.013     1.0953793467883
 s    1 1.00
                0.3023                   1
 p    3 1.00
                  17.7   0.062679166281506
                 3.854    0.33353656587936
                 1.046    0.74123964163973
 p    1 1.00
                0.2753                   1
 d    1 1.00
                 1.185                   1

2 0
 s    3 1.00
                 13.01   0.033498726389998
                 1.962    0.23480080117413
                0.4446     0.8136829578829
 s    1 1.00
                 0.122                   1
 p    1 1.00
                 0.727                   1

3 0
 s    3 1.00
                 13.01   0.033498726389998
                 1.962    0.23480080117413
                0.4446     0.8136829578829
 s    1 1.00
                 0.122                   1
 p    1 1.00
                 0.727                   1

4 0
 s    8 1.00
                 11720  0.00070964594651845
                  1759  0.0054672722921914
                 400.8   0.027823118610189
                 113.7    0.10474773971146
                 37.03    0.28292084635691
                 13.27    0.44849523869833
                 5.025    0.27081688521277
                 1.013    0.01545029160744
 s    8 1.00
                 11720  -0.00031444341168873
                  1759  -0.0024821376810179
                 400.8  -0.012316355381583
                 113.7  -0.050538917343672
                 37.03   -0.13938490331632
                 13.27   -0.32507749481778
                 5.025   -0.22984830758785
                 1.013     1.0953793467883
 s    1 1.00
                0.3023                   1
 p    3 1.00
                  17.7   0.062679166281506
                 3.854    0.33353656587936
                 1.046    0.74123964163973
 p    1 1.00
                0.2753                   1
 d    1 1.00
                 1.185                   1

5 0
 s    8 1.00
                  6665  0.00069158396281299
                  1000  0.0053257961529341
                   228   0.027060721042034
                 64.71    0.10165684614077
                 21.06     0.2745748236174
                 7.495    0.44829431892377
                 2.797    0.28490261071525
                0.5215   0.015194859206082
 s    8 1.00
                  6665  -0.00029326965268655
                  1000  -0.0023180354739745
                   228  -0.011499786038565
                 64.71  -0.046826727009787
                 21.06   -0.12846616875047
                 7.495   -0.30126627246289
                 2.797   -0.25563070233011
                0.5215      1.093793361012
 s    1 1.00
                0.1596                   1
 p    3 1.00
                 9.439   0.056979251590039
                 2.002    0.31320721150073
                0.5456    0.76037674173753
 p    1 1.00
                0.1517                   1
 d    1 1.00
                  0.55                   1

6 0
 s    8 1.00
                  6665  0.00069158396281299
                  1000  0.0053257961529341
                   228   0.027060721042034
                 64.71    0.10165684614077
                 21.06     0.2745748236174
                 7.495    0.44829431892377
                 2.797    0.28490261071525
                0.5215   0.015194859206082
 s    8 1.00
                  6665  -0.00029326965268655
                  1000  -0.0023180354739745
                   228  -0.011499786038565
                 64.71  -0.046826727009787
                 21.06   -0.12846616875047
                 7.495   -0.30126627246289
                 2.797   -0.25563070233011
                0.5215      1.093793361012
 s    1 1.00
                0.1596                   1
 p    3 1.00
                 9.439   0.056979251590039
                 2.002    0.31320721150073
                0.5456    0.76037674173753
 p    1 1.00
                0.1517                   1
 d    1 1.00
                  0.55                   1

7 0
 s    8 1.00
                  6665  0.00069158396281299
                  1000  0.0053257961529341
                   228   0.027060721042034
                 64.71    0.10165684614077
                 21.06     0.2745748236174
                 7.495    0.44829431892377
                 2.797    0.28490261071525
                0.5215   0.015194859206082
 s    8 1.00
                  6665  -0.00029326965268655
                  1000  -0.0023180354739745
                   228  -0.011499786038565
                 64.71  -0.046826727009787
                 21.06   -0.12846616875047
                 7.495   -0.30126627246289
                 2.797   -0.25563070233011
                0.5215      1.093793361012
 s    1 1.00
                0.1596                   1
 p    3 1.00
                 9.439   0.056979251590039
                 2.002    0.31320721150073
                0.5456    0.76037674173753
 p    1 1.00
                0.1517                   1
 d    1 1.00
                  0.55                   1

8 0
 s    3 1.00
                 13.01   0.033498726389998
                 1.962    0.23480080117413
                0.4446     0.8136829578829
 s    1 1.00
                 0.122                   1
 p    1 1.00
                 0.727                   1

9 0
 s    8 1.00
                  6665  0.00069158396281299
                  1000  0.0053257961529341
                   228   0.027060721042034
                 64.71    0.10165684614077
                 21.06     0.2745748236174
                 7.495    0.44829431892377
                 2.797    0.28490261071525
                0.5215   0.015194859206082
 s    8 1.00
                  6665  -0.00029326965268655
                  1000  -0.0023180354739745
                   228  -0.011499786038565
                 64.71  -0.046826727009787
                 21.06   -0.12846616875047
                 7.495   -0.30126627246289
                 2.797   -0.25563070233011
                0.5215      1.093793361012
 s    1 1.00
                0.1596                   1
 p    3 1.00
                 9.439   0.056979251590039
                 2.002    0.31320721150073
                0.5456    0.76037674173753
 p    1 1.00
                0.1517                   1
 d    1 1.00
                  0.55                   1

10 0
 s    3 1.00
                 13.01   0.033498726389998
                 1.962    0.23480080117413
                0.4446     0.8136829578829
 s    1 1.00
                 0.122                   1
 p    1 1.00
                 0.727                   1

11 0
 s    3 1.00
                 13.01   0.033498726389998
                 1.962    0.23480080117413
                0.4446     0.8136829578829
 s    1 1.00
                 0.122                   1
 p    1 1.00
                 0.727                   1

12 0
 s    3 1.00
                 13.01   0.033498726389998
                 1.962    0.23480080117413
                0.4446     0.8136829578829
 s    1 1.00
                 0.122                   1
 p    1 1.00
                 0.727                   1

13 0
 s    8 1.00
                  6665  0.00069158396281299
                  1000  0.0053257961529341
                   228   0.027060721042034
                 64.71    0.10165684614077
                 21.06     0.2745748236174
                 7.495    0.44829431892377
                 2.797    0.28490261071525
                0.5215   0.015194859206082
 s    8 1.00
                  6665  -0.00029326965268655
                  1000  -0.0023180354739745
                   228  -0.011499786038565
                 64.71  -0.046826727009787
                 21.06   -0.12846616875047
                 7.495   -0.30126627246289
                 2.797   -0.25563070233011
                0.5215      1.093793361012
 s    1 1.00
                0.1596                   1
 p    3 1.00
                 9.439   0.056979251590039
                 2.002    0.31320721150073
                0.5456    0.76037674173753
 p    1 1.00
                0.1517                   1
 d    1 1.00
                  0.55                   1

14 0
 s    3 1.00
                 13.01   0.033498726389998
                 1.962    0.23480080117413
                0.4446     0.8136829578829
 s    1 1.00
                 0.122                   1
 p    1 1.00
                 0.727                   1

15 0
 s    3 1.00
                 13.01   0.033498726389998
                 1.962    0.23480080117413
                0.4446     0.8136829578829
 s    1 1.00
                 0.122                   1
 p    1 1.00
                 0.727                   1

16 0
 s    8 1.00
                  6665  0.00069158396281299
                  1000  0.0053257961529341
                   228   0.027060721042034
                 64.71    0.10165684614077
                 21.06     0.2745748236174
                 7.495    0.44829431892377
                 2.797    0.28490261071525
                0.5215   0.015194859206082
 s    8 1.00
                  6665  -0.00029326965268655
                  1000  -0.0023180354739745
                   228  -0.011499786038565
                 64.71  -0.046826727009787
                 21.06   -0.12846616875047
                 7.495   -0.30126627246289
                 2.797   -0.25563070233011
                0.5215      1.093793361012
 s    1 1.00
                0.1596                   1
 p    3 1.00
                 9.439   0.056979251590039
                 2.002    0.31320721150073
                0.5456    0.76037674173753
 p    1 1.00
                0.1517                   1
 d    1 1.00
                  0.55                   1

17 0
 s    3 1.00
                 13.01   0.033498726389998
                 1.962    0.23480080117413
                0.4446     0.8136829578829
 s    1 1.00
                 0.122                   1
 p    1 1.00
                 0.727                   1

18 0
 s    3 1.00
                 13.01   0.033498726389998
                 1.962    0.23480080117413
                0.4446     0.8136829578829
 s    1 1.00
                 0.122                   1
 p    1 1.00
                 0.727                   1

19 0
 s    8 1.00
                  6665  0.00069158396281299
                  1000  0.0053257961529341
                   228   0.027060721042034
                 64.71    0.10165684614077
                 21.06     0.2745748236174
                 7.495    0.44829431892377
                 2.797    0.28490261071525
                0.5215   0.015194859206082
 s    8 1.00
                  6665  -0.00029326965268655
                  1000  -0.0023180354739745
                   228  -0.011499786038565
                 64.71  -0.046826727009787
                 21.06   -0.12846616875047
                 7.495   -0.30126627246289
                 2.797   -0.25563070233011
                0.5215      1.093793361012
 s    1 1.00
                0.1596                   1
 p    3 1.00
                 9.439   0.056979251590039
                 2.002    0.31320721150073
                0.5456    0.76037674173753
 p    1 1.00
                0.1517                   1
 d    1 1.00
                  0.55                   1

20 0
 s    3 1.00
                 13.01   0.033498726389998
                 1.962    0.23480080117413
                0.4446     0.8136829578829
 s    1 1.00
                 0.122                   1
 p    1 1.00
                 0.727                   1

21 0
 s    8 1.00
                  6665  0.00069158396281299
                  1000  0.0053257961529341
                   228   0.027060721042034
                 64.71    0.10165684614077
                 21.06     0.2745748236174
                 7.495    0.44829431892377
                 2.797    0.28490261071525
                0.5215   0.015194859206082
 s    8 1.00
                  6665  -0.00029326965268655
                  1000  -0.0023180354739745
                   228  -0.011499786038565
                 64.71  -0.046826727009787
                 21.06   -0.12846616875047
                 7.495   -0.30126627246289
                 2.797   -0.25563070233011
                0.5215      1.093793361012
 s    1 1.00
                0.1596                   1
 p    3 1.00
                 9.439   0.056979251590039
                 2.002    0.31320721150073
                0.5456    0.76037674173753
 p    1 1.00
                0.1517                   1
 d    1 1.00
                  0.55                   1

22 0
 s    3 1.00
                 13.01   0.033498726389998
                 1.962    0.23480080117413
                0.4446     0.8136829578829
 s    1 1.00
                 0.122                   1
 p    1 1.00
                 0.727                   1

23 0
 s    3 1.00
                 13.01   0.033498726389998
                 1.962    0.23480080117413
                0.4446     0.8136829578829
 s    1 1.00
                 0.122                   1
 p    1 1.00
                 0.727                   1

24 0
 s    3 1.00
                 13.01   0.033498726389998
                 1.962    0.23480080117413
                0.4446     0.8136829578829
 s    1 1.00
                 0.122                   1
 p    1 1.00
                 0.727                   1

25 0
 s    8 1.00
                  6665  0.00069158396281299
                  1000  0.0053257961529341
                   228   0.027060721042034
                 64.71    0.10165684614077
                 21.06     0.2745748236174
                 7.495    0.44829431892377
                 2.797    0.28490261071525
                0.5215   0.015194859206082
 s    8 1.00
                  6665  -0.00029326965268655
                  1000  -0.0023180354739745
                   228  -0.011499786038565
                 64.71  -0.046826727009787
                 21.06   -0.12846616875047
                 7.495   -0.30126627246289
                 2.797   -0.25563070233011
                0.5215      1.093793361012
 s    1 1.00
                0.1596                   1
 p    3 1.00
                 9.439   0.056979251590039
                 2.002    0.31320721150073
                0.5456    0.76037674173753
 p    1 1.00
                0.1517                   1
 d    1 1.00
                  0.55                   1

26 0
 s    3 1.00
                 13.01   0.033498726389998
                 1.962    0.23480080117413
                0.4446     0.8136829578829
 s    1 1.00
                 0.122                   1
 p    1 1.00
                 0.727                   1

27 0
 s    3 1.00
                 13.01   0.033498726389998
                 1.962    0.23480080117413
                0.4446     0.8136829578829
 s    1 1.00
                 0.122                   1
 p    1 1.00
                 0.727                   1

28 0
 s    8 1.00
                  6665  0.00069158396281299
                  1000  0.0053257961529341
                   228   0.027060721042034
                 64.71    0.10165684614077
                 21.06     0.2745748236174
                 7.495    0.44829431892377
                 2.797    0.28490261071525
                0.5215   0.015194859206082
 s    8 1.00
                  6665  -0.00029326965268655
                  1000  -0.0023180354739745
                   228  -0.011499786038565
                 64.71  -0.046826727009787
                 21.06   -0.12846616875047
                 7.495   -0.30126627246289
                 2.797   -0.25563070233011
                0.5215      1.093793361012
 s    1 1.00
                0.1596                   1
 p    3 1.00
                 9.439   0.056979251590039
                 2.002    0.31320721150073
                0.5456    0.76037674173753
 p    1 1.00
                0.1517                   1
 d    1 1.00
                  0.55                   1

29 0
 s    3 1.00
                 13.01   0.033498726389998
                 1.962    0.23480080117413
                0.4446     0.8136829578829
 s    1 1.00
                 0.122                   1
 p    1 1.00
                 0.727                   1

30 0
 s    3 1.00
                 13.01   0.033498726389998
                 1.962    0.23480080117413
                0.4446     0.8136829578829
 s    1 1.00
                 0.122                   1
 p    1 1.00
                 0.727                   1

31 0
 s    8 1.00
                  6665  0.00069158396281299
                  1000  0.0053257961529341
                   228   0.027060721042034
                 64.71    0.10165684614077
                 21.06     0.2745748236174
                 7.495    0.44829431892377
                 2.797    0.28490261071525
                0.5215   0.015194859206082
 s    8 1.00
                  6665  -0.00029326965268655
                  1000  -0.0023180354739745
                   228  -0.011499786038565
                 64.71  -0.046826727009787
                 21.06   -0.12846616875047
                 7.495   -0.30126627246289
                 2.797   -0.25563070233011
                0.5215      1.093793361012
 s    1 1.00
                0.1596                   1
 p    3 1.00
                 9.439   0.056979251590039
                 2.002    0.31320721150073
                0.5456    0.76037674173753
 p    1 1.00
                0.1517                   1
 d    1 1.00
                  0.55                   1

32 0
 s    3 1.00
                 13.01   0.033498726389998
                 1.962    0.23480080117413
                0.4446     0.8136829578829
 s    1 1.00
                 0.122                   1
 p    1 1.00
                 0.727                   1

33 0
 s    3 1.00
                 13.01   0.033498726389998
                 1.962    0.23480080117413
                0.4446     0.8136829578829
 s    1 1.00
                 0.122                   1
 p    1 1.00
                 0.727                   1

34 0
 s    3 1.00
                 13.01   0.033498726389998
                 1.962    0.23480080117413
                0.4446     0.8136829578829
 s    1 1.00
                 0.122                   1
 p    1 1.00
                 0.727                   1

35 0
 s    3 1.00
                 13.01   0.033498726389998
                 1.962    0.23480080117413
                0.4446     0.8136829578829
 s    1 1.00
                 0.122                   1
 p    1 1.00
                 0.727                   1

36 0
 s    3 1.00
                 13.01   0.033498726389998
                 1.962    0.23480080117413
                0.4446     0.8136829578829
 s    1 1.00
                 0.122                   1
 p    1 1.00
                 0.727                   1

37 0
 s    3 1.00
                 13.01   0.033498726389998
                 1.962    0.23480080117413
                0.4446     0.8136829578829
 s    1 1.00
                 0.122                   1
 p    1 1.00
                 0.727                   1

[5d]
[7f]
[9g]

[MO]
 Sym= A
 Ene=               0
 Spin= Alpha
 Occup=    1.00000
   1    -2.997451206616e-07
   2    -2.6639398454718e-07
   3    2.9961935187843e-06
   4    -1.9473796900578e-07
   5    -3.6351230405933e-08
   6    -7.0273312338425e-07
   7    -1.3252301546303e-07
   8    -5.5749841156614e-07
   9    -2.2719523795081e-06
  10    1.3924454962514e-07
  11    5.1469900729702e-09
  12    -2.185042643206e-08
  13    8.2310735843131e-09
  14    -3.8248479674025e-09
  15    3.2779817734807e-07
  16    -6.067802957786e-06
  17    6.6707977822453e-09
  18    -1.253121041727e-09
  19    -3.7357118957673e-07
  20    -2.2119085987021e-07
  21    1.7636156215832e-06
  22    -9.5398086907526e-09
  23    -2.639123254954e-08
  24    2.2731814714171e-08
  25    -1.7873518371974e-07
  26    8.9656785674535e-07
  27    -1.5014319265215e-05
  28    4.4721615278324e-05
  29    -7.9590167206032e-05
  30    -9.8699714184917e-05
  31    0.00011773046154815
  32    -0.00010421662017015
  33    -9.8532404846605e-05
  34    6.2571991061531e-06
  35    1.6046438887465e-06
  36    -5.3611170788722e-08
  37    1.2090527935563e-06
  38    1.0207835002626e-06
  39    4.8839688610632e-05
  40    8.8358381568701e-06
  41    -0.00087111964966919
  42    -0.00014043693370606
  43    0.0001315971637348
  44    0.00013039594854817
  45    -0.00047326080253283
  46    0.00027231003062988
  47    0.00032426451372766
  48    8.4025963224708e-06
  49    3.7195073271167e-05
  50    -2.6122255597903e-05
  51    -9.9585379582984e-06
  52    3.3198110907079e-05
  53    -2.6022289961961e-05
  54    6.6073551282138e-05
  55    0.0006263377184256
  56    0.00021902783205805
  57    5.3944468794354e-05
  58    -0.0002405590601445
  59    -0.00027610937677809
  60    0.00020463291420736
  61    0.00018686714800608
  62    -5.9230956930559e-06
  63    1.9565519830987e-05
  64    5.8521475312843e-07
  65    -2.4150376430828e-05
  66    -4.675808936145e-06
  67    -8.1617674360873e-06
  68    -1.0432501585658e-05
  69    0.00025206709614222
  70    2.8072450470968e-05
  71    -7.4794402596504e-05
  72    4.7268848846722e-05
  73    -0.00016755418537511
  74    1.6178598374771e-05
  75    0.00012493582578957
  76    -2.9504422431671e-07
  77    -1.7108151073386e-05
  78    2.3827236172812e-06
  79     1.69973537243e-05
  80    1.3892765891713e-06
  81    6.5667967826664e-05
  82    1.8788407522339e-05
  83    1.9628028289165e-05
  84    -5.0628254026754e-06
  85    -2.1311381682577e-05
  86    9.9079726840346e-05
  87    -0.00020891554222553
  88    -0.0017098564374983
  89    -0.00090980750569041
  90    0.0005002962768947
  91    0.00060051471423165
  92    -0.0011686355828211
  93    0.00058730341511368
  94    0.00078782646459155
  95    1.9164719573182e-05
  96    8.1820754192139e-05
  97    -7.5700144868823e-05
  98    -6.0130222430712e-05
  99    0.0001001353484162
 100    7.3767478225784e-05
 101    1.4346081483902e-05
 102    2.9896763122223e-05
 103    -4.5406752409006e-06
 104    -2.1032517562236e-05
 105    -2.0971286056935e-06
 106    7.5568464454696e-06
 107    1.7374999121641e-05
 108    -4.6337445110964e-06
 109    -2.3724259435241e-07
 110    -2.4459552211598e-05
 111    -5.8329994188428e-05
 112    5.7712192796265e-06
 113    4.3879773752514e-06
 114    -2.7232607710717e-06
 115    1.1476213129552e-05
 116    0.00013364565236676
 117    -0.00018498757473659
 118    -0.00010487505012948
 119    -0.00018362152484111
 120    6.7779163995649e-05
 121    -0.00027846542060248
 122    7.5053928045298e-05
 123    9.020578029414e-05
 124    -3.2955419054873e-06
 125    1.009494405646e-05
 126    -1.3664667075761e-05
 127    -1.207575584589e-05
 128    1.323286496285e-05
 129    0.00020448007603592
 130    0.00010898181835647
 131    2.0170620010244e-06
 132    2.2428359858633e-06
 133    -4.6628149683144e-06
 134    0.00019719770679443
 135    0.00014491477284206
 136    1.5618649484119e-06
 137    3.0508161691717e-06
 138    3.9095760224198e-06
 139    9.298092290327e-05
 140    -0.00028642624269439
 141    4.8491591731973e-05
 142    0.00087165311393313
 143    -0.0008321911455756
 144    -0.00043001517019717
 145    -0.00080259073700729
 146    0.00010588847765822
 147    0.00067742055976617
 148    1.8542618061709e-05
 149    0.00012719563409368
 150    2.4151780496289e-05
 151    -1.2012866879906e-05
 152    3.2478539436313e-05
 153    -3.3628885926474e-05
 154    -7.2602775234172e-05
 155    4.1925654799726e-06
 156    -7.4624265854618e-06
 157    5.7853158806231e-06
 158    0.00025634496869418
 159    6.9487905179281e-05
 160    1.4501597222037e-05
 161    7.2074123999825e-06
 162    -1.0628608517235e-05
 163    -0.0032146577176552
 164    -1.0962565275769e-05
 165    2.3335091490451e-05
 166    -2.1423420006972e-05
 167    -2.4067551264352e-05
 168    8.4754169331058e-06
 169    -8.3043618445162e-05
 170    9.4697973401405e-06
 171    1.1788344904181e-05
 172    -3.8711524488567e-08
 173    -1.8152691209241e-06
 174    -4.620137194467e-06
 175    -7.9878267132515e-06
 176    -2.9793303044633e-06
 177    0.00034177263831257
 178    0.00039228891234215
 179    8.1889394324307e-05
 180    -4.4605418750872e-05
 181    -0.00010419323781765
 182      0.10282018037068
 183    0.0004219549810189
 184    -0.0028276625931911
 185    -8.0329096020822e-06
 186    -5.1609149994969e-06
 187    8.7977891454387e-06
 188    -0.0011261641405527
 189    0.00043757837970972
 190    0.00079686803669519
 191    -5.3118269706902e-05
 192    -7.8210030024653e-05
 193    1.9471951493438e-05
 194    -1.7643468058197e-05
 195    -9.6666432520006e-05
 196    0.00033115178383656
 197    0.00040883239246391
 198    0.0001274633708807
 199    -2.4354600520808e-05
 200    -5.1112265754107e-05
 201    7.3458332620995e-06
 202    -1.640725222566e-05
 203     1.25162288111e-06
 204    2.1844041255573e-06
 205    2.5460337815251e-06
 206    -1.1856574226234e-05
 207    3.4809964950461e-05
 208    6.5814692556406e-07
 209    -3.0055932016436e-06
 210    1.7758873883214e-06
 211     0.017644303448667
 212    0.0001020719991169
 213    -0.00023276432711789
 214    2.0387668823421e-06
 215    -6.9262374139988e-06
 216    6.6540433438171e-06
 217    -8.1123181138296e-05
 218    5.0297204017438e-05
 219    1.2541672678892e-06
 220    1.7344432930017e-06
 221    2.2008903334174e-06
 222    -1.2400569752476e-06
 223    -4.4839544980301e-06
 224    5.7192594183747e-06
 225    9.3878027959138e-05
 226    4.8597187310855e-05
 227    -5.7799409579414e-06
 228    7.7327451051158e-05
 229    4.6148052067955e-05
 230    9.4960487713946e-05
 231    3.3652938184752e-05
 232    -7.0337822735325e-05
 233    4.9877838039441e-05
 234    -3.0018513781445e-05
 235     -0.99697806056655
 236    -0.0048623933561394
 237    0.0099261066861757
 238    -0.0001333724379353
 239    0.00012182117929471
 240    7.3590222522235e-05
 241    -0.00099332232792471
 242    0.00023302500569458
 243    0.00076385844549755
 244    -4.3830860455609e-05
 245    -0.00011944699415965
 246    8.4981263019446e-05
 247    5.3722723850474e-05
 248    -0.00014002864292177
 249    9.5465725823844e-06
 250    2.3672204665641e-05
 251    5.5246813079381e-06
 252    2.2671455392839e-06
 253    6.3411841990736e-06
 254    1.4488816219941e-05
 255    2.7432161466887e-05
 256    -9.0847513493189e-08
 257    -7.6480448299961e-06
 258    4.3315116382433e-06
 259    0.0012115457219283
 260    1.2348208655426e-05
 261    -2.7863018226736e-05
 262    7.2932193964117e-07
 263    -3.8215498625518e-07