[Molden Format]
made by pyscf v[2.0.1]
[Atoms] (AU)
O   1   8     0.00000000000000     0.00000000000000     6.40640788651141
H   2   1     0.00000000000000     0.00000000000000     4.58300606461044
H   3   1    -0.05031916615174     1.78353439551780     6.78227958297808
O   4   8     0.00000000000000     0.00000000000000     2.31533471513237
C   5   6     0.00000000000000     0.00000000000000     0.00000000000000
C   6   6     2.01118073026938    -1.40227222164369    -1.50774939176400
C   7   6    -2.01249334291722     1.41331050329955    -1.50319235519811
H   8   1     3.32037363730244    -2.26721897153159    -0.13599698591495
C   9   6     3.45899267434009     0.28739631745591    -3.37437943254505
H   10   1     1.07662969841332    -2.94725144642667    -2.56541439481080
H   11   1    -2.67503415753480     0.18421555839588    -3.06194479365997
H   12   1    -1.08005520873877     3.03851734677796    -2.43674295017013
C   13   6    -4.21607110578555     2.32938802552922     0.11994192435017
H   14   1     4.24440173074564     1.93368664387684    -2.34976285512790
H   15   1     2.18907033049676     1.04714335134846    -4.81494497423699
C   16   6     5.60746363007797    -1.12419643481196    -4.70268606082550
H   17   1    -3.46838323670267     3.50951302338067     1.66946842715333
H   18   1    -5.11873485366228     0.68575958301209     1.04047743976495
C   19   6    -6.18314754751344     3.80909592987882    -1.39656589068747
H   20   1     6.93011263717176    -1.87550812453645    -3.26656317360070
C   21   6     7.10306991577580     0.52877932406334    -6.57829775293605
H   22   1     4.82318879258361    -2.78573437948532    -5.70504560381835
H   23   1    -6.91582688743803     2.61304780074712    -2.95074552451969
H   24   1    -5.26532430573853     5.45420349051338    -2.31005832200284
C   25   6    -8.39941882261433     4.73263980500213     0.21800571437956
H   26   1     7.83338371486801     2.19084139882824    -5.57093109900697
H   27   1     5.73544244039420     1.27376866537418    -8.01071492370229
C   28   6     9.21124858443101    -0.89699110072176    -7.88926949186242
H   29   1    -7.66272760055236     5.92277078003992     1.77035591474408
H   30   1    -9.31497248082589     3.08753015622020     1.12614408368786
C   31   6   -10.35481709231879     6.21833079391143    -1.30905206253246
H   32   1    10.58815905329501    -1.61099162890610    -6.52093739071026
H   33   1    10.23506248045667     0.32468009384095    -9.23072870921204
H   34   1     8.47665842847139    -2.53598436989925    -8.94921964622535
H   35   1    -9.48948872868064     7.90013588951020    -2.18823918416067
H   36   1   -11.93332774482359     6.86460487874102    -0.11255798845995
H   37   1   -11.15126291841033     5.04495968327630    -2.83849898862534
[GTO]
1 0
 s    8 1.00
                 11720  0.00070964594651845
                  1759  0.0054672722921914
                 400.8   0.027823118610189
                 113.7    0.10474773971146
                 37.03    0.28292084635691
                 13.27    0.44849523869833
                 5.025    0.27081688521277
                 1.013    0.01545029160744
 s    8 1.00
                 11720  -0.00031444341168873
                  1759  -0.0024821376810179
                 400.8  -0.012316355381583
                 113.7  -0.050538917343672
                 37.03   -0.13938490331632
                 13.27   -0.32507749481778
                 5.025   -0.22984830758785
                 1.013     1.0953793467883
 s    1 1.00
                0.3023                   1
 p    3 1.00
                  17.7   0.062679166281506
                 3.854    0.33353656587936
                 1.046    0.74123964163973
 p    1 1.00
                0.2753                   1
 d    1 1.00
                 1.185                   1

2 0
 s    3 1.00
                 13.01   0.033498726389998
                 1.962    0.23480080117413
                0.4446     0.8136829578829
 s    1 1.00
                 0.122                   1
 p    1 1.00
                 0.727                   1

3 0
 s    3 1.00
                 13.01   0.033498726389998
                 1.962    0.23480080117413
                0.4446     0.8136829578829
 s    1 1.00
                 0.122                   1
 p    1 1.00
                 0.727                   1

4 0
 s    8 1.00
                 11720  0.00070964594651845
                  1759  0.0054672722921914
                 400.8   0.027823118610189
                 113.7    0.10474773971146
                 37.03    0.28292084635691
                 13.27    0.44849523869833
                 5.025    0.27081688521277
                 1.013    0.01545029160744
 s    8 1.00
                 11720  -0.00031444341168873
                  1759  -0.0024821376810179
                 400.8  -0.012316355381583
                 113.7  -0.050538917343672
                 37.03   -0.13938490331632
                 13.27   -0.32507749481778
                 5.025   -0.22984830758785
                 1.013     1.0953793467883
 s    1 1.00
                0.3023                   1
 p    3 1.00
                  17.7   0.062679166281506
                 3.854    0.33353656587936
                 1.046    0.74123964163973
 p    1 1.00
                0.2753                   1
 d    1 1.00
                 1.185                   1

5 0
 s    8 1.00
                  6665  0.00069158396281299
                  1000  0.0053257961529341
                   228   0.027060721042034
                 64.71    0.10165684614077
                 21.06     0.2745748236174
                 7.495    0.44829431892377
                 2.797    0.28490261071525
                0.5215   0.015194859206082
 s    8 1.00
                  6665  -0.00029326965268655
                  1000  -0.0023180354739745
                   228  -0.011499786038565
                 64.71  -0.046826727009787
                 21.06   -0.12846616875047
                 7.495   -0.30126627246289
                 2.797   -0.25563070233011
                0.5215      1.093793361012
 s    1 1.00
                0.1596                   1
 p    3 1.00
                 9.439   0.056979251590039
                 2.002    0.31320721150073
                0.5456    0.76037674173753
 p    1 1.00
                0.1517                   1
 d    1 1.00
                  0.55                   1

6 0
 s    8 1.00
                  6665  0.00069158396281299
                  1000  0.0053257961529341
                   228   0.027060721042034
                 64.71    0.10165684614077
                 21.06     0.2745748236174
                 7.495    0.44829431892377
                 2.797    0.28490261071525
                0.5215   0.015194859206082
 s    8 1.00
                  6665  -0.00029326965268655
                  1000  -0.0023180354739745
                   228  -0.011499786038565
                 64.71  -0.046826727009787
                 21.06   -0.12846616875047
                 7.495   -0.30126627246289
                 2.797   -0.25563070233011
                0.5215      1.093793361012
 s    1 1.00
                0.1596                   1
 p    3 1.00
                 9.439   0.056979251590039
                 2.002    0.31320721150073
                0.5456    0.76037674173753
 p    1 1.00
                0.1517                   1
 d    1 1.00
                  0.55                   1

7 0
 s    8 1.00
                  6665  0.00069158396281299
                  1000  0.0053257961529341
                   228   0.027060721042034
                 64.71    0.10165684614077
                 21.06     0.2745748236174
                 7.495    0.44829431892377
                 2.797    0.28490261071525
                0.5215   0.015194859206082
 s    8 1.00
                  6665  -0.00029326965268655
                  1000  -0.0023180354739745
                   228  -0.011499786038565
                 64.71  -0.046826727009787
                 21.06   -0.12846616875047
                 7.495   -0.30126627246289
                 2.797   -0.25563070233011
                0.5215      1.093793361012
 s    1 1.00
                0.1596                   1
 p    3 1.00
                 9.439   0.056979251590039
                 2.002    0.31320721150073
                0.5456    0.76037674173753
 p    1 1.00
                0.1517                   1
 d    1 1.00
                  0.55                   1

8 0
 s    3 1.00
                 13.01   0.033498726389998
                 1.962    0.23480080117413
                0.4446     0.8136829578829
 s    1 1.00
                 0.122                   1
 p    1 1.00
                 0.727                   1

9 0
 s    8 1.00
                  6665  0.00069158396281299
                  1000  0.0053257961529341
                   228   0.027060721042034
                 64.71    0.10165684614077
                 21.06     0.2745748236174
                 7.495    0.44829431892377
                 2.797    0.28490261071525
                0.5215   0.015194859206082
 s    8 1.00
                  6665  -0.00029326965268655
                  1000  -0.0023180354739745
                   228  -0.011499786038565
                 64.71  -0.046826727009787
                 21.06   -0.12846616875047
                 7.495   -0.30126627246289
                 2.797   -0.25563070233011
                0.5215      1.093793361012
 s    1 1.00
                0.1596                   1
 p    3 1.00
                 9.439   0.056979251590039
                 2.002    0.31320721150073
                0.5456    0.76037674173753
 p    1 1.00
                0.1517                   1
 d    1 1.00
                  0.55                   1

10 0
 s    3 1.00
                 13.01   0.033498726389998
                 1.962    0.23480080117413
                0.4446     0.8136829578829
 s    1 1.00
                 0.122                   1
 p    1 1.00
                 0.727                   1

11 0
 s    3 1.00
                 13.01   0.033498726389998
                 1.962    0.23480080117413
                0.4446     0.8136829578829
 s    1 1.00
                 0.122                   1
 p    1 1.00
                 0.727                   1

12 0
 s    3 1.00
                 13.01   0.033498726389998
                 1.962    0.23480080117413
                0.4446     0.8136829578829
 s    1 1.00
                 0.122                   1
 p    1 1.00
                 0.727                   1

13 0
 s    8 1.00
                  6665  0.00069158396281299
                  1000  0.0053257961529341
                   228   0.027060721042034
                 64.71    0.10165684614077
                 21.06     0.2745748236174
                 7.495    0.44829431892377
                 2.797    0.28490261071525
                0.5215   0.015194859206082
 s    8 1.00
                  6665  -0.00029326965268655
                  1000  -0.0023180354739745
                   228  -0.011499786038565
                 64.71  -0.046826727009787
                 21.06   -0.12846616875047
                 7.495   -0.30126627246289
                 2.797   -0.25563070233011
                0.5215      1.093793361012
 s    1 1.00
                0.1596                   1
 p    3 1.00
                 9.439   0.056979251590039
                 2.002    0.31320721150073
                0.5456    0.76037674173753
 p    1 1.00
                0.1517                   1
 d    1 1.00
                  0.55                   1

14 0
 s    3 1.00
                 13.01   0.033498726389998
                 1.962    0.23480080117413
                0.4446     0.8136829578829
 s    1 1.00
                 0.122                   1
 p    1 1.00
                 0.727                   1

15 0
 s    3 1.00
                 13.01   0.033498726389998
                 1.962    0.23480080117413
                0.4446     0.8136829578829
 s    1 1.00
                 0.122                   1
 p    1 1.00
                 0.727                   1

16 0
 s    8 1.00
                  6665  0.00069158396281299
                  1000  0.0053257961529341
                   228   0.027060721042034
                 64.71    0.10165684614077
                 21.06     0.2745748236174
                 7.495    0.44829431892377
                 2.797    0.28490261071525
                0.5215   0.015194859206082
 s    8 1.00
                  6665  -0.00029326965268655
                  1000  -0.0023180354739745
                   228  -0.011499786038565
                 64.71  -0.046826727009787
                 21.06   -0.12846616875047
                 7.495   -0.30126627246289
                 2.797   -0.25563070233011
                0.5215      1.093793361012
 s    1 1.00
                0.1596                   1
 p    3 1.00
                 9.439   0.056979251590039
                 2.002    0.31320721150073
                0.5456    0.76037674173753
 p    1 1.00
                0.1517                   1
 d    1 1.00
                  0.55                   1

17 0
 s    3 1.00
                 13.01   0.033498726389998
                 1.962    0.23480080117413
                0.4446     0.8136829578829
 s    1 1.00
                 0.122                   1
 p    1 1.00
                 0.727                   1

18 0
 s    3 1.00
                 13.01   0.033498726389998
                 1.962    0.23480080117413
                0.4446     0.8136829578829
 s    1 1.00
                 0.122                   1
 p    1 1.00
                 0.727                   1

19 0
 s    8 1.00
                  6665  0.00069158396281299
                  1000  0.0053257961529341
                   228   0.027060721042034
                 64.71    0.10165684614077
                 21.06     0.2745748236174
                 7.495    0.44829431892377
                 2.797    0.28490261071525
                0.5215   0.015194859206082
 s    8 1.00
                  6665  -0.00029326965268655
                  1000  -0.0023180354739745
                   228  -0.011499786038565
                 64.71  -0.046826727009787
                 21.06   -0.12846616875047
                 7.495   -0.30126627246289
                 2.797   -0.25563070233011
                0.5215      1.093793361012
 s    1 1.00
                0.1596                   1
 p    3 1.00
                 9.439   0.056979251590039
                 2.002    0.31320721150073
                0.5456    0.76037674173753
 p    1 1.00
                0.1517                   1
 d    1 1.00
                  0.55                   1

20 0
 s    3 1.00
                 13.01   0.033498726389998
                 1.962    0.23480080117413
                0.4446     0.8136829578829
 s    1 1.00
                 0.122                   1
 p    1 1.00
                 0.727                   1

21 0
 s    8 1.00
                  6665  0.00069158396281299
                  1000  0.0053257961529341
                   228   0.027060721042034
                 64.71    0.10165684614077
                 21.06     0.2745748236174
                 7.495    0.44829431892377
                 2.797    0.28490261071525
                0.5215   0.015194859206082
 s    8 1.00
                  6665  -0.00029326965268655
                  1000  -0.0023180354739745
                   228  -0.011499786038565
                 64.71  -0.046826727009787
                 21.06   -0.12846616875047
                 7.495   -0.30126627246289
                 2.797   -0.25563070233011
                0.5215      1.093793361012
 s    1 1.00
                0.1596                   1
 p    3 1.00
                 9.439   0.056979251590039
                 2.002    0.31320721150073
                0.5456    0.76037674173753
 p    1 1.00
                0.1517                   1
 d    1 1.00
                  0.55                   1

22 0
 s    3 1.00
                 13.01   0.033498726389998
                 1.962    0.23480080117413
                0.4446     0.8136829578829
 s    1 1.00
                 0.122                   1
 p    1 1.00
                 0.727                   1

23 0
 s    3 1.00
                 13.01   0.033498726389998
                 1.962    0.23480080117413
                0.4446     0.8136829578829
 s    1 1.00
                 0.122                   1
 p    1 1.00
                 0.727                   1

24 0
 s    3 1.00
                 13.01   0.033498726389998
                 1.962    0.23480080117413
                0.4446     0.8136829578829
 s    1 1.00
                 0.122                   1
 p    1 1.00
                 0.727                   1

25 0
 s    8 1.00
                  6665  0.00069158396281299
                  1000  0.0053257961529341
                   228   0.027060721042034
                 64.71    0.10165684614077
                 21.06     0.2745748236174
                 7.495    0.44829431892377
                 2.797    0.28490261071525
                0.5215   0.015194859206082
 s    8 1.00
                  6665  -0.00029326965268655
                  1000  -0.0023180354739745
                   228  -0.011499786038565
                 64.71  -0.046826727009787
                 21.06   -0.12846616875047
                 7.495   -0.30126627246289
                 2.797   -0.25563070233011
                0.5215      1.093793361012
 s    1 1.00
                0.1596                   1
 p    3 1.00
                 9.439   0.056979251590039
                 2.002    0.31320721150073
                0.5456    0.76037674173753
 p    1 1.00
                0.1517                   1
 d    1 1.00
                  0.55                   1

26 0
 s    3 1.00
                 13.01   0.033498726389998
                 1.962    0.23480080117413
                0.4446     0.8136829578829
 s    1 1.00
                 0.122                   1
 p    1 1.00
                 0.727                   1

27 0
 s    3 1.00
                 13.01   0.033498726389998
                 1.962    0.23480080117413
                0.4446     0.8136829578829
 s    1 1.00
                 0.122                   1
 p    1 1.00
                 0.727                   1

28 0
 s    8 1.00
                  6665  0.00069158396281299
                  1000  0.0053257961529341
                   228   0.027060721042034
                 64.71    0.10165684614077
                 21.06     0.2745748236174
                 7.495    0.44829431892377
                 2.797    0.28490261071525
                0.5215   0.015194859206082
 s    8 1.00
                  6665  -0.00029326965268655
                  1000  -0.0023180354739745
                   228  -0.011499786038565
                 64.71  -0.046826727009787
                 21.06   -0.12846616875047
                 7.495   -0.30126627246289
                 2.797   -0.25563070233011
                0.5215      1.093793361012
 s    1 1.00
                0.1596                   1
 p    3 1.00
                 9.439   0.056979251590039
                 2.002    0.31320721150073
                0.5456    0.76037674173753
 p    1 1.00
                0.1517                   1
 d    1 1.00
                  0.55                   1

29 0
 s    3 1.00
                 13.01   0.033498726389998
                 1.962    0.23480080117413
                0.4446     0.8136829578829
 s    1 1.00
                 0.122                   1
 p    1 1.00
                 0.727                   1

30 0
 s    3 1.00
                 13.01   0.033498726389998
                 1.962    0.23480080117413
                0.4446     0.8136829578829
 s    1 1.00
                 0.122                   1
 p    1 1.00
                 0.727                   1

31 0
 s    8 1.00
                  6665  0.00069158396281299
                  1000  0.0053257961529341
                   228   0.027060721042034
                 64.71    0.10165684614077
                 21.06     0.2745748236174
                 7.495    0.44829431892377
                 2.797    0.28490261071525
                0.5215   0.015194859206082
 s    8 1.00
                  6665  -0.00029326965268655
                  1000  -0.0023180354739745
                   228  -0.011499786038565
                 64.71  -0.046826727009787
                 21.06   -0.12846616875047
                 7.495   -0.30126627246289
                 2.797   -0.25563070233011
                0.5215      1.093793361012
 s    1 1.00
                0.1596                   1
 p    3 1.00
                 9.439   0.056979251590039
                 2.002    0.31320721150073
                0.5456    0.76037674173753
 p    1 1.00
                0.1517                   1
 d    1 1.00
                  0.55                   1

32 0
 s    3 1.00
                 13.01   0.033498726389998
                 1.962    0.23480080117413
                0.4446     0.8136829578829
 s    1 1.00
                 0.122                   1
 p    1 1.00
                 0.727                   1

33 0
 s    3 1.00
                 13.01   0.033498726389998
                 1.962    0.23480080117413
                0.4446     0.8136829578829
 s    1 1.00
                 0.122                   1
 p    1 1.00
                 0.727                   1

34 0
 s    3 1.00
                 13.01   0.033498726389998
                 1.962    0.23480080117413
                0.4446     0.8136829578829
 s    1 1.00
                 0.122                   1
 p    1 1.00
                 0.727                   1

35 0
 s    3 1.00
                 13.01   0.033498726389998
                 1.962    0.23480080117413
                0.4446     0.8136829578829
 s    1 1.00
                 0.122                   1
 p    1 1.00
                 0.727                   1

36 0
 s    3 1.00
                 13.01   0.033498726389998
                 1.962    0.23480080117413
                0.4446     0.8136829578829
 s    1 1.00
                 0.122                   1
 p    1 1.00
                 0.727                   1

37 0
 s    3 1.00
                 13.01   0.033498726389998
                 1.962    0.23480080117413
                0.4446     0.8136829578829
 s    1 1.00
                 0.122                   1
 p    1 1.00
                 0.727                   1

[5d]
[7f]
[9g]

[MO]
 Sym= A
 Ene=               0
 Spin= Alpha
 Occup=    1.00000
   1    6.0632176702299e-06
   2    3.0037231983022e-06
   3    -5.7660512598527e-05
   4    -1.8857830942162e-05
   5    9.0375184513528e-06
   6    3.857825463138e-05
   7    -2.2085560174152e-05
   8    8.3111098196049e-06
   9    4.1007043259924e-05
  10    -2.4559423043357e-06
  11    2.8512467470399e-07
  12    7.3686835925629e-07
  13    -1.6395916739301e-07
  14    -5.696601568179e-07
  15    -7.3851073591685e-07
  16    4.4702659668616e-05
  17    -8.9634901059713e-06
  18    5.4025771002192e-06
  19    -2.2277254732647e-06
  20    1.1240635266134e-05
  21    1.4644873382846e-05
  22    -5.1597415618945e-07
  23    -4.1812290085928e-06
  24    -9.3531820288627e-07
  25    1.1461131965065e-06
  26    1.8716715845033e-05
  27    5.4040435374686e-05
  28    -0.00022880270178784
  29    0.00015536432713683
  30    0.00010398602506715
  31    -0.00017858604626166
  32    0.00013112188941167
  33    6.1465655033089e-05
  34    -2.6473788063871e-06
  35    -3.3418313504495e-06
  36    2.6434868741228e-06
  37    4.0903383912596e-08
  38    -2.6966120210531e-07
  39    -6.0399205469058e-06
  40    -0.00012504252441367
  41    4.9195875525159e-05
  42    0.00029034761506331
  43    -0.0002220116027692
  44    4.4243311970811e-05
  45    -6.4026265286667e-05
  46    3.0801649701171e-05
  47    -5.414119893052e-05
  48    -2.9141075649383e-05
  49    -3.9096186571787e-05
  50    2.6456401777411e-05
  51    1.1215764438652e-05
  52    -1.7723992046257e-05
  53    -2.9980185347404e-05
  54    7.4196927590268e-05
  55    0.0004351121748143
  56    -0.00019184610582682
  57    0.00013542985457992
  58    0.00010675388237561
  59    -0.00028023732386653
  60    0.00019876945791423
  61    5.6790332615931e-05
  62    3.2964043261708e-07
  63    -2.2587330893172e-05
  64    1.4290119059594e-05
  65    9.1659854717266e-06
  66    -1.3308905215577e-05
  67    -7.4388864933775e-05
  68    0.00023121090882244
  69    0.0011413344593107
  70    -0.0009439633590559
  71    0.00047763543358866
  72    0.00049356528157735
  73    -0.0013151774205081
  74    0.00071526281497422
  75    0.00038283811208981
  76    -3.321909167911e-05
  77    -0.00010528503372491
  78    3.6802715397202e-05
  79    5.4148655551308e-05
  80    -3.4331465361473e-05
  81    -6.1674567145466e-05
  82    -4.0890139423703e-05
  83    -2.6628807814402e-06
  84    2.0084833780092e-06
  85    -3.020655840033e-07
  86    1.5324324826962e-05
  87    4.3505498138449e-05
  88    -0.00028553365467515
  89    -1.9079737943643e-05
  90    1.3657562745817e-05
  91    -5.0616458195707e-05
  92    -0.00018204311349378
  93    0.0001274335183834
  94    7.9707497142965e-05
  95    1.5198378386129e-05
  96    2.847323616569e-06
  97    -1.2816616978702e-05
  98    -1.7856543646654e-07
  99    1.206451171817e-05
 100    -1.867785625604e-05
 101    -3.0117408957353e-05
 102    4.9826329319189e-06
 103    1.4179277336898e-07
 104    7.3139293686084e-06
 105    -0.00022024656343356
 106    -0.00014041928185743
 107    6.8041496964826e-06
 108    -1.074178363416e-05
 109    9.1439596303314e-06
 110    -0.00010464100615995
 111    -8.9028131306441e-05
 112    5.1731553034436e-06
 113    2.2187581106485e-06
 114    1.4187317311002e-05
 115    -2.3043444842796e-05
 116    0.00016992783511198
 117    -0.00089243768361431
 118    0.00063864185519505
 119    -0.00050784393341475
 120    -0.0010422389226157
 121    -5.2243571066738e-05
 122    -0.00019541200467912
 123    0.00021098211392764
 124    2.351638577572e-05
 125    -9.3419200995114e-05
 126    -1.7479059997698e-06
 127    5.6086009476618e-05
 128    -6.7390923819897e-05
 129    -1.5476120903276e-05
 130    -4.7576833043679e-05
 131    1.5280994023066e-05
 132    -3.8132697500968e-06
 133    -6.8554664080214e-06
 134    2.6025971405744e-05
 135    3.7033210918131e-05
 136    2.6474928229929e-06
 137    -5.5493760064179e-06
 138    4.5329370386999e-07
 139    -1.3895490592219e-06
 140    -0.00018681610679353
 141    0.00018831047701868
 142    -8.5197542293152e-05
 143    0.00012592952022139
 144    -6.6066997236757e-05
 145    -0.00020263826586656
 146    0.00015370470733169
 147    0.00011945552245553
 148    -4.802169768889e-06
 149    -1.0867859246836e-05
 150    7.739328415733e-06
 151    6.2614037399156e-06
 152    -1.1146909077214e-05
 153    -0.00066647702318716
 154    -0.0005321170038975
 155    0.00010734251932626
 156    1.0222270726361e-05
 157    2.3069753866674e-07
 158    -0.00020035237750721
 159    -0.00033403160547989
 160    5.4237214993604e-05
 161    -7.6358250048692e-05
 162    -4.876328986527e-05
 163     -0.10070283192432
 164    -0.00066444141521039
 165    0.0046722666000627
 166    -3.2642163366747e-05
 167    5.4236432011215e-08
 168    5.1471515274103e-06
 169    -0.0014290536152046
 170    0.0005512257071138
 171    0.0011921929050389
 172    -7.4907229447301e-05
 173    9.5656015872512e-05
 174    -3.779351186316e-05
 175    -2.860439334813e-05
 176    -1.2832435960456e-05
 177    -0.0002183387639514
 178    -4.5963844425044e-05
 179    1.9336364242371e-05
 180    -8.4482570983559e-06
 181    6.5022890155446e-06
 182     0.004791533162456
 183    1.8213558537958e-05
 184    -0.00018312451690293
 185    -9.9851221054803e-06
 186    2.0747236512304e-05
 187    -1.1372989236809e-05
 188    -8.7195565057131e-05
 189    4.1746983304202e-05
 190    2.2485630685675e-05
 191    -4.9272453185963e-06
 192    -4.9261031208767e-06
 193    7.9694472970706e-06
 194    5.744524775559e-06
 195    -7.4728681741971e-06
 196    -0.00011386895165037
 197    -4.07758292309e-06
 198    1.0199821991488e-06
 199    -7.670018667025e-06
 200    -1.4125637332508e-05
 201    -0.00014361308322385
 202    -3.5394775937296e-05
 203    -8.2061231847836e-06
 204    6.6172408896129e-05
 205    7.4962855782992e-05
 206    -0.00012435314904167
 207    3.6181071040547e-05
 208    -7.0606321366399e-05
 209    -4.6432117555861e-05
 210    5.0242997554337e-05
 211      0.99383110134696
 212    0.0051317753152802
 213    -0.012176969472502
 214    -4.2193875714399e-05
 215    -4.0723364787091e-06
 216    0.0001500910518888
 217    -0.0007239667314843
 218    0.00010399175366567
 219     0.001427277356845
 220    4.4411483337623e-05
 221    5.9300588819553e-05
 222    2.2280427520759e-05
 223    -0.00016498508351263
 224    0.00027431186628129
 225    6.9381051600816e-06
 226    6.4067738202042e-06
 227    1.1626485432882e-06
 228    3.1053772145694e-06
 229    2.0732355954341e-06
 230    1.0218358011249e-05
 231    -2.7825526557844e-05
 232    -3.005251353682e-06
 233    3.168203080892e-06
 234    -2.5543368378076e-06
 235    -0.053675503572217
 236    -0.00027797242090427
 237    0.00059232395194092
 238    -5.3295975074169e-06
 239    1.1067520897612e-05
 240    -1.7603519478076e-06
 241    -8.092280080451e-05
 242    1.0070808978874e-05
 243    7.6577003758915e-05
 244    -1.3714803207288e-06
 245    -8.1538525690069e-06
 246    5.1656822779808e-06
 247     3.21128305353e-06
 248    -6.1771317124059e-06
 249    0.0002092476697686
 250    0.0011771679902175
 251    0.00018553398531552
 252    0.00029331981073831
 253    0.00027114491492188
 254    0.00020922913982077
 255    0.0011869143049415
 256    -0.00020068477938453
 257    -0.00037229220494543
 258    0.00011985631325409
 259     0.066834867371269
 260    0.00026542964105658
 261    0.0020253953976022
 262    9.5285976956487e-05
 263    -7.0394666280937e-05