[Molden Format]
made by pyscf v[2.0.1]
[Atoms] (AU)
O   1   8     0.00000000000000     0.00000000000000     7.16229833633744
H   2   1     0.00000000000000     0.00000000000000     5.33889651443647
H   3   1    -0.05031916615174     1.78353065140343     7.53817003280410
O   4   8     0.00000000000000     0.00000000000000     2.31533471513237
C   5   6     0.00000000000000     0.00000000000000     0.00000000000000
C   6   6     2.01118073026938    -1.40227222164369    -1.50774939176400
C   7   6    -2.01249334291722     1.41331050329955    -1.50315905028694
H   8   1     3.32037363730244    -2.26721897153159    -0.13599698591495
C   9   6     3.45899267434009     0.28739631745591    -3.37437943254505
H   10   1     1.07662969841332    -2.94725144642667    -2.56541439481080
H   11   1    -2.67503415753480     0.18421555839588    -3.06194479365997
H   12   1    -1.07974048864772     3.03851734677796    -2.43674295017013
C   13   6    -4.21607110578555     2.32938802552922     0.11994162256091
H   14   1     4.24440173074564     1.93368664142019    -2.34976285512790
H   15   1     2.15020713235517     1.04714335134846    -4.81494497423699
C   16   6     5.60746363007797    -1.12419643481196    -4.70268606082550
H   17   1    -3.46838323670267     3.50951302338067     1.66946842715333
H   18   1    -5.11873485366228     0.68575958301209     1.04047743976495
C   19   6    -6.18314754751344     3.80909592987882    -1.39656589068747
H   20   1     6.93011263717176    -1.87550812453645    -3.26656317360070
C   21   6     7.06356622236532     0.52877932406334    -6.57829775293605
H   22   1     4.82318879258361    -2.78573437948532    -5.70504560381835
H   23   1    -6.91582688743803     2.61304780074712    -2.95074552451969
H   24   1    -5.26532430573853     5.45420349051338    -2.31005832200284
C   25   6    -8.39941882261433     4.73263980500213     0.21800571437956
H   26   1     7.83338371486801     2.19084139882824    -5.57093109900697
H   27   1     5.73544244039420     1.27376866537418    -8.01071492370229
C   28   6     9.21124858443101    -0.89699110072176    -7.88926949186242
H   29   1    -7.66272760055236     5.92277078003992     1.77035591474408
H   30   1    -9.31497248082589     3.08753015622020     1.12614408368786
C   31   6   -10.35481709231879     6.21833079391143    -1.30905206253246
H   32   1    10.58815905329501    -1.61074586756696    -6.49512691622620
H   33   1    10.23506248045667     0.32468009384095    -9.23072870921204
H   34   1     8.47665842847139    -2.53598436989925    -8.94921964622535
H   35   1    -9.48948872868064     7.90013588951020    -2.18823918416067
H   36   1   -11.93332513000955     6.86460487874102    -0.11255798845995
H   37   1   -11.15126291841033     5.04495968327630    -2.83849898862534
[GTO]
1 0
 s    8 1.00
                 11720  0.00070964594651845
                  1759  0.0054672722921914
                 400.8   0.027823118610189
                 113.7    0.10474773971146
                 37.03    0.28292084635691
                 13.27    0.44849523869833
                 5.025    0.27081688521277
                 1.013    0.01545029160744
 s    8 1.00
                 11720  -0.00031444341168873
                  1759  -0.0024821376810179
                 400.8  -0.012316355381583
                 113.7  -0.050538917343672
                 37.03   -0.13938490331632
                 13.27   -0.32507749481778
                 5.025   -0.22984830758785
                 1.013     1.0953793467883
 s    1 1.00
                0.3023                   1
 p    3 1.00
                  17.7   0.062679166281506
                 3.854    0.33353656587936
                 1.046    0.74123964163973
 p    1 1.00
                0.2753                   1
 d    1 1.00
                 1.185                   1

2 0
 s    3 1.00
                 13.01   0.033498726389998
                 1.962    0.23480080117413
                0.4446     0.8136829578829
 s    1 1.00
                 0.122                   1
 p    1 1.00
                 0.727                   1

3 0
 s    3 1.00
                 13.01   0.033498726389998
                 1.962    0.23480080117413
                0.4446     0.8136829578829
 s    1 1.00
                 0.122                   1
 p    1 1.00
                 0.727                   1

4 0
 s    8 1.00
                 11720  0.00070964594651845
                  1759  0.0054672722921914
                 400.8   0.027823118610189
                 113.7    0.10474773971146
                 37.03    0.28292084635691
                 13.27    0.44849523869833
                 5.025    0.27081688521277
                 1.013    0.01545029160744
 s    8 1.00
                 11720  -0.00031444341168873
                  1759  -0.0024821376810179
                 400.8  -0.012316355381583
                 113.7  -0.050538917343672
                 37.03   -0.13938490331632
                 13.27   -0.32507749481778
                 5.025   -0.22984830758785
                 1.013     1.0953793467883
 s    1 1.00
                0.3023                   1
 p    3 1.00
                  17.7   0.062679166281506
                 3.854    0.33353656587936
                 1.046    0.74123964163973
 p    1 1.00
                0.2753                   1
 d    1 1.00
                 1.185                   1

5 0
 s    8 1.00
                  6665  0.00069158396281299
                  1000  0.0053257961529341
                   228   0.027060721042034
                 64.71    0.10165684614077
                 21.06     0.2745748236174
                 7.495    0.44829431892377
                 2.797    0.28490261071525
                0.5215   0.015194859206082
 s    8 1.00
                  6665  -0.00029326965268655
                  1000  -0.0023180354739745
                   228  -0.011499786038565
                 64.71  -0.046826727009787
                 21.06   -0.12846616875047
                 7.495   -0.30126627246289
                 2.797   -0.25563070233011
                0.5215      1.093793361012
 s    1 1.00
                0.1596                   1
 p    3 1.00
                 9.439   0.056979251590039
                 2.002    0.31320721150073
                0.5456    0.76037674173753
 p    1 1.00
                0.1517                   1
 d    1 1.00
                  0.55                   1

6 0
 s    8 1.00
                  6665  0.00069158396281299
                  1000  0.0053257961529341
                   228   0.027060721042034
                 64.71    0.10165684614077
                 21.06     0.2745748236174
                 7.495    0.44829431892377
                 2.797    0.28490261071525
                0.5215   0.015194859206082
 s    8 1.00
                  6665  -0.00029326965268655
                  1000  -0.0023180354739745
                   228  -0.011499786038565
                 64.71  -0.046826727009787
                 21.06   -0.12846616875047
                 7.495   -0.30126627246289
                 2.797   -0.25563070233011
                0.5215      1.093793361012
 s    1 1.00
                0.1596                   1
 p    3 1.00
                 9.439   0.056979251590039
                 2.002    0.31320721150073
                0.5456    0.76037674173753
 p    1 1.00
                0.1517                   1
 d    1 1.00
                  0.55                   1

7 0
 s    8 1.00
                  6665  0.00069158396281299
                  1000  0.0053257961529341
                   228   0.027060721042034
                 64.71    0.10165684614077
                 21.06     0.2745748236174
                 7.495    0.44829431892377
                 2.797    0.28490261071525
                0.5215   0.015194859206082
 s    8 1.00
                  6665  -0.00029326965268655
                  1000  -0.0023180354739745
                   228  -0.011499786038565
                 64.71  -0.046826727009787
                 21.06   -0.12846616875047
                 7.495   -0.30126627246289
                 2.797   -0.25563070233011
                0.5215      1.093793361012
 s    1 1.00
                0.1596                   1
 p    3 1.00
                 9.439   0.056979251590039
                 2.002    0.31320721150073
                0.5456    0.76037674173753
 p    1 1.00
                0.1517                   1
 d    1 1.00
                  0.55                   1

8 0
 s    3 1.00
                 13.01   0.033498726389998
                 1.962    0.23480080117413
                0.4446     0.8136829578829
 s    1 1.00
                 0.122                   1
 p    1 1.00
                 0.727                   1

9 0
 s    8 1.00
                  6665  0.00069158396281299
                  1000  0.0053257961529341
                   228   0.027060721042034
                 64.71    0.10165684614077
                 21.06     0.2745748236174
                 7.495    0.44829431892377
                 2.797    0.28490261071525
                0.5215   0.015194859206082
 s    8 1.00
                  6665  -0.00029326965268655
                  1000  -0.0023180354739745
                   228  -0.011499786038565
                 64.71  -0.046826727009787
                 21.06   -0.12846616875047
                 7.495   -0.30126627246289
                 2.797   -0.25563070233011
                0.5215      1.093793361012
 s    1 1.00
                0.1596                   1
 p    3 1.00
                 9.439   0.056979251590039
                 2.002    0.31320721150073
                0.5456    0.76037674173753
 p    1 1.00
                0.1517                   1
 d    1 1.00
                  0.55                   1

10 0
 s    3 1.00
                 13.01   0.033498726389998
                 1.962    0.23480080117413
                0.4446     0.8136829578829
 s    1 1.00
                 0.122                   1
 p    1 1.00
                 0.727                   1

11 0
 s    3 1.00
                 13.01   0.033498726389998
                 1.962    0.23480080117413
                0.4446     0.8136829578829
 s    1 1.00
                 0.122                   1
 p    1 1.00
                 0.727                   1

12 0
 s    3 1.00
                 13.01   0.033498726389998
                 1.962    0.23480080117413
                0.4446     0.8136829578829
 s    1 1.00
                 0.122                   1
 p    1 1.00
                 0.727                   1

13 0
 s    8 1.00
                  6665  0.00069158396281299
                  1000  0.0053257961529341
                   228   0.027060721042034
                 64.71    0.10165684614077
                 21.06     0.2745748236174
                 7.495    0.44829431892377
                 2.797    0.28490261071525
                0.5215   0.015194859206082
 s    8 1.00
                  6665  -0.00029326965268655
                  1000  -0.0023180354739745
                   228  -0.011499786038565
                 64.71  -0.046826727009787
                 21.06   -0.12846616875047
                 7.495   -0.30126627246289
                 2.797   -0.25563070233011
                0.5215      1.093793361012
 s    1 1.00
                0.1596                   1
 p    3 1.00
                 9.439   0.056979251590039
                 2.002    0.31320721150073
                0.5456    0.76037674173753
 p    1 1.00
                0.1517                   1
 d    1 1.00
                  0.55                   1

14 0
 s    3 1.00
                 13.01   0.033498726389998
                 1.962    0.23480080117413
                0.4446     0.8136829578829
 s    1 1.00
                 0.122                   1
 p    1 1.00
                 0.727                   1

15 0
 s    3 1.00
                 13.01   0.033498726389998
                 1.962    0.23480080117413
                0.4446     0.8136829578829
 s    1 1.00
                 0.122                   1
 p    1 1.00
                 0.727                   1

16 0
 s    8 1.00
                  6665  0.00069158396281299
                  1000  0.0053257961529341
                   228   0.027060721042034
                 64.71    0.10165684614077
                 21.06     0.2745748236174
                 7.495    0.44829431892377
                 2.797    0.28490261071525
                0.5215   0.015194859206082
 s    8 1.00
                  6665  -0.00029326965268655
                  1000  -0.0023180354739745
                   228  -0.011499786038565
                 64.71  -0.046826727009787
                 21.06   -0.12846616875047
                 7.495   -0.30126627246289
                 2.797   -0.25563070233011
                0.5215      1.093793361012
 s    1 1.00
                0.1596                   1
 p    3 1.00
                 9.439   0.056979251590039
                 2.002    0.31320721150073
                0.5456    0.76037674173753
 p    1 1.00
                0.1517                   1
 d    1 1.00
                  0.55                   1

17 0
 s    3 1.00
                 13.01   0.033498726389998
                 1.962    0.23480080117413
                0.4446     0.8136829578829
 s    1 1.00
                 0.122                   1
 p    1 1.00
                 0.727                   1

18 0
 s    3 1.00
                 13.01   0.033498726389998
                 1.962    0.23480080117413
                0.4446     0.8136829578829
 s    1 1.00
                 0.122                   1
 p    1 1.00
                 0.727                   1

19 0
 s    8 1.00
                  6665  0.00069158396281299
                  1000  0.0053257961529341
                   228   0.027060721042034
                 64.71    0.10165684614077
                 21.06     0.2745748236174
                 7.495    0.44829431892377
                 2.797    0.28490261071525
                0.5215   0.015194859206082
 s    8 1.00
                  6665  -0.00029326965268655
                  1000  -0.0023180354739745
                   228  -0.011499786038565
                 64.71  -0.046826727009787
                 21.06   -0.12846616875047
                 7.495   -0.30126627246289
                 2.797   -0.25563070233011
                0.5215      1.093793361012
 s    1 1.00
                0.1596                   1
 p    3 1.00
                 9.439   0.056979251590039
                 2.002    0.31320721150073
                0.5456    0.76037674173753
 p    1 1.00
                0.1517                   1
 d    1 1.00
                  0.55                   1

20 0
 s    3 1.00
                 13.01   0.033498726389998
                 1.962    0.23480080117413
                0.4446     0.8136829578829
 s    1 1.00
                 0.122                   1
 p    1 1.00
                 0.727                   1

21 0
 s    8 1.00
                  6665  0.00069158396281299
                  1000  0.0053257961529341
                   228   0.027060721042034
                 64.71    0.10165684614077
                 21.06     0.2745748236174
                 7.495    0.44829431892377
                 2.797    0.28490261071525
                0.5215   0.015194859206082
 s    8 1.00
                  6665  -0.00029326965268655
                  1000  -0.0023180354739745
                   228  -0.011499786038565
                 64.71  -0.046826727009787
                 21.06   -0.12846616875047
                 7.495   -0.30126627246289
                 2.797   -0.25563070233011
                0.5215      1.093793361012
 s    1 1.00
                0.1596                   1
 p    3 1.00
                 9.439   0.056979251590039
                 2.002    0.31320721150073
                0.5456    0.76037674173753
 p    1 1.00
                0.1517                   1
 d    1 1.00
                  0.55                   1

22 0
 s    3 1.00
                 13.01   0.033498726389998
                 1.962    0.23480080117413
                0.4446     0.8136829578829
 s    1 1.00
                 0.122                   1
 p    1 1.00
                 0.727                   1

23 0
 s    3 1.00
                 13.01   0.033498726389998
                 1.962    0.23480080117413
                0.4446     0.8136829578829
 s    1 1.00
                 0.122                   1
 p    1 1.00
                 0.727                   1

24 0
 s    3 1.00
                 13.01   0.033498726389998
                 1.962    0.23480080117413
                0.4446     0.8136829578829
 s    1 1.00
                 0.122                   1
 p    1 1.00
                 0.727                   1

25 0
 s    8 1.00
                  6665  0.00069158396281299
                  1000  0.0053257961529341
                   228   0.027060721042034
                 64.71    0.10165684614077
                 21.06     0.2745748236174
                 7.495    0.44829431892377
                 2.797    0.28490261071525
                0.5215   0.015194859206082
 s    8 1.00
                  6665  -0.00029326965268655
                  1000  -0.0023180354739745
                   228  -0.011499786038565
                 64.71  -0.046826727009787
                 21.06   -0.12846616875047
                 7.495   -0.30126627246289
                 2.797   -0.25563070233011
                0.5215      1.093793361012
 s    1 1.00
                0.1596                   1
 p    3 1.00
                 9.439   0.056979251590039
                 2.002    0.31320721150073
                0.5456    0.76037674173753
 p    1 1.00
                0.1517                   1
 d    1 1.00
                  0.55                   1

26 0
 s    3 1.00
                 13.01   0.033498726389998
                 1.962    0.23480080117413
                0.4446     0.8136829578829
 s    1 1.00
                 0.122                   1
 p    1 1.00
                 0.727                   1

27 0
 s    3 1.00
                 13.01   0.033498726389998
                 1.962    0.23480080117413
                0.4446     0.8136829578829
 s    1 1.00
                 0.122                   1
 p    1 1.00
                 0.727                   1

28 0
 s    8 1.00
                  6665  0.00069158396281299
                  1000  0.0053257961529341
                   228   0.027060721042034
                 64.71    0.10165684614077
                 21.06     0.2745748236174
                 7.495    0.44829431892377
                 2.797    0.28490261071525
                0.5215   0.015194859206082
 s    8 1.00
                  6665  -0.00029326965268655
                  1000  -0.0023180354739745
                   228  -0.011499786038565
                 64.71  -0.046826727009787
                 21.06   -0.12846616875047
                 7.495   -0.30126627246289
                 2.797   -0.25563070233011
                0.5215      1.093793361012
 s    1 1.00
                0.1596                   1
 p    3 1.00
                 9.439   0.056979251590039
                 2.002    0.31320721150073
                0.5456    0.76037674173753
 p    1 1.00
                0.1517                   1
 d    1 1.00
                  0.55                   1

29 0
 s    3 1.00
                 13.01   0.033498726389998
                 1.962    0.23480080117413
                0.4446     0.8136829578829
 s    1 1.00
                 0.122                   1
 p    1 1.00
                 0.727                   1

30 0
 s    3 1.00
                 13.01   0.033498726389998
                 1.962    0.23480080117413
                0.4446     0.8136829578829
 s    1 1.00
                 0.122                   1
 p    1 1.00
                 0.727                   1

31 0
 s    8 1.00
                  6665  0.00069158396281299
                  1000  0.0053257961529341
                   228   0.027060721042034
                 64.71    0.10165684614077
                 21.06     0.2745748236174
                 7.495    0.44829431892377
                 2.797    0.28490261071525
                0.5215   0.015194859206082
 s    8 1.00
                  6665  -0.00029326965268655
                  1000  -0.0023180354739745
                   228  -0.011499786038565
                 64.71  -0.046826727009787
                 21.06   -0.12846616875047
                 7.495   -0.30126627246289
                 2.797   -0.25563070233011
                0.5215      1.093793361012
 s    1 1.00
                0.1596                   1
 p    3 1.00
                 9.439   0.056979251590039
                 2.002    0.31320721150073
                0.5456    0.76037674173753
 p    1 1.00
                0.1517                   1
 d    1 1.00
                  0.55                   1

32 0
 s    3 1.00
                 13.01   0.033498726389998
                 1.962    0.23480080117413
                0.4446     0.8136829578829
 s    1 1.00
                 0.122                   1
 p    1 1.00
                 0.727                   1

33 0
 s    3 1.00
                 13.01   0.033498726389998
                 1.962    0.23480080117413
                0.4446     0.8136829578829
 s    1 1.00
                 0.122                   1
 p    1 1.00
                 0.727                   1

34 0
 s    3 1.00
                 13.01   0.033498726389998
                 1.962    0.23480080117413
                0.4446     0.8136829578829
 s    1 1.00
                 0.122                   1
 p    1 1.00
                 0.727                   1

35 0
 s    3 1.00
                 13.01   0.033498726389998
                 1.962    0.23480080117413
                0.4446     0.8136829578829
 s    1 1.00
                 0.122                   1
 p    1 1.00
                 0.727                   1

36 0
 s    3 1.00
                 13.01   0.033498726389998
                 1.962    0.23480080117413
                0.4446     0.8136829578829
 s    1 1.00
                 0.122                   1
 p    1 1.00
                 0.727                   1

37 0
 s    3 1.00
                 13.01   0.033498726389998
                 1.962    0.23480080117413
                0.4446     0.8136829578829
 s    1 1.00
                 0.122                   1
 p    1 1.00
                 0.727                   1

[5d]
[7f]
[9g]

[MO]
 Sym= A
 Ene=               0
 Spin= Alpha
 Occup=    1.00000
   1    -1.9636381016602e-08
   2    3.1547122394953e-06
   3    9.7254806957056e-06
   4    -7.746067870192e-06
   5    -5.2622815541494e-07
   6    -1.5842073501438e-05
   7    -5.5824280013139e-06
   8    -4.2756654732633e-07
   9    -1.2950334532677e-05
  10    1.0267943761428e-06
  11    -6.7672350421032e-07
  12    -2.310045248909e-08
  13    -1.6770282775776e-08
  14    -1.6200418678079e-07
  15    3.7115733734601e-06
  16    -6.9145581020614e-06
  17    -2.7087076210315e-06
  18    -1.3916685229082e-07
  19    -2.5846013691895e-06
  20    -1.97233947649e-06
  21    -4.0194680149063e-06
  22    -5.3973839116604e-07
  23    4.7375944589117e-07
  24    -5.1223739501921e-08
  25    1.8410283307833e-07
  26    9.8961752444284e-06
  27    -4.8669544361441e-06
  28    3.3594962621718e-05
  29    -7.4299488669109e-05
  30    -8.2835616716535e-05
  31    0.00011180201839258
  32    -0.00010276636800725
  33    -9.1918940543427e-05
  34    4.8121228510787e-06
  35    2.0871699789252e-06
  36    -5.6981875101928e-07
  37    1.247880580305e-06
  38    1.0169710919177e-06
  39    4.7984814110432e-05
  40    5.3092589099026e-06
  41    -0.00087856249169663
  42    -0.00014102681486681
  43    0.00013308243974972
  44    0.00011839345872746
  45    -0.00048132425090455
  46    0.00028082897126364
  47    0.00033083158423469
  48    8.3366372731818e-06
  49    3.5526697011907e-05
  50    -2.5195963784072e-05
  51    -9.9724914431389e-06
  52    3.3489481455809e-05
  53    -2.6329076195353e-05
  54    6.6795323552654e-05
  55    0.00064369465358947
  56    0.00021239232021047
  57    5.5367026329503e-05
  58    -0.00023427130679118
  59    -0.00028780465021327
  60     0.000211398932561
  61    0.00019347657387596
  62    -6.4333715942487e-06
  63    1.9557618650929e-05
  64    1.0871803120349e-06
  65    -2.4041609819798e-05
  66    -5.3249452319726e-06
  67    -7.7537474093828e-06
  68    -1.0921494795364e-05
  69    0.00024129161856518
  70    3.0525680624444e-05
  71    -7.5841861396913e-05
  72    4.5409117969136e-05
  73    -0.00016305631207043
  74    1.3059201323197e-05
  75    0.00011692537109513
  76    -1.0040532342318e-06
  77    -1.6652244820525e-05
  78    2.248404170876e-06
  79    1.6962666912022e-05
  80    8.8654712120615e-07
  81    6.6296241219602e-05
  82    1.9223801175335e-05
  83    1.9528773748796e-05
  84    -5.1135237781131e-06
  85    -2.1376496869298e-05
  86    9.8662303093027e-05
  87    -0.00020901020042243
  88    -0.0017159992192959
  89    -0.00090010235247472
  90    0.00049672670636495
  91    0.00059279737943088
  92    -0.0011636618919794
  93    0.00059060640305937
  94    0.00078438731607106
  95    1.9019128834756e-05
  96    8.0973011366696e-05
  97    -7.5151812454178e-05
  98    -5.9478788116109e-05
  99    9.9223784765542e-05
 100    7.2562393843404e-05
 101    1.3234921074548e-05
 102    2.9814431765701e-05
 103    -4.6339477701417e-06
 104    -2.084469537386e-05
 105    -1.7284366588851e-06
 106    5.9271140784807e-06
 107    1.7209595603038e-05
 108    -4.5461633437626e-06
 109    -1.2577597994253e-07
 110    -2.4273384832401e-05
 111    -5.8512408141443e-05
 112    5.6898139994966e-06
 113    4.4503679308511e-06
 114    -2.5653516947059e-06
 115    1.1847855356949e-05
 116    0.00013162663413589
 117    -0.00018431541425226
 118    -0.00010613572868164
 119    -0.00018033293948739
 120    6.7550491546437e-05
 121    -0.00027407090776963
 122    7.3161598746337e-05
 123    8.7290175645746e-05
 124    -3.3695019594954e-06
 125    1.0232873850858e-05
 126    -1.365677207816e-05
 127    -1.2153222967787e-05
 128    1.3166566318881e-05
 129    0.00020071657628603
 130    0.00010569358726627
 131    2.2694002824651e-06
 132      2.1658377885e-06
 133    -4.6946540328728e-06
 134    0.00019532795547854
 135    0.00014313259081083
 136    1.8280452134075e-06
 137    2.8050822593986e-06
 138    3.4805129378357e-06
 139    9.3784504106394e-05
 140    -0.00029323278099918
 141    5.1020406079682e-05
 142    0.00085338268748818
 143    -0.00083223109534186
 144    -0.00041031786717135
 145    -0.00081869595660257
 146    0.00010629731967515
 147    0.00069158595599786
 148    1.8186562078693e-05
 149    0.00012836429197386
 150    2.5858172596824e-05
 151    -1.1575425943335e-05
 152    3.0878894240616e-05
 153    -3.3547290180538e-05
 154    -6.7652618396187e-05
 155    3.8542423124363e-06
 156    -7.4757147366757e-06
 157    5.6748438062788e-06
 158    0.00025256926220358
 159    6.9064710502466e-05
 160    1.4351282285982e-05
 161    7.2444319530586e-06
 162    -1.0495274868716e-05
 163    -0.0029475905302364
 164    -8.3779497735579e-06
 165    1.7921151706246e-05
 166    -2.0324695640714e-05
 167    -2.4296351311498e-05
 168    8.7053591536564e-06
 169    -7.8031414830488e-05
 170    7.4685154532338e-06
 171    1.0766199996952e-05
 172    5.3534674816612e-08
 173    -1.8038468068668e-06
 174    -4.5992664176757e-06
 175    -7.8786145518023e-06
 176    -3.0019828175359e-06
 177    0.0003400508532834
 178    0.00039181616833927
 179    8.1904376177366e-05
 180    -4.4622556827589e-05
 181    -0.00010360072513582
 182      0.10322684369339
 183    0.00040446842462524
 184    -0.0028384856743695
 185    -4.705975304374e-07
 186    4.9445647163179e-06
 187    -1.0393849614295e-06
 188    -0.0011194620435609
 189    0.00044033896712261
 190    0.00079134975166581
 191    -5.3313506430893e-05
 192    -7.9021139451076e-05
 193    2.1218157741252e-05
 194    -1.6532470553017e-05
 195    -9.8560360960962e-05
 196    0.00032517452534279
 197    0.00040644460855399
 198    0.00012691687015625
 199    -2.4927173088942e-05
 200    -5.1180487053104e-05
 201    7.7435533037665e-06
 202    -1.6036924664806e-05
 203    1.2131881955822e-06
 204    2.0936819168724e-06
 205    2.4217344171187e-06
 206    -1.1261988724406e-05
 207    3.4553411906611e-05
 208    7.1583211461308e-07
 209    -2.9230084124925e-06
 210    1.7047364060868e-06
 211     0.015984969509513
 212    9.3302308712409e-05
 213    -0.00021108616976324
 214    2.4069577061631e-06
 215    -6.9235814088682e-06
 216    6.1945188533158e-06
 217    -7.9450849689642e-05
 218    4.9598304548177e-05
 219    -8.1375680101204e-07
 220    1.6252461088006e-06
 221    2.1247649769651e-06
 222    -1.2742771807782e-06
 223    -4.1689080350016e-06
 224    5.2094596105152e-06
 225    9.0451837596469e-05
 226    4.9140693968672e-05
 227    -5.5348145831115e-06
 228    7.8076088983549e-05
 229    4.6187329747549e-05
 230    9.1331363935317e-05
 231    3.5319490914526e-05
 232    -7.065996029569e-05
 233    5.0419617618325e-05
 234    -3.0570164208245e-05
 235     -0.99696476909489
 236    -0.0048642297585014
 237    0.0099258252829788
 238    -0.00012551714563771
 239    0.0001196978756523
 240    6.8991244625536e-05
 241    -0.00099510614633773
 242    0.00023209036151343
 243    0.00076532801604138
 244    -4.3724322951791e-05
 245    -0.00011825565843084
 246    8.435125276983e-05
 247    5.313539701758e-05
 248    -0.00013948944361739
 249    9.2287098149915e-06
 250    2.1058935117966e-05
 251    5.2074252786847e-06
 252    1.7988494850889e-06
 253    5.8849369871924e-06
 254    1.3994684525287e-05
 255    2.4791846150488e-05
 256    2.2624897390146e-07
 257    -7.0154656941656e-06
 258    4.1230205517115e-06
 259    0.0009660841181336
 260    1.1141772972085e-05
 261    -2.9521797097605e-05
 262    5.7810905938313e-07
 263    -2.8300440994025e-07