[Molden Format]
made by pyscf v[2.0.1]
[Atoms] (AU)
O   1   8     0.00000000000000     0.00000000000000     7.91818878616346
H   2   1     0.00000000000000     0.00000000000000     6.09478696426249
H   3   1    -0.05031916615174     1.78353065140343     8.29406048263013
O   4   8     0.00000000000000     0.00000000000000     2.31533471513237
C   5   6     0.00000000000000     0.00000000000000     0.00000000000000
C   6   6     2.01118073026938    -1.40227222164369    -1.50774939176400
C   7   6    -2.01249334291722     1.41331050329955    -1.50315905028694
H   8   1     3.32037363730244    -2.26721897153159    -0.13599698591495
C   9   6     3.45899267434009     0.28739631745591    -3.37437943254505
H   10   1     1.07662969841332    -2.94725144642667    -2.56541439481080
H   11   1    -2.67503415753480     0.18421555839588    -3.06194479365997
H   12   1    -1.07974048864772     3.03851734677796    -2.43674295017013
C   13   6    -4.21607110578555     2.32938802552922     0.11994162256091
H   14   1     4.24440173074564     1.93368664142019    -2.34976285512790
H   15   1     2.15020713235517     1.04714335134846    -4.81494497423699
C   16   6     5.60746363007797    -1.12419643481196    -4.70268606082550
H   17   1    -3.46838323670267     3.50951302338067     1.66946842715333
H   18   1    -5.11873485366228     0.68575958301209     1.04047743976495
C   19   6    -6.18314754751344     3.80909592987882    -1.39656589068747
H   20   1     6.93011263717176    -1.87550812453645    -3.26656317360070
C   21   6     7.06356622236532     0.52877932406334    -6.57829775293605
H   22   1     4.82318879258361    -2.78573437948532    -5.70504560381835
H   23   1    -6.91582688743803     2.61304780074712    -2.95074552451969
H   24   1    -5.26532430573853     5.45420349051338    -2.31005832200284
C   25   6    -8.39941882261433     4.73263980500213     0.21800571437956
H   26   1     7.83338371486801     2.19084139882824    -5.57093109900697
H   27   1     5.73544244039420     1.27376866537418    -8.01071492370229
C   28   6     9.21124858443101    -0.89699110072176    -7.88926949186242
H   29   1    -7.66272760055236     5.92277078003992     1.77035591474408
H   30   1    -9.31497248082589     3.08753015622020     1.12614408368786
C   31   6   -10.35481709231879     6.21833079391143    -1.30905206253246
H   32   1    10.58815905329501    -1.61074586756696    -6.49512691622620
H   33   1    10.23506248045667     0.32468009384095    -9.23072870921204
H   34   1     8.47665842847139    -2.53598436989925    -8.94921964622535
H   35   1    -9.48948872868064     7.90013588951020    -2.18823918416067
H   36   1   -11.93332513000955     6.86460487874102    -0.11255798845995
H   37   1   -11.15126291841033     5.04495968327630    -2.83849898862534
[GTO]
1 0
 s    8 1.00
                 11720  0.00070964594651845
                  1759  0.0054672722921914
                 400.8   0.027823118610189
                 113.7    0.10474773971146
                 37.03    0.28292084635691
                 13.27    0.44849523869833
                 5.025    0.27081688521277
                 1.013    0.01545029160744
 s    8 1.00
                 11720  -0.00031444341168873
                  1759  -0.0024821376810179
                 400.8  -0.012316355381583
                 113.7  -0.050538917343672
                 37.03   -0.13938490331632
                 13.27   -0.32507749481778
                 5.025   -0.22984830758785
                 1.013     1.0953793467883
 s    1 1.00
                0.3023                   1
 p    3 1.00
                  17.7   0.062679166281506
                 3.854    0.33353656587936
                 1.046    0.74123964163973
 p    1 1.00
                0.2753                   1
 d    1 1.00
                 1.185                   1

2 0
 s    3 1.00
                 13.01   0.033498726389998
                 1.962    0.23480080117413
                0.4446     0.8136829578829
 s    1 1.00
                 0.122                   1
 p    1 1.00
                 0.727                   1

3 0
 s    3 1.00
                 13.01   0.033498726389998
                 1.962    0.23480080117413
                0.4446     0.8136829578829
 s    1 1.00
                 0.122                   1
 p    1 1.00
                 0.727                   1

4 0
 s    8 1.00
                 11720  0.00070964594651845
                  1759  0.0054672722921914
                 400.8   0.027823118610189
                 113.7    0.10474773971146
                 37.03    0.28292084635691
                 13.27    0.44849523869833
                 5.025    0.27081688521277
                 1.013    0.01545029160744
 s    8 1.00
                 11720  -0.00031444341168873
                  1759  -0.0024821376810179
                 400.8  -0.012316355381583
                 113.7  -0.050538917343672
                 37.03   -0.13938490331632
                 13.27   -0.32507749481778
                 5.025   -0.22984830758785
                 1.013     1.0953793467883
 s    1 1.00
                0.3023                   1
 p    3 1.00
                  17.7   0.062679166281506
                 3.854    0.33353656587936
                 1.046    0.74123964163973
 p    1 1.00
                0.2753                   1
 d    1 1.00
                 1.185                   1

5 0
 s    8 1.00
                  6665  0.00069158396281299
                  1000  0.0053257961529341
                   228   0.027060721042034
                 64.71    0.10165684614077
                 21.06     0.2745748236174
                 7.495    0.44829431892377
                 2.797    0.28490261071525
                0.5215   0.015194859206082
 s    8 1.00
                  6665  -0.00029326965268655
                  1000  -0.0023180354739745
                   228  -0.011499786038565
                 64.71  -0.046826727009787
                 21.06   -0.12846616875047
                 7.495   -0.30126627246289
                 2.797   -0.25563070233011
                0.5215      1.093793361012
 s    1 1.00
                0.1596                   1
 p    3 1.00
                 9.439   0.056979251590039
                 2.002    0.31320721150073
                0.5456    0.76037674173753
 p    1 1.00
                0.1517                   1
 d    1 1.00
                  0.55                   1

6 0
 s    8 1.00
                  6665  0.00069158396281299
                  1000  0.0053257961529341
                   228   0.027060721042034
                 64.71    0.10165684614077
                 21.06     0.2745748236174
                 7.495    0.44829431892377
                 2.797    0.28490261071525
                0.5215   0.015194859206082
 s    8 1.00
                  6665  -0.00029326965268655
                  1000  -0.0023180354739745
                   228  -0.011499786038565
                 64.71  -0.046826727009787
                 21.06   -0.12846616875047
                 7.495   -0.30126627246289
                 2.797   -0.25563070233011
                0.5215      1.093793361012
 s    1 1.00
                0.1596                   1
 p    3 1.00
                 9.439   0.056979251590039
                 2.002    0.31320721150073
                0.5456    0.76037674173753
 p    1 1.00
                0.1517                   1
 d    1 1.00
                  0.55                   1

7 0
 s    8 1.00
                  6665  0.00069158396281299
                  1000  0.0053257961529341
                   228   0.027060721042034
                 64.71    0.10165684614077
                 21.06     0.2745748236174
                 7.495    0.44829431892377
                 2.797    0.28490261071525
                0.5215   0.015194859206082
 s    8 1.00
                  6665  -0.00029326965268655
                  1000  -0.0023180354739745
                   228  -0.011499786038565
                 64.71  -0.046826727009787
                 21.06   -0.12846616875047
                 7.495   -0.30126627246289
                 2.797   -0.25563070233011
                0.5215      1.093793361012
 s    1 1.00
                0.1596                   1
 p    3 1.00
                 9.439   0.056979251590039
                 2.002    0.31320721150073
                0.5456    0.76037674173753
 p    1 1.00
                0.1517                   1
 d    1 1.00
                  0.55                   1

8 0
 s    3 1.00
                 13.01   0.033498726389998
                 1.962    0.23480080117413
                0.4446     0.8136829578829
 s    1 1.00
                 0.122                   1
 p    1 1.00
                 0.727                   1

9 0
 s    8 1.00
                  6665  0.00069158396281299
                  1000  0.0053257961529341
                   228   0.027060721042034
                 64.71    0.10165684614077
                 21.06     0.2745748236174
                 7.495    0.44829431892377
                 2.797    0.28490261071525
                0.5215   0.015194859206082
 s    8 1.00
                  6665  -0.00029326965268655
                  1000  -0.0023180354739745
                   228  -0.011499786038565
                 64.71  -0.046826727009787
                 21.06   -0.12846616875047
                 7.495   -0.30126627246289
                 2.797   -0.25563070233011
                0.5215      1.093793361012
 s    1 1.00
                0.1596                   1
 p    3 1.00
                 9.439   0.056979251590039
                 2.002    0.31320721150073
                0.5456    0.76037674173753
 p    1 1.00
                0.1517                   1
 d    1 1.00
                  0.55                   1

10 0
 s    3 1.00
                 13.01   0.033498726389998
                 1.962    0.23480080117413
                0.4446     0.8136829578829
 s    1 1.00
                 0.122                   1
 p    1 1.00
                 0.727                   1

11 0
 s    3 1.00
                 13.01   0.033498726389998
                 1.962    0.23480080117413
                0.4446     0.8136829578829
 s    1 1.00
                 0.122                   1
 p    1 1.00
                 0.727                   1

12 0
 s    3 1.00
                 13.01   0.033498726389998
                 1.962    0.23480080117413
                0.4446     0.8136829578829
 s    1 1.00
                 0.122                   1
 p    1 1.00
                 0.727                   1

13 0
 s    8 1.00
                  6665  0.00069158396281299
                  1000  0.0053257961529341
                   228   0.027060721042034
                 64.71    0.10165684614077
                 21.06     0.2745748236174
                 7.495    0.44829431892377
                 2.797    0.28490261071525
                0.5215   0.015194859206082
 s    8 1.00
                  6665  -0.00029326965268655
                  1000  -0.0023180354739745
                   228  -0.011499786038565
                 64.71  -0.046826727009787
                 21.06   -0.12846616875047
                 7.495   -0.30126627246289
                 2.797   -0.25563070233011
                0.5215      1.093793361012
 s    1 1.00
                0.1596                   1
 p    3 1.00
                 9.439   0.056979251590039
                 2.002    0.31320721150073
                0.5456    0.76037674173753
 p    1 1.00
                0.1517                   1
 d    1 1.00
                  0.55                   1

14 0
 s    3 1.00
                 13.01   0.033498726389998
                 1.962    0.23480080117413
                0.4446     0.8136829578829
 s    1 1.00
                 0.122                   1
 p    1 1.00
                 0.727                   1

15 0
 s    3 1.00
                 13.01   0.033498726389998
                 1.962    0.23480080117413
                0.4446     0.8136829578829
 s    1 1.00
                 0.122                   1
 p    1 1.00
                 0.727                   1

16 0
 s    8 1.00
                  6665  0.00069158396281299
                  1000  0.0053257961529341
                   228   0.027060721042034
                 64.71    0.10165684614077
                 21.06     0.2745748236174
                 7.495    0.44829431892377
                 2.797    0.28490261071525
                0.5215   0.015194859206082
 s    8 1.00
                  6665  -0.00029326965268655
                  1000  -0.0023180354739745
                   228  -0.011499786038565
                 64.71  -0.046826727009787
                 21.06   -0.12846616875047
                 7.495   -0.30126627246289
                 2.797   -0.25563070233011
                0.5215      1.093793361012
 s    1 1.00
                0.1596                   1
 p    3 1.00
                 9.439   0.056979251590039
                 2.002    0.31320721150073
                0.5456    0.76037674173753
 p    1 1.00
                0.1517                   1
 d    1 1.00
                  0.55                   1

17 0
 s    3 1.00
                 13.01   0.033498726389998
                 1.962    0.23480080117413
                0.4446     0.8136829578829
 s    1 1.00
                 0.122                   1
 p    1 1.00
                 0.727                   1

18 0
 s    3 1.00
                 13.01   0.033498726389998
                 1.962    0.23480080117413
                0.4446     0.8136829578829
 s    1 1.00
                 0.122                   1
 p    1 1.00
                 0.727                   1

19 0
 s    8 1.00
                  6665  0.00069158396281299
                  1000  0.0053257961529341
                   228   0.027060721042034
                 64.71    0.10165684614077
                 21.06     0.2745748236174
                 7.495    0.44829431892377
                 2.797    0.28490261071525
                0.5215   0.015194859206082
 s    8 1.00
                  6665  -0.00029326965268655
                  1000  -0.0023180354739745
                   228  -0.011499786038565
                 64.71  -0.046826727009787
                 21.06   -0.12846616875047
                 7.495   -0.30126627246289
                 2.797   -0.25563070233011
                0.5215      1.093793361012
 s    1 1.00
                0.1596                   1
 p    3 1.00
                 9.439   0.056979251590039
                 2.002    0.31320721150073
                0.5456    0.76037674173753
 p    1 1.00
                0.1517                   1
 d    1 1.00
                  0.55                   1

20 0
 s    3 1.00
                 13.01   0.033498726389998
                 1.962    0.23480080117413
                0.4446     0.8136829578829
 s    1 1.00
                 0.122                   1
 p    1 1.00
                 0.727                   1

21 0
 s    8 1.00
                  6665  0.00069158396281299
                  1000  0.0053257961529341
                   228   0.027060721042034
                 64.71    0.10165684614077
                 21.06     0.2745748236174
                 7.495    0.44829431892377
                 2.797    0.28490261071525
                0.5215   0.015194859206082
 s    8 1.00
                  6665  -0.00029326965268655
                  1000  -0.0023180354739745
                   228  -0.011499786038565
                 64.71  -0.046826727009787
                 21.06   -0.12846616875047
                 7.495   -0.30126627246289
                 2.797   -0.25563070233011
                0.5215      1.093793361012
 s    1 1.00
                0.1596                   1
 p    3 1.00
                 9.439   0.056979251590039
                 2.002    0.31320721150073
                0.5456    0.76037674173753
 p    1 1.00
                0.1517                   1
 d    1 1.00
                  0.55                   1

22 0
 s    3 1.00
                 13.01   0.033498726389998
                 1.962    0.23480080117413
                0.4446     0.8136829578829
 s    1 1.00
                 0.122                   1
 p    1 1.00
                 0.727                   1

23 0
 s    3 1.00
                 13.01   0.033498726389998
                 1.962    0.23480080117413
                0.4446     0.8136829578829
 s    1 1.00
                 0.122                   1
 p    1 1.00
                 0.727                   1

24 0
 s    3 1.00
                 13.01   0.033498726389998
                 1.962    0.23480080117413
                0.4446     0.8136829578829
 s    1 1.00
                 0.122                   1
 p    1 1.00
                 0.727                   1

25 0
 s    8 1.00
                  6665  0.00069158396281299
                  1000  0.0053257961529341
                   228   0.027060721042034
                 64.71    0.10165684614077
                 21.06     0.2745748236174
                 7.495    0.44829431892377
                 2.797    0.28490261071525
                0.5215   0.015194859206082
 s    8 1.00
                  6665  -0.00029326965268655
                  1000  -0.0023180354739745
                   228  -0.011499786038565
                 64.71  -0.046826727009787
                 21.06   -0.12846616875047
                 7.495   -0.30126627246289
                 2.797   -0.25563070233011
                0.5215      1.093793361012
 s    1 1.00
                0.1596                   1
 p    3 1.00
                 9.439   0.056979251590039
                 2.002    0.31320721150073
                0.5456    0.76037674173753
 p    1 1.00
                0.1517                   1
 d    1 1.00
                  0.55                   1

26 0
 s    3 1.00
                 13.01   0.033498726389998
                 1.962    0.23480080117413
                0.4446     0.8136829578829
 s    1 1.00
                 0.122                   1
 p    1 1.00
                 0.727                   1

27 0
 s    3 1.00
                 13.01   0.033498726389998
                 1.962    0.23480080117413
                0.4446     0.8136829578829
 s    1 1.00
                 0.122                   1
 p    1 1.00
                 0.727                   1

28 0
 s    8 1.00
                  6665  0.00069158396281299
                  1000  0.0053257961529341
                   228   0.027060721042034
                 64.71    0.10165684614077
                 21.06     0.2745748236174
                 7.495    0.44829431892377
                 2.797    0.28490261071525
                0.5215   0.015194859206082
 s    8 1.00
                  6665  -0.00029326965268655
                  1000  -0.0023180354739745
                   228  -0.011499786038565
                 64.71  -0.046826727009787
                 21.06   -0.12846616875047
                 7.495   -0.30126627246289
                 2.797   -0.25563070233011
                0.5215      1.093793361012
 s    1 1.00
                0.1596                   1
 p    3 1.00
                 9.439   0.056979251590039
                 2.002    0.31320721150073
                0.5456    0.76037674173753
 p    1 1.00
                0.1517                   1
 d    1 1.00
                  0.55                   1

29 0
 s    3 1.00
                 13.01   0.033498726389998
                 1.962    0.23480080117413
                0.4446     0.8136829578829
 s    1 1.00
                 0.122                   1
 p    1 1.00
                 0.727                   1

30 0
 s    3 1.00
                 13.01   0.033498726389998
                 1.962    0.23480080117413
                0.4446     0.8136829578829
 s    1 1.00
                 0.122                   1
 p    1 1.00
                 0.727                   1

31 0
 s    8 1.00
                  6665  0.00069158396281299
                  1000  0.0053257961529341
                   228   0.027060721042034
                 64.71    0.10165684614077
                 21.06     0.2745748236174
                 7.495    0.44829431892377
                 2.797    0.28490261071525
                0.5215   0.015194859206082
 s    8 1.00
                  6665  -0.00029326965268655
                  1000  -0.0023180354739745
                   228  -0.011499786038565
                 64.71  -0.046826727009787
                 21.06   -0.12846616875047
                 7.495   -0.30126627246289
                 2.797   -0.25563070233011
                0.5215      1.093793361012
 s    1 1.00
                0.1596                   1
 p    3 1.00
                 9.439   0.056979251590039
                 2.002    0.31320721150073
                0.5456    0.76037674173753
 p    1 1.00
                0.1517                   1
 d    1 1.00
                  0.55                   1

32 0
 s    3 1.00
                 13.01   0.033498726389998
                 1.962    0.23480080117413
                0.4446     0.8136829578829
 s    1 1.00
                 0.122                   1
 p    1 1.00
                 0.727                   1

33 0
 s    3 1.00
                 13.01   0.033498726389998
                 1.962    0.23480080117413
                0.4446     0.8136829578829
 s    1 1.00
                 0.122                   1
 p    1 1.00
                 0.727                   1

34 0
 s    3 1.00
                 13.01   0.033498726389998
                 1.962    0.23480080117413
                0.4446     0.8136829578829
 s    1 1.00
                 0.122                   1
 p    1 1.00
                 0.727                   1

35 0
 s    3 1.00
                 13.01   0.033498726389998
                 1.962    0.23480080117413
                0.4446     0.8136829578829
 s    1 1.00
                 0.122                   1
 p    1 1.00
                 0.727                   1

36 0
 s    3 1.00
                 13.01   0.033498726389998
                 1.962    0.23480080117413
                0.4446     0.8136829578829
 s    1 1.00
                 0.122                   1
 p    1 1.00
                 0.727                   1

37 0
 s    3 1.00
                 13.01   0.033498726389998
                 1.962    0.23480080117413
                0.4446     0.8136829578829
 s    1 1.00
                 0.122                   1
 p    1 1.00
                 0.727                   1

[5d]
[7f]
[9g]

[MO]
 Sym= A
 Ene=               0
 Spin= Alpha
 Occup=    1.00000
   1    -1.7022358872169e-07
   2    1.0160719311306e-06
   3    6.4698733650462e-06
   4    -6.5459041615908e-06
   5    5.1930995683648e-07
   6    -1.0829066790549e-05
   7    -4.8085484468784e-06
   8    4.0538994221556e-08
   9    -8.9044875249974e-06
  10    7.9170492164688e-07
  11    -1.6192462784506e-07
  12    -1.450436102169e-07
  13    2.4204306947603e-08
  14    -1.3591990943394e-07
  15    2.3446231926711e-06
  16    -9.2951223849995e-06
  17    -8.338690689174e-07
  18    -3.5374473707471e-07
  19    -1.838440607349e-06
  20    -8.0765512271545e-07
  21    -1.4898825658149e-06
  22    -3.9944202765049e-07
  23    2.7797021369543e-07
  24    -3.4514848423347e-07
  25    -1.0314095274751e-07
  26    5.8164336994091e-06
  27    -8.5848487405353e-06
  28    3.8707146780324e-05
  29    -7.6341242608631e-05
  30    -8.9345585347159e-05
  31    0.00011392823869667
  32    -0.00010292348205214
  33    -9.2530126993564e-05
  34    5.6600805582637e-06
  35    1.8286006958774e-06
  36    -3.0144769523533e-07
  37    1.2326292714071e-06
  38    1.0208146781283e-06
  39    4.832493656328e-05
  40    6.4888272770401e-06
  41    -0.00087324653397367
  42    -0.00013992372588309
  43    0.00013198074134147
  44    0.00012372657266902
  45    -0.00047670524418522
  46    0.00027655075650761
  47    0.00032723823856688
  48    8.2720283810276e-06
  49    3.6256817659436e-05
  50    -2.5538664382101e-05
  51    -9.89808631612e-06
  52    3.3216874111038e-05
  53    -2.6179752915955e-05
  54    6.664314735865e-05
  55    0.0006353446378623
  56    0.00021483649356368
  57     5.49927826161e-05
  58    -0.00023660382206236
  59    -0.00028261644978376
  60    0.00020835151017676
  61    0.00019051297971182
  62    -6.1950688983494e-06
  63    1.9607983438372e-05
  64    8.358185162774e-07
  65    -2.4075400692535e-05
  66    -5.0766709235751e-06
  67    -8.1318893039705e-06
  68    -1.0384754161974e-05
  69    0.00024879515938866
  70    2.7386155406288e-05
  71    -7.4349778473149e-05
  72    4.7290737905995e-05
  73    -0.00016796679851756
  74    1.6015702405601e-05
  75    0.0001216368327497
  76    -6.8469858832725e-07
  77    -1.7144156477696e-05
  78    2.3987458457819e-06
  79    1.7105193152634e-05
  80    1.0929085312722e-06
  81    6.5903459260797e-05
  82    1.8829812191029e-05
  83    1.9574887134009e-05
  84    -5.0914212681549e-06
  85    -2.1300921358113e-05
  86    9.8824343703073e-05
  87    -0.00020901438541057
  88    -0.0017134198889408
  89    -0.00090418421115389
  90    0.00049824068546147
  91    0.00059591966307658
  92    -0.001165977483837
  93    0.00058912833338762
  94    0.00078573156539181
  95    1.9114213995409e-05
  96    8.131220551985e-05
  97    -7.5367326985698e-05
  98    -5.9772472042442e-05
  99    9.9583903286078e-05
 100    7.3029037394295e-05
 101    1.3572836132336e-05
 102    2.9833753760838e-05
 103    -4.585295787566e-06
 104    -2.0913302872829e-05
 105    -2.4581243326152e-06
 106    6.395139537245e-06
 107    1.7311534880659e-05
 108    -4.6137815501895e-06
 109    -1.8399946941863e-07
 110    -2.4633307927722e-05
 111    -5.8526337727078e-05
 112    5.7444842358811e-06
 113    4.4311343179226e-06
 114    -2.6363489930353e-06
 115    1.1553967377307e-05
 116    0.00013335984152204
 117    -0.00018573464575977
 118    -0.00010450756967381
 119    -0.00018338184219231
 120    6.5755170989177e-05
 121    -0.00027651819973868
 122    7.3552900661431e-05
 123    8.9094067378475e-05
 124    -3.2838572430721e-06
 125    1.000773100285e-05
 126    -1.3719526609572e-05
 127    -1.2000353573975e-05
 128    1.303181408557e-05
 129    0.00020234841764903
 130    0.00010718239609876
 131     2.18313264822e-06
 132    2.1973923207561e-06
 133    -4.6880093550954e-06
 134    0.00019606326605059
 135    0.00014403973465987
 136    1.6943941494911e-06
 137    2.9154127201509e-06
 138    3.707904624454e-06
 139    9.3432866370333e-05
 140    -0.00029003584259127
 141    5.0314320496325e-05
 142    0.00086046210554062
 143    -0.00083273464411875
 144    -0.00041908056018064
 145    -0.00081192853911632
 146    0.00010603474214217
 147    0.00068541665467734
 148    1.8327379034996e-05
 149    0.00012788141339868
 150    2.5180358164035e-05
 151    -1.1785269178885e-05
 152    3.1574844480279e-05
 153    -3.4898464896363e-05
 154    -7.1344761751062e-05
 155    4.2336294572497e-06
 156    -7.4729496007873e-06
 157    5.7273560089053e-06
 158    0.00025470625079524
 159    6.8709176095374e-05
 160    1.4600449151068e-05
 161    7.1146303687795e-06
 162    -1.0677064932127e-05
 163    -0.0033002559881769
 164    -1.0989827318801e-05
 165    3.0038184323618e-05
 166    -2.0929833920147e-05
 167    -2.4277925651101e-05
 168    8.6362292848212e-06
 169    -8.3525809080566e-05
 170    9.699856762162e-06
 171    1.3653522348173e-05
 172    -1.3644028207511e-07
 173    -1.6245555053986e-06
 174    -4.6935747693798e-06
 175    -8.0073967178776e-06
 176    -3.0117699147269e-06
 177    0.00034042735772315
 178    0.00039176917217873
 179    8.1882868370801e-05
 180    -4.4650117743383e-05
 181    -0.00010383984997897
 182      0.10305215389113
 183    0.00041168693002402
 184    -0.0028340343153037
 185    -3.6633761737492e-06
 186    6.9976446414817e-07
 187    2.9250706922104e-06
 188    -0.0011222765468767
 189    0.0004391958339322
 190    0.00079339061385589
 191    -5.3270391669492e-05
 192    -7.8681585744869e-05
 193    2.0499262987203e-05
 194    -1.6992804232933e-05
 195    -9.7747026397098e-05
 196    0.00032868692283092
 197    0.00040781616945379
 198    0.00012715174027955
 199    -2.4625078244464e-05
 200    -5.1118910982502e-05
 201    7.3064350665395e-06
 202    -1.6310972816646e-05
 203    1.2259749925069e-06
 204    2.2745673523997e-06
 205    2.6443234144793e-06
 206    -1.1830045664573e-05
 207    3.4721862103661e-05
 208    5.499737403822e-07
 209    -3.0657901320345e-06
 210    1.8402706056535e-06
 211     0.018825797993545
 212    0.00010807907731404
 213    -0.00024660628711868
 214    2.1358948165458e-06
 215    -6.9382989170507e-06
 216    6.734729231314e-06
 217    -8.1748952168486e-05
 218    5.0101054665187e-05
 219    3.1235683088946e-06
 220    1.7707906654505e-06
 221    2.2785990986655e-06
 222    -1.2084235528291e-06
 223    -4.6610977242986e-06
 224    6.0135271693532e-06
 225    9.1817997215658e-05
 226    4.9014797421171e-05
 227    -5.6302495885052e-06
 228    7.7768497437797e-05
 229    4.6179660925803e-05
 230    9.2859684856715e-05
 231    3.4487482849654e-05
 232    -7.0521410233445e-05
 233    5.0195389905605e-05
 234    -3.0344501960304e-05
 235     -0.99693202886147
 236    -0.0048632632036819
 237    0.0099255353360868
 238    -0.00012879286542916
 239    0.00012051609744169
 240    7.0932172605517e-05
 241    -0.00099429029627763
 242    0.0002324982972457
 243    0.00076470508460726
 244    -4.376985553135e-05
 245    -0.00011873417912362
 246    8.4618968347892e-05
 247    5.3375750569744e-05
 248    -0.00013971104433546
 249    9.8026838993642e-06
 250    2.4764030608198e-05
 251    5.7418265672896e-06
 252    2.6300148952735e-06
 253    6.6635481773928e-06
 254    1.4679230535996e-05
 255    2.8469826714248e-05
 256    -3.4077145768755e-07
 257    -8.0829446978973e-06
 258    4.4694219086983e-06
 259    0.0012160909194129
 260    1.2254923387518e-05
 261    -2.4519490302515e-05
 262    8.5401411407284e-07
 263    -4.7790117965664e-07