[Molden Format]
made by pyscf v[2.0.1]
[Atoms] (AU)
O   1   8     0.00000000000000     0.00000000000000    11.69764103529358
H   2   1     0.00000000000000     0.00000000000000     9.87423921339262
H   3   1    -0.05031916615174     1.78353065140343    12.07351273176025
O   4   8     0.00000000000000     0.00000000000000     2.31533471513237
C   5   6     0.00000000000000     0.00000000000000     0.00000000000000
C   6   6     2.01118073026938    -1.40227222164369    -1.50774939176400
C   7   6    -2.01249334291722     1.41331050329955    -1.50315905028694
H   8   1     3.32037363730244    -2.26721897153159    -0.13599698591495
C   9   6     3.45899267434009     0.28739631745591    -3.37437943254505
H   10   1     1.07662969841332    -2.94725144642667    -2.56541439481080
H   11   1    -2.67503415753480     0.18421555839588    -3.06194479365997
H   12   1    -1.07974048864772     3.03851734677796    -2.43674295017013
C   13   6    -4.21607110578555     2.32938802552922     0.11994162256091
H   14   1     4.24440173074564     1.93368664142019    -2.34976285512790
H   15   1     2.15020713235517     1.04714335134846    -4.81494497423699
C   16   6     5.60746363007797    -1.12419643481196    -4.70268606082550
H   17   1    -3.46838323670267     3.50951302338067     1.66946842715333
H   18   1    -5.11873485366228     0.68575958301209     1.04047743976495
C   19   6    -6.18314754751344     3.80909592987882    -1.39656589068747
H   20   1     6.93011263717176    -1.87550812453645    -3.26656317360070
C   21   6     7.06356622236532     0.52877932406334    -6.57829775293605
H   22   1     4.82318879258361    -2.78573437948532    -5.70504560381835
H   23   1    -6.91582688743803     2.61304780074712    -2.95074552451969
H   24   1    -5.26532430573853     5.45420349051338    -2.31005832200284
C   25   6    -8.39941882261433     4.73263980500213     0.21800571437956
H   26   1     7.83338371486801     2.19084139882824    -5.57093109900697
H   27   1     5.73544244039420     1.27376866537418    -8.01071492370229
C   28   6     9.21124858443101    -0.89699110072176    -7.88926949186242
H   29   1    -7.66272760055236     5.92277078003992     1.77035591474408
H   30   1    -9.31497248082589     3.08753015622020     1.12614408368786
C   31   6   -10.35481709231879     6.21833079391143    -1.30905206253246
H   32   1    10.58815905329501    -1.61074586756696    -6.49512691622620
H   33   1    10.23506248045667     0.32468009384095    -9.23072870921204
H   34   1     8.47665842847139    -2.53598436989925    -8.94921964622535
H   35   1    -9.48948872868064     7.90013588951020    -2.18823918416067
H   36   1   -11.93332513000955     6.86460487874102    -0.11255798845995
H   37   1   -11.15126291841033     5.04495968327630    -2.83849898862534
[GTO]
1 0
 s    8 1.00
                 11720  0.00070964594651845
                  1759  0.0054672722921914
                 400.8   0.027823118610189
                 113.7    0.10474773971146
                 37.03    0.28292084635691
                 13.27    0.44849523869833
                 5.025    0.27081688521277
                 1.013    0.01545029160744
 s    8 1.00
                 11720  -0.00031444341168873
                  1759  -0.0024821376810179
                 400.8  -0.012316355381583
                 113.7  -0.050538917343672
                 37.03   -0.13938490331632
                 13.27   -0.32507749481778
                 5.025   -0.22984830758785
                 1.013     1.0953793467883
 s    1 1.00
                0.3023                   1
 p    3 1.00
                  17.7   0.062679166281506
                 3.854    0.33353656587936
                 1.046    0.74123964163973
 p    1 1.00
                0.2753                   1
 d    1 1.00
                 1.185                   1

2 0
 s    3 1.00
                 13.01   0.033498726389998
                 1.962    0.23480080117413
                0.4446     0.8136829578829
 s    1 1.00
                 0.122                   1
 p    1 1.00
                 0.727                   1

3 0
 s    3 1.00
                 13.01   0.033498726389998
                 1.962    0.23480080117413
                0.4446     0.8136829578829
 s    1 1.00
                 0.122                   1
 p    1 1.00
                 0.727                   1

4 0
 s    8 1.00
                 11720  0.00070964594651845
                  1759  0.0054672722921914
                 400.8   0.027823118610189
                 113.7    0.10474773971146
                 37.03    0.28292084635691
                 13.27    0.44849523869833
                 5.025    0.27081688521277
                 1.013    0.01545029160744
 s    8 1.00
                 11720  -0.00031444341168873
                  1759  -0.0024821376810179
                 400.8  -0.012316355381583
                 113.7  -0.050538917343672
                 37.03   -0.13938490331632
                 13.27   -0.32507749481778
                 5.025   -0.22984830758785
                 1.013     1.0953793467883
 s    1 1.00
                0.3023                   1
 p    3 1.00
                  17.7   0.062679166281506
                 3.854    0.33353656587936
                 1.046    0.74123964163973
 p    1 1.00
                0.2753                   1
 d    1 1.00
                 1.185                   1

5 0
 s    8 1.00
                  6665  0.00069158396281299
                  1000  0.0053257961529341
                   228   0.027060721042034
                 64.71    0.10165684614077
                 21.06     0.2745748236174
                 7.495    0.44829431892377
                 2.797    0.28490261071525
                0.5215   0.015194859206082
 s    8 1.00
                  6665  -0.00029326965268655
                  1000  -0.0023180354739745
                   228  -0.011499786038565
                 64.71  -0.046826727009787
                 21.06   -0.12846616875047
                 7.495   -0.30126627246289
                 2.797   -0.25563070233011
                0.5215      1.093793361012
 s    1 1.00
                0.1596                   1
 p    3 1.00
                 9.439   0.056979251590039
                 2.002    0.31320721150073
                0.5456    0.76037674173753
 p    1 1.00
                0.1517                   1
 d    1 1.00
                  0.55                   1

6 0
 s    8 1.00
                  6665  0.00069158396281299
                  1000  0.0053257961529341
                   228   0.027060721042034
                 64.71    0.10165684614077
                 21.06     0.2745748236174
                 7.495    0.44829431892377
                 2.797    0.28490261071525
                0.5215   0.015194859206082
 s    8 1.00
                  6665  -0.00029326965268655
                  1000  -0.0023180354739745
                   228  -0.011499786038565
                 64.71  -0.046826727009787
                 21.06   -0.12846616875047
                 7.495   -0.30126627246289
                 2.797   -0.25563070233011
                0.5215      1.093793361012
 s    1 1.00
                0.1596                   1
 p    3 1.00
                 9.439   0.056979251590039
                 2.002    0.31320721150073
                0.5456    0.76037674173753
 p    1 1.00
                0.1517                   1
 d    1 1.00
                  0.55                   1

7 0
 s    8 1.00
                  6665  0.00069158396281299
                  1000  0.0053257961529341
                   228   0.027060721042034
                 64.71    0.10165684614077
                 21.06     0.2745748236174
                 7.495    0.44829431892377
                 2.797    0.28490261071525
                0.5215   0.015194859206082
 s    8 1.00
                  6665  -0.00029326965268655
                  1000  -0.0023180354739745
                   228  -0.011499786038565
                 64.71  -0.046826727009787
                 21.06   -0.12846616875047
                 7.495   -0.30126627246289
                 2.797   -0.25563070233011
                0.5215      1.093793361012
 s    1 1.00
                0.1596                   1
 p    3 1.00
                 9.439   0.056979251590039
                 2.002    0.31320721150073
                0.5456    0.76037674173753
 p    1 1.00
                0.1517                   1
 d    1 1.00
                  0.55                   1

8 0
 s    3 1.00
                 13.01   0.033498726389998
                 1.962    0.23480080117413
                0.4446     0.8136829578829
 s    1 1.00
                 0.122                   1
 p    1 1.00
                 0.727                   1

9 0
 s    8 1.00
                  6665  0.00069158396281299
                  1000  0.0053257961529341
                   228   0.027060721042034
                 64.71    0.10165684614077
                 21.06     0.2745748236174
                 7.495    0.44829431892377
                 2.797    0.28490261071525
                0.5215   0.015194859206082
 s    8 1.00
                  6665  -0.00029326965268655
                  1000  -0.0023180354739745
                   228  -0.011499786038565
                 64.71  -0.046826727009787
                 21.06   -0.12846616875047
                 7.495   -0.30126627246289
                 2.797   -0.25563070233011
                0.5215      1.093793361012
 s    1 1.00
                0.1596                   1
 p    3 1.00
                 9.439   0.056979251590039
                 2.002    0.31320721150073
                0.5456    0.76037674173753
 p    1 1.00
                0.1517                   1
 d    1 1.00
                  0.55                   1

10 0
 s    3 1.00
                 13.01   0.033498726389998
                 1.962    0.23480080117413
                0.4446     0.8136829578829
 s    1 1.00
                 0.122                   1
 p    1 1.00
                 0.727                   1

11 0
 s    3 1.00
                 13.01   0.033498726389998
                 1.962    0.23480080117413
                0.4446     0.8136829578829
 s    1 1.00
                 0.122                   1
 p    1 1.00
                 0.727                   1

12 0
 s    3 1.00
                 13.01   0.033498726389998
                 1.962    0.23480080117413
                0.4446     0.8136829578829
 s    1 1.00
                 0.122                   1
 p    1 1.00
                 0.727                   1

13 0
 s    8 1.00
                  6665  0.00069158396281299
                  1000  0.0053257961529341
                   228   0.027060721042034
                 64.71    0.10165684614077
                 21.06     0.2745748236174
                 7.495    0.44829431892377
                 2.797    0.28490261071525
                0.5215   0.015194859206082
 s    8 1.00
                  6665  -0.00029326965268655
                  1000  -0.0023180354739745
                   228  -0.011499786038565
                 64.71  -0.046826727009787
                 21.06   -0.12846616875047
                 7.495   -0.30126627246289
                 2.797   -0.25563070233011
                0.5215      1.093793361012
 s    1 1.00
                0.1596                   1
 p    3 1.00
                 9.439   0.056979251590039
                 2.002    0.31320721150073
                0.5456    0.76037674173753
 p    1 1.00
                0.1517                   1
 d    1 1.00
                  0.55                   1

14 0
 s    3 1.00
                 13.01   0.033498726389998
                 1.962    0.23480080117413
                0.4446     0.8136829578829
 s    1 1.00
                 0.122                   1
 p    1 1.00
                 0.727                   1

15 0
 s    3 1.00
                 13.01   0.033498726389998
                 1.962    0.23480080117413
                0.4446     0.8136829578829
 s    1 1.00
                 0.122                   1
 p    1 1.00
                 0.727                   1

16 0
 s    8 1.00
                  6665  0.00069158396281299
                  1000  0.0053257961529341
                   228   0.027060721042034
                 64.71    0.10165684614077
                 21.06     0.2745748236174
                 7.495    0.44829431892377
                 2.797    0.28490261071525
                0.5215   0.015194859206082
 s    8 1.00
                  6665  -0.00029326965268655
                  1000  -0.0023180354739745
                   228  -0.011499786038565
                 64.71  -0.046826727009787
                 21.06   -0.12846616875047
                 7.495   -0.30126627246289
                 2.797   -0.25563070233011
                0.5215      1.093793361012
 s    1 1.00
                0.1596                   1
 p    3 1.00
                 9.439   0.056979251590039
                 2.002    0.31320721150073
                0.5456    0.76037674173753
 p    1 1.00
                0.1517                   1
 d    1 1.00
                  0.55                   1

17 0
 s    3 1.00
                 13.01   0.033498726389998
                 1.962    0.23480080117413
                0.4446     0.8136829578829
 s    1 1.00
                 0.122                   1
 p    1 1.00
                 0.727                   1

18 0
 s    3 1.00
                 13.01   0.033498726389998
                 1.962    0.23480080117413
                0.4446     0.8136829578829
 s    1 1.00
                 0.122                   1
 p    1 1.00
                 0.727                   1

19 0
 s    8 1.00
                  6665  0.00069158396281299
                  1000  0.0053257961529341
                   228   0.027060721042034
                 64.71    0.10165684614077
                 21.06     0.2745748236174
                 7.495    0.44829431892377
                 2.797    0.28490261071525
                0.5215   0.015194859206082
 s    8 1.00
                  6665  -0.00029326965268655
                  1000  -0.0023180354739745
                   228  -0.011499786038565
                 64.71  -0.046826727009787
                 21.06   -0.12846616875047
                 7.495   -0.30126627246289
                 2.797   -0.25563070233011
                0.5215      1.093793361012
 s    1 1.00
                0.1596                   1
 p    3 1.00
                 9.439   0.056979251590039
                 2.002    0.31320721150073
                0.5456    0.76037674173753
 p    1 1.00
                0.1517                   1
 d    1 1.00
                  0.55                   1

20 0
 s    3 1.00
                 13.01   0.033498726389998
                 1.962    0.23480080117413
                0.4446     0.8136829578829
 s    1 1.00
                 0.122                   1
 p    1 1.00
                 0.727                   1

21 0
 s    8 1.00
                  6665  0.00069158396281299
                  1000  0.0053257961529341
                   228   0.027060721042034
                 64.71    0.10165684614077
                 21.06     0.2745748236174
                 7.495    0.44829431892377
                 2.797    0.28490261071525
                0.5215   0.015194859206082
 s    8 1.00
                  6665  -0.00029326965268655
                  1000  -0.0023180354739745
                   228  -0.011499786038565
                 64.71  -0.046826727009787
                 21.06   -0.12846616875047
                 7.495   -0.30126627246289
                 2.797   -0.25563070233011
                0.5215      1.093793361012
 s    1 1.00
                0.1596                   1
 p    3 1.00
                 9.439   0.056979251590039
                 2.002    0.31320721150073
                0.5456    0.76037674173753
 p    1 1.00
                0.1517                   1
 d    1 1.00
                  0.55                   1

22 0
 s    3 1.00
                 13.01   0.033498726389998
                 1.962    0.23480080117413
                0.4446     0.8136829578829
 s    1 1.00
                 0.122                   1
 p    1 1.00
                 0.727                   1

23 0
 s    3 1.00
                 13.01   0.033498726389998
                 1.962    0.23480080117413
                0.4446     0.8136829578829
 s    1 1.00
                 0.122                   1
 p    1 1.00
                 0.727                   1

24 0
 s    3 1.00
                 13.01   0.033498726389998
                 1.962    0.23480080117413
                0.4446     0.8136829578829
 s    1 1.00
                 0.122                   1
 p    1 1.00
                 0.727                   1

25 0
 s    8 1.00
                  6665  0.00069158396281299
                  1000  0.0053257961529341
                   228   0.027060721042034
                 64.71    0.10165684614077
                 21.06     0.2745748236174
                 7.495    0.44829431892377
                 2.797    0.28490261071525
                0.5215   0.015194859206082
 s    8 1.00
                  6665  -0.00029326965268655
                  1000  -0.0023180354739745
                   228  -0.011499786038565
                 64.71  -0.046826727009787
                 21.06   -0.12846616875047
                 7.495   -0.30126627246289
                 2.797   -0.25563070233011
                0.5215      1.093793361012
 s    1 1.00
                0.1596                   1
 p    3 1.00
                 9.439   0.056979251590039
                 2.002    0.31320721150073
                0.5456    0.76037674173753
 p    1 1.00
                0.1517                   1
 d    1 1.00
                  0.55                   1

26 0
 s    3 1.00
                 13.01   0.033498726389998
                 1.962    0.23480080117413
                0.4446     0.8136829578829
 s    1 1.00
                 0.122                   1
 p    1 1.00
                 0.727                   1

27 0
 s    3 1.00
                 13.01   0.033498726389998
                 1.962    0.23480080117413
                0.4446     0.8136829578829
 s    1 1.00
                 0.122                   1
 p    1 1.00
                 0.727                   1

28 0
 s    8 1.00
                  6665  0.00069158396281299
                  1000  0.0053257961529341
                   228   0.027060721042034
                 64.71    0.10165684614077
                 21.06     0.2745748236174
                 7.495    0.44829431892377
                 2.797    0.28490261071525
                0.5215   0.015194859206082
 s    8 1.00
                  6665  -0.00029326965268655
                  1000  -0.0023180354739745
                   228  -0.011499786038565
                 64.71  -0.046826727009787
                 21.06   -0.12846616875047
                 7.495   -0.30126627246289
                 2.797   -0.25563070233011
                0.5215      1.093793361012
 s    1 1.00
                0.1596                   1
 p    3 1.00
                 9.439   0.056979251590039
                 2.002    0.31320721150073
                0.5456    0.76037674173753
 p    1 1.00
                0.1517                   1
 d    1 1.00
                  0.55                   1

29 0
 s    3 1.00
                 13.01   0.033498726389998
                 1.962    0.23480080117413
                0.4446     0.8136829578829
 s    1 1.00
                 0.122                   1
 p    1 1.00
                 0.727                   1

30 0
 s    3 1.00
                 13.01   0.033498726389998
                 1.962    0.23480080117413
                0.4446     0.8136829578829
 s    1 1.00
                 0.122                   1
 p    1 1.00
                 0.727                   1

31 0
 s    8 1.00
                  6665  0.00069158396281299
                  1000  0.0053257961529341
                   228   0.027060721042034
                 64.71    0.10165684614077
                 21.06     0.2745748236174
                 7.495    0.44829431892377
                 2.797    0.28490261071525
                0.5215   0.015194859206082
 s    8 1.00
                  6665  -0.00029326965268655
                  1000  -0.0023180354739745
                   228  -0.011499786038565
                 64.71  -0.046826727009787
                 21.06   -0.12846616875047
                 7.495   -0.30126627246289
                 2.797   -0.25563070233011
                0.5215      1.093793361012
 s    1 1.00
                0.1596                   1
 p    3 1.00
                 9.439   0.056979251590039
                 2.002    0.31320721150073
                0.5456    0.76037674173753
 p    1 1.00
                0.1517                   1
 d    1 1.00
                  0.55                   1

32 0
 s    3 1.00
                 13.01   0.033498726389998
                 1.962    0.23480080117413
                0.4446     0.8136829578829
 s    1 1.00
                 0.122                   1
 p    1 1.00
                 0.727                   1

33 0
 s    3 1.00
                 13.01   0.033498726389998
                 1.962    0.23480080117413
                0.4446     0.8136829578829
 s    1 1.00
                 0.122                   1
 p    1 1.00
                 0.727                   1

34 0
 s    3 1.00
                 13.01   0.033498726389998
                 1.962    0.23480080117413
                0.4446     0.8136829578829
 s    1 1.00
                 0.122                   1
 p    1 1.00
                 0.727                   1

35 0
 s    3 1.00
                 13.01   0.033498726389998
                 1.962    0.23480080117413
                0.4446     0.8136829578829
 s    1 1.00
                 0.122                   1
 p    1 1.00
                 0.727                   1

36 0
 s    3 1.00
                 13.01   0.033498726389998
                 1.962    0.23480080117413
                0.4446     0.8136829578829
 s    1 1.00
                 0.122                   1
 p    1 1.00
                 0.727                   1

37 0
 s    3 1.00
                 13.01   0.033498726389998
                 1.962    0.23480080117413
                0.4446     0.8136829578829
 s    1 1.00
                 0.122                   1
 p    1 1.00
                 0.727                   1

[5d]
[7f]
[9g]

[MO]
 Sym= A
 Ene=               0
 Spin= Alpha
 Occup=    1.00000
   1    -1.4085448796104e-07
   2    -1.4933872430217e-07
   3    1.4581734413573e-06
   4    -1.9711748825444e-08
   5    -4.6313494197479e-08
   6    -1.9848576284002e-07
   7    -5.5661177121287e-09
   8    -3.5927611607496e-07
   9    -1.1252073573687e-06
  10    9.7197144200594e-08
  11    7.1291472287141e-10
  12    -9.12127154047e-09
  13    8.865858431409e-09
  14    3.8129381038658e-11
  15    1.3077086575649e-07
  16    -3.0575356059425e-06
  17    1.4516936945805e-10
  18    9.682623858575e-09
  19    -3.5248554084417e-07
  20    -1.1952014727743e-07
  21    1.0896794154443e-06
  22    1.1837853112868e-10
  23    -4.3782768883392e-08
  24    2.3416754313956e-08
  25    -2.0004424096439e-07
  26    4.4047167421171e-07
  27    -1.5679538485773e-05
  28    4.5795923735622e-05
  29    -8.037048959056e-05
  30    -9.9667164172694e-05
  31    0.00011849717943411
  32    -0.00010468483859201
  33    -9.9044839632472e-05
  34    6.3315658979211e-06
  35    1.5852242099726e-06
  36    -2.2485379953714e-08
  37    1.2052874724101e-06
  38    1.0197475435873e-06
  39    4.8928892873809e-05
  40    9.2720907586028e-06
  41    -0.00087108363617674
  42    -0.00014113083562745
  43    0.00013193149353817
  44    0.00013094206801888
  45    -0.00047274700200073
  46    0.00027161014535714
  47    0.00032437407698767
  48    8.4575776974777e-06
  49    3.7385209025496e-05
  50    -2.6262991228563e-05
  51    -9.985493046465e-06
  52    3.3233977143992e-05
  53    -2.5957118890873e-05
  54    6.5920459980692e-05
  55    0.00062453960649046
  56    0.00022003762485107
  57    5.3629514774893e-05
  58    -0.00024134915475604
  59    -0.00027475337669852
  60    0.00020385940605557
  61    0.00018607248847495
  62    -5.8965698599632e-06
  63    1.9600459555448e-05
  64    5.1461890655805e-07
  65    -2.4179991449182e-05
  66    -4.6004428159945e-06
  67    -8.0301812866914e-06
  68    -1.0845744960946e-05
  69    0.0002506462307586
  70    2.9959489989351e-05
  71    -7.5792354378679e-05
  72    4.6421695504678e-05
  73    -0.00016489305404198
  74    1.4774848073727e-05
  75    0.00012468125137942
  76    -1.9679492880557e-07
  77    -1.6907338268415e-05
  78    2.3128642496571e-06
  79    1.6882073855207e-05
  80    1.4816055466071e-06
  81    6.5806843653266e-05
  82    1.8999528507876e-05
  83    1.963883460201e-05
  84    -5.0578849733434e-06
  85    -2.132125871126e-05
  86    9.9113419751147e-05
  87    -0.00020902792040367
  88    -0.0017090752035383
  89    -0.00091087730658301
  90    0.00050075838837348
  91    0.00060142619745237
  92    -0.0011688737568467
  93    0.00058700539009987
  94    0.00078819120286669
  95    1.9158339722032e-05
  96    8.1911359930478e-05
  97    -7.5751681357985e-05
  98    -6.018333489793e-05
  99    0.00010022643507464
 100    7.3862013047486e-05
 101    1.4455928901427e-05
 102    2.9901970772869e-05
 103    -4.537191941542e-06
 104    -2.1061411667097e-05
 105    -1.6777047981933e-06
 106    7.9099466374429e-06
 107    1.7369112701271e-05
 108    -4.6194632486162e-06
 109    -2.6077374351284e-07
 110    -2.4277621721431e-05
 111    -5.8209094454919e-05
 112    5.7657317551262e-06
 113    4.382310537822e-06
 114    -2.7582566998546e-06
 115    1.1526967977267e-05
 116    0.00013338814035862
 117    -0.00018349582128044
 118    -0.00010614341732897
 119    -0.00018266593096122
 120    6.9923366581108e-05
 121    -0.00027869914110861
 122    7.5599396711635e-05
 123    8.980939634953e-05
 124    -3.3502218172842e-06
 125    1.027719367549e-05
 126    -1.3654126948277e-05
 127    -1.2183730581833e-05
 128    1.3375033677985e-05
 129    0.00020484993564117
 130    0.00010922262963306
 131    1.9650816626722e-06
 132    2.2608995673874e-06
 133    -4.6498107983579e-06
 134    0.00019742387426303
 135    0.00014501999462903
 136    1.5394852851188e-06
 137    3.0810376243577e-06
 138    3.935552747537e-06
 139    9.290332249079e-05
 140    -0.00028548977399326
 141    4.7969036483922e-05
 142    0.00087405064248475
 143    -0.00083219937851481
 144    -0.00043193956973047
 145    -0.00080069703510256
 146    0.00010571374083976
 147    0.00067587298836902
 148    1.8590804778173e-05
 149    0.00012709714181301
 150    2.3943198227337e-05
 151    -1.2063696685036e-05
 152    3.2660549344102e-05
 153    -3.2230614113479e-05
 154    -7.1513044524589e-05
 155    3.9845722182007e-06
 156    -7.4871575274506e-06
 157    5.7824719245511e-06
 158    0.0002568886043032
 159    7.0264093409478e-05
 160    1.4382380549318e-05
 161    7.362240556899e-06
 162    -1.0539259708106e-05
 163    -0.0030162199687191
 164    -9.6655950940763e-06
 165    1.3880139969009e-05
 166    -2.1403391379883e-05
 167    -2.4064339338239e-05
 168    8.4708639621142e-06
 169    -8.0303051958894e-05
 170    8.3844586664422e-06
 171    9.3568814478255e-06
 172    1.1359927459675e-07
 173    -2.0027286879046e-06
 174    -4.5463736216011e-06
 175    -7.9376805137583e-06
 176    -2.946064670849e-06
 177    0.00034243981927737
 178    0.00039253682335083
 179    8.1872667024409e-05
 180    -4.4582071506027e-05
 181    -0.00010428292300474
 182      0.10277858789719
 183    0.00042395148234496
 184    -0.0028264453355357
 185    -8.8658583731135e-06
 186    -6.3145655288705e-06
 187    9.974241110769e-06
 188    -0.0011268774320883
 189    0.00043724898841304
 190    0.00079762375541501
 191    -5.3079078077531e-05
 192    -7.8128288005957e-05
 193    1.9263006051373e-05
 194    -1.7774693425903e-05
 195    -9.6463303148898e-05
 196    0.00033164479358148
 197    0.00040899896943967
 198    0.00012753255165644
 199    -2.4304176313724e-05
 200    -5.1100625309194e-05
 201    7.6262046090342e-06
 202    -1.6362931194479e-05
 203    1.2661233487521e-06
 204    2.0527696579036e-06
 205    2.3952514982183e-06
 206    -1.1621504496689e-05
 207    3.476007572294e-05
 208    7.9903433764267e-07
 209    -2.9109062687849e-06
 210    1.6760083534839e-06
 211     0.015665955915363
 212    9.1870382365546e-05
 213    -0.00020858180953795
 214    2.1412762871737e-06
 215    -6.9329203864371e-06
 216    6.3407159815521e-06
 217    -7.9698512336064e-05
 218    5.0137115096209e-05
 219    -1.5920159480871e-06
 220    1.6461166785841e-06
 221    2.0814685875269e-06
 222    -1.2858568021678e-06
 223    -4.1534778863338e-06
 224    5.1700432136504e-06
 225    9.4286604080146e-05
 226    4.8493932123341e-05
 227    -5.8142174962871e-06
 228    7.7241125460357e-05
 229    4.6139255734099e-05
 230    9.5359280616711e-05
 231    3.3561011040762e-05
 232    -7.0304845785618e-05
 233    4.9816840985846e-05
 234    -2.9952422403863e-05
 235     -0.99701618562324
 236    -0.0048623556875209
 237    0.0099264371006242
 238    -0.00013424050479842
 239    0.0001220960545993
 240    7.4096138609103e-05
 241    -0.00099314022986496
 242    0.00023312386794873
 243    0.00076367312884783
 244    -4.3843592029743e-05
 245    -0.00011958799584604
 246    8.5047833375983e-05
 247    5.3790831632658e-05
 248    -0.00014009310811794
 249    9.1487689305507e-06
 250    2.1326196633964e-05
 251    5.1526341789897e-06
 252    1.6768477064606e-06
 253    5.7967133219747e-06
 254    1.4087645591697e-05
 255    2.5117270983244e-05
 256    3.137855869363e-07
 257    -6.9033181640922e-06
 258    4.0917489195186e-06
 259    0.0010725747800759
 260    1.1795447276465e-05
 261    -3.1872529131948e-05
 262    5.4019554426691e-07
 263    -2.4311659684539e-07