[Molden Format]
made by pyscf v[2.0.1]
[Atoms] (AU)
C   1   6    -0.00491185910195    -0.00302299034612    -6.30478139015019
O   2   8    -0.00302499062123    -0.00226824280266    -4.17507277885027
[GTO]
1 0
 s    5 1.00
          1238.4016938  0.0055173650481097
          186.29004992   0.041088828555946
          42.251176346     0.1822538212649
          11.676557932    0.46828459437429
          3.5930506482    0.44575817336002
 s    1 1.00
         0.40245147363                   1
 s    1 1.00
         0.13090182668                   1
 p    3 1.00
          9.4680970621   0.056888332011037
          2.0103545142    0.31294059336471
         0.54771004707    0.76065016509135
 p    1 1.00
         0.15268613795                   1
 d    1 1.00
                   0.8                   1

2 0
 s    5 1.00
          2266.1767785  -0.0053893503921743
          340.87010191   -0.04023472138896
          77.363135167   -0.18008184205526
           21.47964494   -0.46828857657651
          6.6589433124   -0.44692617160187
 s    1 1.00
         0.80975975668                   1
 s    1 1.00
         0.25530772234                   1
 p    3 1.00
          17.721504317   0.062630248763161
           3.863550544    0.33331138482352
          1.0480920883    0.74148638308122
 p    1 1.00
         0.27641544411                   1
 d    1 1.00
                   1.2                   1

[5d]
[7f]
[9g]

[MO]
 Sym= A
 Ene=               0
 Spin= Alpha
 Occup=    1.00000
   1    -0.00078398222978488
   2    -0.0051269608179829
   3    -0.0042820800906014
   4    1.3935802874724e-05
   5    5.5743222885163e-06
   6     0.015728874287922
   7    1.0250819410582e-05
   8    4.1003285879313e-06
   9     0.011569691229523
  10    -0.0010453270460149
  11    -1.6041494685706e-06
  12    -6.4165990870619e-07
  13    -5.9545152472664e-10
  14    -5.6918792305803e-10
  15     -0.98736872115283
  16     0.043972285435254
  17    -0.031629160257993
  18    -1.824483405568e-05
  19    -7.2979351142541e-06
  20     -0.02059394452266
  21    -2.2209773130392e-06
  22    -8.8839109327672e-07
  23    -0.0025077385131409
  24    0.0015052565040459
  25    2.3100133860999e-06
  26    9.2400555394659e-07
  27    8.6090026702014e-10
  28    8.1802498399086e-10
 Sym= A
 Ene=               1
 Spin= Alpha
 Occup=    1.00000
   1      0.99061560557831
   2     0.038333445594771
   3     -0.02859390444705
   4    2.7222734098159e-05
   5    1.088909588881e-05
   6     0.030725791548249
   7    8.7820864859487e-06
   8    3.5128352921525e-06
   9    0.0099116942205789
  10    0.0048381276194699
  11    7.4242036140673e-06
  12    2.9696820624398e-06
  13    2.7651610519318e-09
  14    2.6294877899799e-09
  15    -0.0011369424096818
  16    0.0002952646907455
  17    -0.015638354745543
  18    -1.9331810875245e-05
  19    -7.7327259042044e-06
  20    -0.021821553705761
  21    -1.9616955683675e-06
  22    -7.8467838756321e-07
  23    -0.002215345782636
  24    0.00054894835083025
  25    8.4265220445496e-07
  26    3.3706096979415e-07
  27    3.1184647573199e-10
  28    2.9996445965369e-10
 Sym= A
 Ene=               2
 Spin= Alpha
 Occup=    1.00000
   1     -0.16143581624438
   2      0.30792807619591
   3      0.10410211428607
   4    0.00012059324667503
   5    4.8237308387157e-05
   6      0.13611653915707
   7    -5.6630054000971e-06
   8    -2.2652026786889e-06
   9    -0.0063892674930482
  10     0.025392518814015
  11    3.8964676058836e-05
  12    1.558587358174e-05
  13    1.4529831931459e-08
  14    1.3794274867904e-08
  15       0.2719015282409
  16       0.5392342174405
  17      0.25586527236396
  18    -8.177534267192e-05
  19    -3.2710143459283e-05
  20    -0.092294386247727
  21    2.5588095800446e-05
  22    1.0235240338805e-05
  23     0.028886044122755
  24     0.011546485881253
  25    1.7719045151683e-05
  26    7.0876195093886e-06
  27    6.592144023815e-09
  28    6.2824690009145e-09
 Sym= A
 Ene=               3
 Spin= Alpha
 Occup=    1.00000
   1      0.23379245240222
   2     -0.51562969518909
   3     -0.29534172805194
   4    5.3130514996586e-05
   5    2.1252210927922e-05
   6     0.059945984534109
   7    7.1836096143905e-05
   8    2.8734444565693e-05
   9     0.081067750214877
  10    0.0084428260630705
  11    1.2956248665673e-05
  12    5.1825005180112e-06
  13    4.7988442296323e-09
  14    4.5975344667674e-09
  15       0.1447846530364
  16       0.3117576105902
  17      0.33459767550606
  18    0.00030330760286605
  19    0.00012132306707105
  20      0.34228410129518
  21    0.0001411167918785
  22    5.6446728913985e-05
  23      0.15924358110619
  24      -0.0197226091093
  25    -3.0269522512651e-05
  26    -1.2107811549584e-05
  27    -1.1255537818049e-08
  28    -1.0732771996129e-08
 Sym= A
 Ene=               4
 Spin= Alpha
 Occup=    1.00000
   1    2.6260172741906e-08
   2    -6.0513149184292e-08
   3    -4.0061957870954e-08
   4     -0.33604052185514
   5    0.0071341366477946
   6    0.00029522736888081
   7     -0.13207813761272
   8    0.0028040174229676
   9    0.00011603838805232
  10    6.6741807637326e-05
  11    -0.043861244966994
  12    0.00093118815023544
  13    -3.919254792505e-05
  14    -1.4718624868702e-05
  15    9.8361284446265e-09
  16    2.0562810265188e-08
  17    1.7459905569386e-08
  18     -0.55931162767803
  19     0.011874179706685
  20    0.00049133237991154
  21      -0.3291318416346
  22    0.0069874653851468
  23    0.00028912973921567
  24    -4.0032156419873e-05
  25      0.02631136128777
  26    -0.00055859852507242
  27    2.3510977477724e-05
  28    8.8283185882757e-06
 Sym= A
 Ene=               5
 Spin= Alpha
 Occup=    1.00000
   1    -1.1156998507049e-08
   2    2.5710049732591e-08
   3    1.7020783897765e-08
   4    0.0071340286856762
   5      0.33604063033904
   6    -0.00012542368602876
   7    0.0028039750134624
   8       0.1320781803219
   9    -4.9297470243073e-05
  10    -2.8354429030467e-05
  11    0.00093114587160397
  12     0.043861287391947
  13    -1.4719980518859e-05
  14     3.91889925976e-05
  15    -4.1791811298678e-09
  16    -8.7366690269487e-09
  17    -7.4188749073535e-09
  18     0.011874000223519
  19      0.55931180827031
  20    -0.00020873646819076
  21     0.006987359759259
  22       0.3291319480856
  23    -0.00012283318383852
  24    1.700716499712e-05
  25    -0.0005585732152382
  26    -0.026311386828653
  27    8.8302787578757e-06
  28    -2.3505790319302e-05
