[Molden Format]
made by pyscf v[2.0.1]
[Atoms] (AU)
C   1   6    -0.00491328792387    -0.00302356179930    -6.30639402289852
O   2   8    -0.00302356179930    -0.00226767134948    -4.17346014610194
Fe   3   26    -0.00170075351211    -0.00170075351211     0.13832795231816
N   4   7    -3.81592396333423    -0.00018897261246    -0.00018897261246
N   5   7    -0.01228321980967    -3.81611293594669     0.00018897261246
N   6   7     3.81630190855914    -0.00018897261246    -0.00018897261246
N   7   7     0.01190527458476     3.81649088117160     0.00018897261246
N   8   7     0.00170075351211     0.00245664396193     3.88452102165594
C   9   6    -5.38250692059867    -2.06376990063750    -0.07955746984419
C   10   6    -5.36927883772671     2.07359647648524     0.04176294735289
C   11   6    -2.08058846314613    -5.37645979700006    -0.07917952461928
C   12   6     2.05639996875170    -5.37589287916269     0.04195191996534
C   13   6     5.36965678295162    -2.07473031215998     0.04214089257780
C   14   6     5.38420767411077     2.06414784586242    -0.07332137363312
C   15   6    -2.05753380442644     5.37627082438760     0.04270781041517
C   16   6     2.08096640837105     5.37778260528725    -0.07275445579575
C   17   6    -1.46623850005003    -1.45414425285282     5.47151302106568
C   18   6     1.43959336169366     1.43108959413312     5.33658657577173
C   19   6    -4.58371968774501    -4.56954674181078    -0.11999760890988
C   20   6    -4.56009811118795     4.57370413928482     0.08465973038051
C   21   6     4.58504249603221     4.57086955009797    -0.10752541648775
C   22   6     4.55915324812567    -4.57483797495956     0.08409281254315
C   23   6    -7.99788787699671    -1.27102979138246    -0.08673842911754
H   24   1    -9.60245432936491    -2.53960293880299    -0.14947733645310
C   25   6    -7.98957308204862     1.29861979280111    -0.00566917837370
H   26   1    -9.58695857514347     2.57834232435657     0.00850376756054
C   27   6     1.27329746273194    -7.99410842474758    -0.00529123314878
H   28   1     2.54810670636353    -9.59546234270401     0.00869274017300
C   29   6    -1.29616314883918    -7.99410842474758    -0.08636048389262
H   30   1    -2.56964958418357    -9.59489542486664    -0.14891041861573
C   31   6     7.98957308204862    -1.29994260108831    -0.00037794522491
H   32   1     9.58676960253102    -2.58004307786868     0.01209424719722
C   33   6     7.99902171267145     1.27046287354509    -0.07672288065734
H   34   1     9.60434405548947     2.53828013051579    -0.13776103448079
C   35   6     1.29597417622672     7.99505328780986    -0.07540007237015
H   36   1     2.56889369373374     9.59659617837875    -0.13587130835623
C   37   6    -1.27443129840668     7.99373047952267     0.00094486306228
H   38   1    -2.54942951465072     9.59508439747910     0.01417294593424
H   39   1    -6.03767496798537    -6.01858873412727    -0.18179165318316
H   40   1    -6.01008496656672     6.02765941952518     0.11451740314864
H   41   1     6.03918674888503     6.02010051502692    -0.16572898112436
H   42   1     6.00876215827953    -6.02936017303729     0.11357254008636
N   43   7     0.95563450119255     0.95166607633097     7.80664759319073
C   44   6    -0.89440737475664    -0.88476977152136     7.92721211993798
H   45   1    -2.81247939119018    -2.79131445859505     4.72866168149915
H   46   1    -1.60985768551698    -1.59436193129554     9.69939727955509
H   47   1     1.80752303814648     1.79826338013611     9.28800390223728
H   48   1     2.80907788416596     2.79055856814523     4.67707215829853
[GTO]
1 0
 s    5 1.00
          1238.4016938  0.0055173650481097
          186.29004992   0.041088828555946
          42.251176346     0.1822538212649
          11.676557932    0.46828459437429
          3.5930506482    0.44575817336002
 s    1 1.00
         0.40245147363                   1
 s    1 1.00
         0.13090182668                   1
 p    3 1.00
          9.4680970621   0.056888332011037
          2.0103545142    0.31294059336471
         0.54771004707    0.76065016509135
 p    1 1.00
         0.15268613795                   1
 d    1 1.00
                   0.8                   1

2 0
 s    5 1.00
          2266.1767785  -0.0053893503921743
          340.87010191   -0.04023472138896
          77.363135167   -0.18008184205526
           21.47964494   -0.46828857657651
          6.6589433124   -0.44692617160187
 s    1 1.00
         0.80975975668                   1
 s    1 1.00
         0.25530772234                   1
 p    3 1.00
          17.721504317   0.062630248763161
           3.863550544    0.33331138482352
          1.0480920883    0.74148638308122
 p    1 1.00
         0.27641544411                   1
 d    1 1.00
                   1.2                   1

3 0
 s    6 1.00
          60923.640643  0.0017552243692958
          9147.8893982   0.013449023284001
          2081.3505927   0.066678874640978
          587.55977067    0.23176348548844
           191.0904399    0.46945550248188
          65.732730112     0.3596824938678
 s    3 1.00
          127.25891928   -0.10723431835929
           14.83091301    0.62971616328466
          6.0653307408    0.44472317896179
 s    3 1.00
           10.44994371   -0.21694289195548
          1.7245228003    0.69457867408393
         0.71772177325    0.43298308896347
 s    1 1.00
        0.091449828308                   1
 s    1 1.00
        0.033706691021                   1
 p    5 1.00
          773.43750995  0.0091440529992506
          182.15149714   0.067887577136571
          57.547272758    0.26167978878504
          20.614988935    0.51088040113251
           7.634855789    0.33235475570224
 p    3 1.00
           3.871932799    0.33193859098144
          1.4924724132     0.5553666555499
         0.56061284958    0.23106034201617
 p    1 1.00
              0.134915                   1
 d    4 1.00
          38.968133419   0.033335938558743
          10.800067078    0.17766212505983
          3.6136457999      0.441281781625
          1.2129967888    0.57089200490673
 d    1 1.00
          0.3652439317                   1
 f    1 1.00
                 1.598                   1

4 0
 s    5 1.00
          1712.8415853  -0.0054477995804909
          257.64812677  -0.040627174632423
          58.458245853   -0.18111962250584
          16.198367905   -0.46843975563173
          5.0052600809   -0.44616846289231
 s    1 1.00
         0.58731856571                   1
 s    1 1.00
         0.18764592253                   1
 p    3 1.00
          13.571470233  -0.058848116969522
          2.9257372874   -0.32024624762471
         0.79927750754   -0.75328226520436
 p    1 1.00
         0.21954348034                   1
 d    1 1.00
                     1                   1

5 0
 s    5 1.00
          1712.8415853  -0.0054477995804909
          257.64812677  -0.040627174632423
          58.458245853   -0.18111962250584
          16.198367905   -0.46843975563173
          5.0052600809   -0.44616846289231
 s    1 1.00
         0.58731856571                   1
 s    1 1.00
         0.18764592253                   1
 p    3 1.00
          13.571470233  -0.058848116969522
          2.9257372874   -0.32024624762471
         0.79927750754   -0.75328226520436
 p    1 1.00
         0.21954348034                   1
 d    1 1.00
                     1                   1

6 0
 s    5 1.00
          1712.8415853  -0.0054477995804909
          257.64812677  -0.040627174632423
          58.458245853   -0.18111962250584
          16.198367905   -0.46843975563173
          5.0052600809   -0.44616846289231
 s    1 1.00
         0.58731856571                   1
 s    1 1.00
         0.18764592253                   1
 p    3 1.00
          13.571470233  -0.058848116969522
          2.9257372874   -0.32024624762471
         0.79927750754   -0.75328226520436
 p    1 1.00
         0.21954348034                   1
 d    1 1.00
                     1                   1

7 0
 s    5 1.00
          1712.8415853  -0.0054477995804909
          257.64812677  -0.040627174632423
          58.458245853   -0.18111962250584
          16.198367905   -0.46843975563173
          5.0052600809   -0.44616846289231
 s    1 1.00
         0.58731856571                   1
 s    1 1.00
         0.18764592253                   1
 p    3 1.00
          13.571470233  -0.058848116969522
          2.9257372874   -0.32024624762471
         0.79927750754   -0.75328226520436
 p    1 1.00
         0.21954348034                   1
 d    1 1.00
                     1                   1

8 0
 s    5 1.00
          1712.8415853  -0.0054477995804909
          257.64812677  -0.040627174632423
          58.458245853   -0.18111962250584
          16.198367905   -0.46843975563173
          5.0052600809   -0.44616846289231
 s    1 1.00
         0.58731856571                   1
 s    1 1.00
         0.18764592253                   1
 p    3 1.00
          13.571470233  -0.058848116969522
          2.9257372874   -0.32024624762471
         0.79927750754   -0.75328226520436
 p    1 1.00
         0.21954348034                   1
 d    1 1.00
                     1                   1

9 0
 s    5 1.00
          1238.4016938  0.0055173650481097
          186.29004992   0.041088828555946
          42.251176346     0.1822538212649
          11.676557932    0.46828459437429
          3.5930506482    0.44575817336002
 s    1 1.00
         0.40245147363                   1
 s    1 1.00
         0.13090182668                   1
 p    3 1.00
          9.4680970621   0.056888332011037
          2.0103545142    0.31294059336471
         0.54771004707    0.76065016509135
 p    1 1.00
         0.15268613795                   1
 d    1 1.00
                   0.8                   1

10 0
 s    5 1.00
          1238.4016938  0.0055173650481097
          186.29004992   0.041088828555946
          42.251176346     0.1822538212649
          11.676557932    0.46828459437429
          3.5930506482    0.44575817336002
 s    1 1.00
         0.40245147363                   1
 s    1 1.00
         0.13090182668                   1
 p    3 1.00
          9.4680970621   0.056888332011037
          2.0103545142    0.31294059336471
         0.54771004707    0.76065016509135
 p    1 1.00
         0.15268613795                   1
 d    1 1.00
                   0.8                   1

11 0
 s    5 1.00
          1238.4016938  0.0055173650481097
          186.29004992   0.041088828555946
          42.251176346     0.1822538212649
          11.676557932    0.46828459437429
          3.5930506482    0.44575817336002
 s    1 1.00
         0.40245147363                   1
 s    1 1.00
         0.13090182668                   1
 p    3 1.00
          9.4680970621   0.056888332011037
          2.0103545142    0.31294059336471
         0.54771004707    0.76065016509135
 p    1 1.00
         0.15268613795                   1
 d    1 1.00
                   0.8                   1

12 0
 s    5 1.00
          1238.4016938  0.0055173650481097
          186.29004992   0.041088828555946
          42.251176346     0.1822538212649
          11.676557932    0.46828459437429
          3.5930506482    0.44575817336002
 s    1 1.00
         0.40245147363                   1
 s    1 1.00
         0.13090182668                   1
 p    3 1.00
          9.4680970621   0.056888332011037
          2.0103545142    0.31294059336471
         0.54771004707    0.76065016509135
 p    1 1.00
         0.15268613795                   1
 d    1 1.00
                   0.8                   1

13 0
 s    5 1.00
          1238.4016938  0.0055173650481097
          186.29004992   0.041088828555946
          42.251176346     0.1822538212649
          11.676557932    0.46828459437429
          3.5930506482    0.44575817336002
 s    1 1.00
         0.40245147363                   1
 s    1 1.00
         0.13090182668                   1
 p    3 1.00
          9.4680970621   0.056888332011037
          2.0103545142    0.31294059336471
         0.54771004707    0.76065016509135
 p    1 1.00
         0.15268613795                   1
 d    1 1.00
                   0.8                   1

14 0
 s    5 1.00
          1238.4016938  0.0055173650481097
          186.29004992   0.041088828555946
          42.251176346     0.1822538212649
          11.676557932    0.46828459437429
          3.5930506482    0.44575817336002
 s    1 1.00
         0.40245147363                   1
 s    1 1.00
         0.13090182668                   1
 p    3 1.00
          9.4680970621   0.056888332011037
          2.0103545142    0.31294059336471
         0.54771004707    0.76065016509135
 p    1 1.00
         0.15268613795                   1
 d    1 1.00
                   0.8                   1

15 0
 s    5 1.00
          1238.4016938  0.0055173650481097
          186.29004992   0.041088828555946
          42.251176346     0.1822538212649
          11.676557932    0.46828459437429
          3.5930506482    0.44575817336002
 s    1 1.00
         0.40245147363                   1
 s    1 1.00
         0.13090182668                   1
 p    3 1.00
          9.4680970621   0.056888332011037
          2.0103545142    0.31294059336471
         0.54771004707    0.76065016509135
 p    1 1.00
         0.15268613795                   1
 d    1 1.00
                   0.8                   1

16 0
 s    5 1.00
          1238.4016938  0.0055173650481097
          186.29004992   0.041088828555946
          42.251176346     0.1822538212649
          11.676557932    0.46828459437429
          3.5930506482    0.44575817336002
 s    1 1.00
         0.40245147363                   1
 s    1 1.00
         0.13090182668                   1
 p    3 1.00
          9.4680970621   0.056888332011037
          2.0103545142    0.31294059336471
         0.54771004707    0.76065016509135
 p    1 1.00
         0.15268613795                   1
 d    1 1.00
                   0.8                   1

17 0
 s    5 1.00
          1238.4016938  0.0055173650481097
          186.29004992   0.041088828555946
          42.251176346     0.1822538212649
          11.676557932    0.46828459437429
          3.5930506482    0.44575817336002
 s    1 1.00
         0.40245147363                   1
 s    1 1.00
         0.13090182668                   1
 p    3 1.00
          9.4680970621   0.056888332011037
          2.0103545142    0.31294059336471
         0.54771004707    0.76065016509135
 p    1 1.00
         0.15268613795                   1
 d    1 1.00
                   0.8                   1

18 0
 s    5 1.00
          1238.4016938  0.0055173650481097
          186.29004992   0.041088828555946
          42.251176346     0.1822538212649
          11.676557932    0.46828459437429
          3.5930506482    0.44575817336002
 s    1 1.00
         0.40245147363                   1
 s    1 1.00
         0.13090182668                   1
 p    3 1.00
          9.4680970621   0.056888332011037
          2.0103545142    0.31294059336471
         0.54771004707    0.76065016509135
 p    1 1.00
         0.15268613795                   1
 d    1 1.00
                   0.8                   1

19 0
 s    5 1.00
          1238.4016938  0.0055173650481097
          186.29004992   0.041088828555946
          42.251176346     0.1822538212649
          11.676557932    0.46828459437429
          3.5930506482    0.44575817336002
 s    1 1.00
         0.40245147363                   1
 s    1 1.00
         0.13090182668                   1
 p    3 1.00
          9.4680970621   0.056888332011037
          2.0103545142    0.31294059336471
         0.54771004707    0.76065016509135
 p    1 1.00
         0.15268613795                   1
 d    1 1.00
                   0.8                   1

20 0
 s    5 1.00
          1238.4016938  0.0055173650481097
          186.29004992   0.041088828555946
          42.251176346     0.1822538212649
          11.676557932    0.46828459437429
          3.5930506482    0.44575817336002
 s    1 1.00
         0.40245147363                   1
 s    1 1.00
         0.13090182668                   1
 p    3 1.00
          9.4680970621   0.056888332011037
          2.0103545142    0.31294059336471
         0.54771004707    0.76065016509135
 p    1 1.00
         0.15268613795                   1
 d    1 1.00
                   0.8                   1

21 0
 s    5 1.00
          1238.4016938  0.0055173650481097
          186.29004992   0.041088828555946
          42.251176346     0.1822538212649
          11.676557932    0.46828459437429
          3.5930506482    0.44575817336002
 s    1 1.00
         0.40245147363                   1
 s    1 1.00
         0.13090182668                   1
 p    3 1.00
          9.4680970621   0.056888332011037
          2.0103545142    0.31294059336471
         0.54771004707    0.76065016509135
 p    1 1.00
         0.15268613795                   1
 d    1 1.00
                   0.8                   1

22 0
 s    5 1.00
          1238.4016938  0.0055173650481097
          186.29004992   0.041088828555946
          42.251176346     0.1822538212649
          11.676557932    0.46828459437429
          3.5930506482    0.44575817336002
 s    1 1.00
         0.40245147363                   1
 s    1 1.00
         0.13090182668                   1
 p    3 1.00
          9.4680970621   0.056888332011037
          2.0103545142    0.31294059336471
         0.54771004707    0.76065016509135
 p    1 1.00
         0.15268613795                   1
 d    1 1.00
                   0.8                   1

23 0
 s    5 1.00
          1238.4016938  0.0055173650481097
          186.29004992   0.041088828555946
          42.251176346     0.1822538212649
          11.676557932    0.46828459437429
          3.5930506482    0.44575817336002
 s    1 1.00
         0.40245147363                   1
 s    1 1.00
         0.13090182668                   1
 p    3 1.00
          9.4680970621   0.056888332011037
          2.0103545142    0.31294059336471
         0.54771004707    0.76065016509135
 p    1 1.00
         0.15268613795                   1
 d    1 1.00
                   0.8                   1

24 0
 s    3 1.00
             13.010701   0.033485484812989
             1.9622572    0.23472187088125
            0.44453796    0.81377028525955
 s    1 1.00
            0.12194962                   1
 p    1 1.00
                   0.8                   1

25 0
 s    5 1.00
          1238.4016938  0.0055173650481097
          186.29004992   0.041088828555946
          42.251176346     0.1822538212649
          11.676557932    0.46828459437429
          3.5930506482    0.44575817336002
 s    1 1.00
         0.40245147363                   1
 s    1 1.00
         0.13090182668                   1
 p    3 1.00
          9.4680970621   0.056888332011037
          2.0103545142    0.31294059336471
         0.54771004707    0.76065016509135
 p    1 1.00
         0.15268613795                   1
 d    1 1.00
                   0.8                   1

26 0
 s    3 1.00
             13.010701   0.033485484812989
             1.9622572    0.23472187088125
            0.44453796    0.81377028525955
 s    1 1.00
            0.12194962                   1
 p    1 1.00
                   0.8                   1

27 0
 s    5 1.00
          1238.4016938  0.0055173650481097
          186.29004992   0.041088828555946
          42.251176346     0.1822538212649
          11.676557932    0.46828459437429
          3.5930506482    0.44575817336002
 s    1 1.00
         0.40245147363                   1
 s    1 1.00
         0.13090182668                   1
 p    3 1.00
          9.4680970621   0.056888332011037
          2.0103545142    0.31294059336471
         0.54771004707    0.76065016509135
 p    1 1.00
         0.15268613795                   1
 d    1 1.00
                   0.8                   1

28 0
 s    3 1.00
             13.010701   0.033485484812989
             1.9622572    0.23472187088125
            0.44453796    0.81377028525955
 s    1 1.00
            0.12194962                   1
 p    1 1.00
                   0.8                   1

29 0
 s    5 1.00
          1238.4016938  0.0055173650481097
          186.29004992   0.041088828555946
          42.251176346     0.1822538212649
          11.676557932    0.46828459437429
          3.5930506482    0.44575817336002
 s    1 1.00
         0.40245147363                   1
 s    1 1.00
         0.13090182668                   1
 p    3 1.00
          9.4680970621   0.056888332011037
          2.0103545142    0.31294059336471
         0.54771004707    0.76065016509135
 p    1 1.00
         0.15268613795                   1
 d    1 1.00
                   0.8                   1

30 0
 s    3 1.00
             13.010701   0.033485484812989
             1.9622572    0.23472187088125
            0.44453796    0.81377028525955
 s    1 1.00
            0.12194962                   1
 p    1 1.00
                   0.8                   1

31 0
 s    5 1.00
          1238.4016938  0.0055173650481097
          186.29004992   0.041088828555946
          42.251176346     0.1822538212649
          11.676557932    0.46828459437429
          3.5930506482    0.44575817336002
 s    1 1.00
         0.40245147363                   1
 s    1 1.00
         0.13090182668                   1
 p    3 1.00
          9.4680970621   0.056888332011037
          2.0103545142    0.31294059336471
         0.54771004707    0.76065016509135
 p    1 1.00
         0.15268613795                   1
 d    1 1.00
                   0.8                   1

32 0
 s    3 1.00
             13.010701   0.033485484812989
             1.9622572    0.23472187088125
            0.44453796    0.81377028525955
 s    1 1.00
            0.12194962                   1
 p    1 1.00
                   0.8                   1

33 0
 s    5 1.00
          1238.4016938  0.0055173650481097
          186.29004992   0.041088828555946
          42.251176346     0.1822538212649
          11.676557932    0.46828459437429
          3.5930506482    0.44575817336002
 s    1 1.00
         0.40245147363                   1
 s    1 1.00
         0.13090182668                   1
 p    3 1.00
          9.4680970621   0.056888332011037
          2.0103545142    0.31294059336471
         0.54771004707    0.76065016509135
 p    1 1.00
         0.15268613795                   1
 d    1 1.00
                   0.8                   1

34 0
 s    3 1.00
             13.010701   0.033485484812989
             1.9622572    0.23472187088125
            0.44453796    0.81377028525955
 s    1 1.00
            0.12194962                   1
 p    1 1.00
                   0.8                   1

35 0
 s    5 1.00
          1238.4016938  0.0055173650481097
          186.29004992   0.041088828555946
          42.251176346     0.1822538212649
          11.676557932    0.46828459437429
          3.5930506482    0.44575817336002
 s    1 1.00
         0.40245147363                   1
 s    1 1.00
         0.13090182668                   1
 p    3 1.00
          9.4680970621   0.056888332011037
          2.0103545142    0.31294059336471
         0.54771004707    0.76065016509135
 p    1 1.00
         0.15268613795                   1
 d    1 1.00
                   0.8                   1

36 0
 s    3 1.00
             13.010701   0.033485484812989
             1.9622572    0.23472187088125
            0.44453796    0.81377028525955
 s    1 1.00
            0.12194962                   1
 p    1 1.00
                   0.8                   1

37 0
 s    5 1.00
          1238.4016938  0.0055173650481097
          186.29004992   0.041088828555946
          42.251176346     0.1822538212649
          11.676557932    0.46828459437429
          3.5930506482    0.44575817336002
 s    1 1.00
         0.40245147363                   1
 s    1 1.00
         0.13090182668                   1
 p    3 1.00
          9.4680970621   0.056888332011037
          2.0103545142    0.31294059336471
         0.54771004707    0.76065016509135
 p    1 1.00
         0.15268613795                   1
 d    1 1.00
                   0.8                   1

38 0
 s    3 1.00
             13.010701   0.033485484812989
             1.9622572    0.23472187088125
            0.44453796    0.81377028525955
 s    1 1.00
            0.12194962                   1
 p    1 1.00
                   0.8                   1

39 0
 s    3 1.00
             13.010701   0.033485484812989
             1.9622572    0.23472187088125
            0.44453796    0.81377028525955
 s    1 1.00
            0.12194962                   1
 p    1 1.00
                   0.8                   1

40 0
 s    3 1.00
             13.010701   0.033485484812989
             1.9622572    0.23472187088125
            0.44453796    0.81377028525955
 s    1 1.00
            0.12194962                   1
 p    1 1.00
                   0.8                   1

41 0
 s    3 1.00
             13.010701   0.033485484812989
             1.9622572    0.23472187088125
            0.44453796    0.81377028525955
 s    1 1.00
            0.12194962                   1
 p    1 1.00
                   0.8                   1

42 0
 s    3 1.00
             13.010701   0.033485484812989
             1.9622572    0.23472187088125
            0.44453796    0.81377028525955
 s    1 1.00
            0.12194962                   1
 p    1 1.00
                   0.8                   1

43 0
 s    5 1.00
          1712.8415853  -0.0054477995804909
          257.64812677  -0.040627174632423
          58.458245853   -0.18111962250584
          16.198367905   -0.46843975563173
          5.0052600809   -0.44616846289231
 s    1 1.00
         0.58731856571                   1
 s    1 1.00
         0.18764592253                   1
 p    3 1.00
          13.571470233  -0.058848116969522
          2.9257372874   -0.32024624762471
         0.79927750754   -0.75328226520436
 p    1 1.00
         0.21954348034                   1
 d    1 1.00
                     1                   1

44 0
 s    5 1.00
          1238.4016938  0.0055173650481097
          186.29004992   0.041088828555946
          42.251176346     0.1822538212649
          11.676557932    0.46828459437429
          3.5930506482    0.44575817336002
 s    1 1.00
         0.40245147363                   1
 s    1 1.00
         0.13090182668                   1
 p    3 1.00
          9.4680970621   0.056888332011037
          2.0103545142    0.31294059336471
         0.54771004707    0.76065016509135
 p    1 1.00
         0.15268613795                   1
 d    1 1.00
                   0.8                   1

45 0
 s    3 1.00
             13.010701   0.033485484812989
             1.9622572    0.23472187088125
            0.44453796    0.81377028525955
 s    1 1.00
            0.12194962                   1
 p    1 1.00
                   0.8                   1

46 0
 s    3 1.00
             13.010701   0.033485484812989
             1.9622572    0.23472187088125
            0.44453796    0.81377028525955
 s    1 1.00
            0.12194962                   1
 p    1 1.00
                   0.8                   1

47 0
 s    3 1.00
             13.010701   0.033485484812989
             1.9622572    0.23472187088125
            0.44453796    0.81377028525955
 s    1 1.00
            0.12194962                   1
 p    1 1.00
                   0.8                   1

48 0
 s    3 1.00
             13.010701   0.033485484812989
             1.9622572    0.23472187088125
            0.44453796    0.81377028525955
 s    1 1.00
            0.12194962                   1
 p    1 1.00
                   0.8                   1

[5d]
[7f]
[9g]

[MO]
 Sym= A
 Ene=               0
 Spin= Alpha
 Occup=    1.00000
   1    4.5546940432832e-05
   2    -0.00021291546649766
   3    0.0011697730799152
   4    -2.3502531224266e-05
   5    -2.3099964224024e-05
   6    -0.00012674927911502
   7    -2.0256692662002e-06
   8    -1.9761096872762e-06
   9    0.00053919809506722
  10    6.853684534757e-05
  11    1.4460577893355e-05
  12    1.4445215917988e-05
  13    7.3126925678938e-09
  14    -9.0481372379286e-08
  15    0.00010732460493299
  16    0.00023278438966768
  17    -0.0002361435981674
  18    3.2560627564785e-05
  19    3.2439928047066e-05
  20    0.00024751981379279
  21    -9.6106548787749e-05
  22    -9.663840715901e-05
  23    0.00056279136890414
  24    -6.6590510108128e-05
  25    -4.3736386560541e-06
  26    -4.3274734483955e-06
  27    -9.429233181008e-09
  28    -2.1613439707837e-06
  29    4.1741233514585e-05
  30    -0.00010949180479043
  31    0.00081145958612384
  32    -0.00071610907364623
  33    -0.0026085534180618
  34    0.00011157289079754
  35    0.00011100400248498
  36    0.00011395775253939
  37    -0.00029362732993562
  38    -0.00029220386581617
  39    -5.8589992895734e-05
  40    0.0014963105606667
  41    0.0014940777121832
  42    -0.00045515619669558
  43    -0.0026857846793535
  44    -0.00019374784215689
  45    -0.00019327716161222
  46    -6.2820538259413e-07
  47    -9.4493582328157e-05
  48    -0.0010297149696969
  49    9.7042176051657e-05
  50    9.6638669364211e-05
  51    -5.9244876761978e-07
  52    9.9666016061846e-05
  53    -5.4531595404079e-06
  54    7.8533013897821e-06
  55    7.6875222028913e-06
  56    3.2541690895375e-08
  57    7.5387397078606e-06
  58    3.434929284018e-06
  59    -3.501201321121e-06
  60    2.3158731578732e-05
  61    4.0558588045798e-05
  62    -0.00083166645047612
  63    0.00023438335321311
  64    -1.4108798391593e-05
  65    7.8328193221202e-05
  66    0.0011878515587005
  67    -0.00040738769376062
  68    1.9072273630108e-05
  69    4.5310336103845e-06
  70    -2.193525691354e-05
  71    -4.6969417747486e-06
  72    1.2709008623135e-05
  73    1.3612143450663e-05
  74    2.2928157259845e-05
  75    3.9711011866785e-05
  76    -0.00083195056626922