[Molden Format]
made by pyscf v[2.0.1]
[Atoms] (AU)
C   1   6    -0.00491185910195    -0.00302299034612    -6.30478139015019
O   2   8    -0.00302499062123    -0.00226824280266    -4.17507277885027
[GTO]
1 0
 s    5 1.00
          1238.4016938  0.0055173650481097
          186.29004992   0.041088828555946
          42.251176346     0.1822538212649
          11.676557932    0.46828459437429
          3.5930506482    0.44575817336002
 s    1 1.00
         0.40245147363                   1
 s    1 1.00
         0.13090182668                   1
 p    3 1.00
          9.4680970621   0.056888332011037
          2.0103545142    0.31294059336471
         0.54771004707    0.76065016509135
 p    1 1.00
         0.15268613795                   1
 d    1 1.00
                   0.8                   1

2 0
 s    5 1.00
          2266.1767785  -0.0053893503921743
          340.87010191   -0.04023472138896
          77.363135167   -0.18008184205526
           21.47964494   -0.46828857657651
          6.6589433124   -0.44692617160187
 s    1 1.00
         0.80975975668                   1
 s    1 1.00
         0.25530772234                   1
 p    3 1.00
          17.721504317   0.062630248763161
           3.863550544    0.33331138482352
          1.0480920883    0.74148638308122
 p    1 1.00
         0.27641544411                   1
 d    1 1.00
                   1.2                   1

[5d]
[7f]
[9g]

[MO]
 Sym= A
 Ene=               0
 Spin= Alpha
 Occup=    1.00000
   1     0.021020090753857
   2     -0.14891070994193
   3     -0.40490559525298
   4    0.00043635051794298
   5    0.00017454024268583
   6      0.49249702850738
   7    0.00010095815902403
   8    4.0383271809237e-05
   9      0.11394017965158
  10     0.037947702765056
  11    5.8230240576613e-05
  12    2.3292100991357e-05
  13    2.1708859061573e-08
  14    2.0614444224023e-08
  15     0.043770085285819
  16     0.018139301303759
  17    -0.093979725861177
  18    -0.00041560110655276
  19    -0.00016624047591214
  20     -0.46912657140073
  21    -0.00018813292775513
  22    -7.5253186119482e-05
  23     -0.21236956272102
  24     0.016405495410426
  25    2.5174739241022e-05
  26    1.0069897783106e-05
  27    9.3499018647118e-09
  28    8.9317901177004e-09
