[Molden Format]
made by pyscf v[2.0.1]
[Atoms] (AU)
C   1   6     0.69100024066471     0.64692934207205    -3.48223131169301
H   2   1     2.68052439830868     1.13355088658700    -3.25784032593313
C   3   6    -0.36286361513219     0.85440132524594    -5.97030179418974
H   4   1    -2.35448549047279     0.36322488579172    -6.17995817793143
C   5   6     0.93697958957450     1.61209284601821    -8.05828437677121
H   6   1     1.79023114573091     3.48620134168797    -8.08322278856913
C   7   6     1.25568723688000     0.06665493916240   -10.26426053014808
H   8   1     0.39118722523993    -1.80671768770582   -10.21099750517578
H   9   1     1.55630230933075    -1.92953025305990    12.99630010416247
C   10   6     0.75233899775814    -2.21270439606481    11.10705728102219
H   11   1    -0.43433408177274    -3.90944857546550    11.22216085340412
C   12   6     2.86362581178706    -2.63237380607947     9.17926416456045
H   13   1     4.39038949912609    -1.24955421540245     9.49899813497433
H   14   1     3.74629220191363    -4.48798724300892     9.47414880959024
C   15   6     2.02478325613682    -2.42177285709634     6.44560829588644
C   16   6     3.88048732735477    -3.58795445234514     4.61402886975252
C   17   6    -0.18412382258602    -1.30464291234259     5.76021113872346
C   18   6    -2.10044360464350    -0.26837831858460     7.71610340967100
C   19   6    -3.08956938670431     2.35282328359417     6.88693925039594
C   20   6    -4.37372924086464    -2.09766595989678     7.93610724222001
C   21   6    -0.83850430601230     0.06372213486173    10.33002307638377
H   22   1     0.38411922151109     1.74281358582432    10.27380136542181
H   23   1    -2.30980003007874     0.45460143924521    11.73986301809809
H   24   1     4.58527064644668    -5.38706904487420     5.36778158031719
H   25   1     5.54944938085014    -2.37631462192748     4.35398898413318
H   26   1     3.06633019150423    -3.94118377050688     2.75255466040884
H   27   1    -4.17727778763735     2.26573369139522     5.12914900961283
H   28   1    -1.52662344944051     3.68001877445626     6.59540397144508
H   29   1    -4.32916174397830     3.13643051467482     8.35225460090378
H   30   1    -5.32329548508442    -2.36691813602939     6.11583672749896
H   31   1    -5.77989366602257    -1.33896741843465     9.25748940450990
H   32   1    -3.79310905208926    -3.96389819310853     8.61386170102686
C   33   6    -1.01100794811226    -1.06331657314144     3.11929490449947
C   34   6     0.37686231036534    -0.33275864505552     1.09165013605873
H   35   1    -3.01671213906703    -1.40297922279997     2.77827895090944
C   36   6    -0.64382707979370    -0.11591880174385    -1.42063131251064
H   37   1     2.35569259782137     0.17174499283897     1.33641070251401
H   38   1    -2.63317482980319    -0.60229203511219    -1.66119700387645
C   39   6     2.53016326718275     0.74184279311179   -12.38477126217512
C   40   6     2.74761784180424    -0.97075180884473   -14.53576076061004
H   41   1     3.43489191747297     2.57981441042514   -12.56110828288274
O   42   8     3.86136937293188    -0.48701494751058   -16.49697984673750
H   43   1     1.79359090776017    -2.83108880557309   -14.27278208139205
[GTO]
1 0
 s    6 1.00
             3047.5249  0.0018347001629433
             457.36951    0.01403730124668
             103.94869   0.068842606114048
             29.210155    0.23218442062076
              9.286663    0.46794134155879
              3.163927    0.36231203217765
 s    3 1.00
             7.8682724   -0.11933240861517
             1.8812885   -0.16085421161283
             0.5442493     1.1434564825515
 s    1 1.00
             0.1687144                   1
 p    3 1.00
             7.8682724   0.068999095584993
             1.8812885    0.31642397975315
             0.5442493    0.74430825237435
 p    1 1.00
             0.1687144                   1
 d    1 1.00
                   0.8                   1

2 0
 s    3 1.00
             18.731137    0.03349459952309
             2.8253937    0.23472694665786
             0.6401217    0.81375731841339
 s    1 1.00
             0.1612778                   1

3 0
 s    6 1.00
             3047.5249  0.0018347001629433
             457.36951    0.01403730124668
             103.94869   0.068842606114048
             29.210155    0.23218442062076
              9.286663    0.46794134155879
              3.163927    0.36231203217765
 s    3 1.00
             7.8682724   -0.11933240861517
             1.8812885   -0.16085421161283
             0.5442493     1.1434564825515
 s    1 1.00
             0.1687144                   1
 p    3 1.00
             7.8682724   0.068999095584993
             1.8812885    0.31642397975315
             0.5442493    0.74430825237435
 p    1 1.00
             0.1687144                   1
 d    1 1.00
                   0.8                   1

4 0
 s    3 1.00
             18.731137    0.03349459952309
             2.8253937    0.23472694665786
             0.6401217    0.81375731841339
 s    1 1.00
             0.1612778                   1

5 0
 s    6 1.00
             3047.5249  0.0018347001629433
             457.36951    0.01403730124668
             103.94869   0.068842606114048
             29.210155    0.23218442062076
              9.286663    0.46794134155879
              3.163927    0.36231203217765
 s    3 1.00
             7.8682724   -0.11933240861517
             1.8812885   -0.16085421161283
             0.5442493     1.1434564825515
 s    1 1.00
             0.1687144                   1
 p    3 1.00
             7.8682724   0.068999095584993
             1.8812885    0.31642397975315
             0.5442493    0.74430825237435
 p    1 1.00
             0.1687144                   1
 d    1 1.00
                   0.8                   1

6 0
 s    3 1.00
             18.731137    0.03349459952309
             2.8253937    0.23472694665786
             0.6401217    0.81375731841339
 s    1 1.00
             0.1612778                   1

7 0
 s    6 1.00
             3047.5249  0.0018347001629433
             457.36951    0.01403730124668
             103.94869   0.068842606114048
             29.210155    0.23218442062076
              9.286663    0.46794134155879
              3.163927    0.36231203217765
 s    3 1.00
             7.8682724   -0.11933240861517
             1.8812885   -0.16085421161283
             0.5442493     1.1434564825515
 s    1 1.00
             0.1687144                   1
 p    3 1.00
             7.8682724   0.068999095584993
             1.8812885    0.31642397975315
             0.5442493    0.74430825237435
 p    1 1.00
             0.1687144                   1
 d    1 1.00
                   0.8                   1

8 0
 s    3 1.00
             18.731137    0.03349459952309
             2.8253937    0.23472694665786
             0.6401217    0.81375731841339
 s    1 1.00
             0.1612778                   1

9 0
 s    3 1.00
             18.731137    0.03349459952309
             2.8253937    0.23472694665786
             0.6401217    0.81375731841339
 s    1 1.00
             0.1612778                   1

10 0
 s    6 1.00
             3047.5249  0.0018347001629433
             457.36951    0.01403730124668
             103.94869   0.068842606114048
             29.210155    0.23218442062076
              9.286663    0.46794134155879
              3.163927    0.36231203217765
 s    3 1.00
             7.8682724   -0.11933240861517
             1.8812885   -0.16085421161283
             0.5442493     1.1434564825515
 s    1 1.00
             0.1687144                   1
 p    3 1.00
             7.8682724   0.068999095584993
             1.8812885    0.31642397975315
             0.5442493    0.74430825237435
 p    1 1.00
             0.1687144                   1
 d    1 1.00
                   0.8                   1

11 0
 s    3 1.00
             18.731137    0.03349459952309
             2.8253937    0.23472694665786
             0.6401217    0.81375731841339
 s    1 1.00
             0.1612778                   1

12 0
 s    6 1.00
             3047.5249  0.0018347001629433
             457.36951    0.01403730124668
             103.94869   0.068842606114048
             29.210155    0.23218442062076
              9.286663    0.46794134155879
              3.163927    0.36231203217765
 s    3 1.00
             7.8682724   -0.11933240861517
             1.8812885   -0.16085421161283
             0.5442493     1.1434564825515
 s    1 1.00
             0.1687144                   1
 p    3 1.00
             7.8682724   0.068999095584993
             1.8812885    0.31642397975315
             0.5442493    0.74430825237435
 p    1 1.00
             0.1687144                   1
 d    1 1.00
                   0.8                   1

13 0
 s    3 1.00
             18.731137    0.03349459952309
             2.8253937    0.23472694665786
             0.6401217    0.81375731841339
 s    1 1.00
             0.1612778                   1

14 0
 s    3 1.00
             18.731137    0.03349459952309
             2.8253937    0.23472694665786
             0.6401217    0.81375731841339
 s    1 1.00
             0.1612778                   1

15 0
 s    6 1.00
             3047.5249  0.0018347001629433
             457.36951    0.01403730124668
             103.94869   0.068842606114048
             29.210155    0.23218442062076
              9.286663    0.46794134155879
              3.163927    0.36231203217765
 s    3 1.00
             7.8682724   -0.11933240861517
             1.8812885   -0.16085421161283
             0.5442493     1.1434564825515
 s    1 1.00
             0.1687144                   1
 p    3 1.00
             7.8682724   0.068999095584993
             1.8812885    0.31642397975315
             0.5442493    0.74430825237435
 p    1 1.00
             0.1687144                   1
 d    1 1.00
                   0.8                   1

16 0
 s    6 1.00
             3047.5249  0.0018347001629433
             457.36951    0.01403730124668
             103.94869   0.068842606114048
             29.210155    0.23218442062076
              9.286663    0.46794134155879
              3.163927    0.36231203217765
 s    3 1.00
             7.8682724   -0.11933240861517
             1.8812885   -0.16085421161283
             0.5442493     1.1434564825515
 s    1 1.00
             0.1687144                   1
 p    3 1.00
             7.8682724   0.068999095584993
             1.8812885    0.31642397975315
             0.5442493    0.74430825237435
 p    1 1.00
             0.1687144                   1
 d    1 1.00
                   0.8                   1

17 0
 s    6 1.00
             3047.5249  0.0018347001629433
             457.36951    0.01403730124668
             103.94869   0.068842606114048
             29.210155    0.23218442062076
              9.286663    0.46794134155879
              3.163927    0.36231203217765
 s    3 1.00
             7.8682724   -0.11933240861517
             1.8812885   -0.16085421161283
             0.5442493     1.1434564825515
 s    1 1.00
             0.1687144                   1
 p    3 1.00
             7.8682724   0.068999095584993
             1.8812885    0.31642397975315
             0.5442493    0.74430825237435
 p    1 1.00
             0.1687144                   1
 d    1 1.00
                   0.8                   1

18 0
 s    6 1.00
             3047.5249  0.0018347001629433
             457.36951    0.01403730124668
             103.94869   0.068842606114048
             29.210155    0.23218442062076
              9.286663    0.46794134155879
              3.163927    0.36231203217765
 s    3 1.00
             7.8682724   -0.11933240861517
             1.8812885   -0.16085421161283
             0.5442493     1.1434564825515
 s    1 1.00
             0.1687144                   1
 p    3 1.00
             7.8682724   0.068999095584993
             1.8812885    0.31642397975315
             0.5442493    0.74430825237435
 p    1 1.00
             0.1687144                   1
 d    1 1.00
                   0.8                   1

19 0
 s    6 1.00
             3047.5249  0.0018347001629433
             457.36951    0.01403730124668
             103.94869   0.068842606114048
             29.210155    0.23218442062076
              9.286663    0.46794134155879
              3.163927    0.36231203217765
 s    3 1.00
             7.8682724   -0.11933240861517
             1.8812885   -0.16085421161283
             0.5442493     1.1434564825515
 s    1 1.00
             0.1687144                   1
 p    3 1.00
             7.8682724   0.068999095584993
             1.8812885    0.31642397975315
             0.5442493    0.74430825237435
 p    1 1.00
             0.1687144                   1
 d    1 1.00
                   0.8                   1

20 0
 s    6 1.00
             3047.5249  0.0018347001629433
             457.36951    0.01403730124668
             103.94869   0.068842606114048
             29.210155    0.23218442062076
              9.286663    0.46794134155879
              3.163927    0.36231203217765
 s    3 1.00
             7.8682724   -0.11933240861517
             1.8812885   -0.16085421161283
             0.5442493     1.1434564825515
 s    1 1.00
             0.1687144                   1
 p    3 1.00
             7.8682724   0.068999095584993
             1.8812885    0.31642397975315
             0.5442493    0.74430825237435
 p    1 1.00
             0.1687144                   1
 d    1 1.00
                   0.8                   1

21 0
 s    6 1.00
             3047.5249  0.0018347001629433
             457.36951    0.01403730124668
             103.94869   0.068842606114048
             29.210155    0.23218442062076
              9.286663    0.46794134155879
              3.163927    0.36231203217765
 s    3 1.00
             7.8682724   -0.11933240861517
             1.8812885   -0.16085421161283
             0.5442493     1.1434564825515
 s    1 1.00
             0.1687144                   1
 p    3 1.00
             7.8682724   0.068999095584993
             1.8812885    0.31642397975315
             0.5442493    0.74430825237435
 p    1 1.00
             0.1687144                   1
 d    1 1.00
                   0.8                   1

22 0
 s    3 1.00
             18.731137    0.03349459952309
             2.8253937    0.23472694665786
             0.6401217    0.81375731841339
 s    1 1.00
             0.1612778                   1

23 0
 s    3 1.00
             18.731137    0.03349459952309
             2.8253937    0.23472694665786
             0.6401217    0.81375731841339
 s    1 1.00
             0.1612778                   1

24 0
 s    3 1.00
             18.731137    0.03349459952309
             2.8253937    0.23472694665786
             0.6401217    0.81375731841339
 s    1 1.00
             0.1612778                   1

25 0
 s    3 1.00
             18.731137    0.03349459952309
             2.8253937    0.23472694665786
             0.6401217    0.81375731841339
 s    1 1.00
             0.1612778                   1

26 0
 s    3 1.00
             18.731137    0.03349459952309
             2.8253937    0.23472694665786
             0.6401217    0.81375731841339
 s    1 1.00
             0.1612778                   1

27 0
 s    3 1.00
             18.731137    0.03349459952309
             2.8253937    0.23472694665786
             0.6401217    0.81375731841339
 s    1 1.00
             0.1612778                   1

28 0
 s    3 1.00
             18.731137    0.03349459952309
             2.8253937    0.23472694665786
             0.6401217    0.81375731841339
 s    1 1.00
             0.1612778                   1

29 0
 s    3 1.00
             18.731137    0.03349459952309
             2.8253937    0.23472694665786
             0.6401217    0.81375731841339
 s    1 1.00
             0.1612778                   1

30 0
 s    3 1.00
             18.731137    0.03349459952309
             2.8253937    0.23472694665786
             0.6401217    0.81375731841339
 s    1 1.00
             0.1612778                   1

31 0
 s    3 1.00
             18.731137    0.03349459952309
             2.8253937    0.23472694665786
             0.6401217    0.81375731841339
 s    1 1.00
             0.1612778                   1

32 0
 s    3 1.00
             18.731137    0.03349459952309
             2.8253937    0.23472694665786
             0.6401217    0.81375731841339
 s    1 1.00
             0.1612778                   1

33 0
 s    6 1.00
             3047.5249  0.0018347001629433
             457.36951    0.01403730124668
             103.94869   0.068842606114048
             29.210155    0.23218442062076
              9.286663    0.46794134155879
              3.163927    0.36231203217765
 s    3 1.00
             7.8682724   -0.11933240861517
             1.8812885   -0.16085421161283
             0.5442493     1.1434564825515
 s    1 1.00
             0.1687144                   1
 p    3 1.00
             7.8682724   0.068999095584993
             1.8812885    0.31642397975315
             0.5442493    0.74430825237435
 p    1 1.00
             0.1687144                   1
 d    1 1.00
                   0.8                   1

34 0
 s    6 1.00
             3047.5249  0.0018347001629433
             457.36951    0.01403730124668
             103.94869   0.068842606114048
             29.210155    0.23218442062076
              9.286663    0.46794134155879
              3.163927    0.36231203217765
 s    3 1.00
             7.8682724   -0.11933240861517
             1.8812885   -0.16085421161283
             0.5442493     1.1434564825515
 s    1 1.00
             0.1687144                   1
 p    3 1.00
             7.8682724   0.068999095584993
             1.8812885    0.31642397975315
             0.5442493    0.74430825237435
 p    1 1.00
             0.1687144                   1
 d    1 1.00
                   0.8                   1

35 0
 s    3 1.00
             18.731137    0.03349459952309
             2.8253937    0.23472694665786
             0.6401217    0.81375731841339
 s    1 1.00
             0.1612778                   1

36 0
 s    6 1.00
             3047.5249  0.0018347001629433
             457.36951    0.01403730124668
             103.94869   0.068842606114048
             29.210155    0.23218442062076
              9.286663    0.46794134155879
              3.163927    0.36231203217765
 s    3 1.00
             7.8682724   -0.11933240861517
             1.8812885   -0.16085421161283
             0.5442493     1.1434564825515
 s    1 1.00
             0.1687144                   1
 p    3 1.00
             7.8682724   0.068999095584993
             1.8812885    0.31642397975315
             0.5442493    0.74430825237435
 p    1 1.00
             0.1687144                   1
 d    1 1.00
                   0.8                   1

37 0
 s    3 1.00
             18.731137    0.03349459952309
             2.8253937    0.23472694665786
             0.6401217    0.81375731841339
 s    1 1.00
             0.1612778                   1

38 0
 s    3 1.00
             18.731137    0.03349459952309
             2.8253937    0.23472694665786
             0.6401217    0.81375731841339
 s    1 1.00
             0.1612778                   1

39 0
 s    6 1.00
             3047.5249  0.0018347001629433
             457.36951    0.01403730124668
             103.94869   0.068842606114048
             29.210155    0.23218442062076
              9.286663    0.46794134155879
              3.163927    0.36231203217765
 s    3 1.00
             7.8682724   -0.11933240861517
             1.8812885   -0.16085421161283
             0.5442493     1.1434564825515
 s    1 1.00
             0.1687144                   1
 p    3 1.00
             7.8682724   0.068999095584993
             1.8812885    0.31642397975315
             0.5442493    0.74430825237435
 p    1 1.00
             0.1687144                   1
 d    1 1.00
                   0.8                   1

40 0
 s    6 1.00
             3047.5249  0.0018347001629433
             457.36951    0.01403730124668
             103.94869   0.068842606114048
             29.210155    0.23218442062076
              9.286663    0.46794134155879
              3.163927    0.36231203217765
 s    3 1.00
             7.8682724   -0.11933240861517
             1.8812885   -0.16085421161283
             0.5442493     1.1434564825515
 s    1 1.00
             0.1687144                   1
 p    3 1.00
             7.8682724   0.068999095584993
             1.8812885    0.31642397975315
             0.5442493    0.74430825237435
 p    1 1.00
             0.1687144                   1
 d    1 1.00
                   0.8                   1

41 0
 s    3 1.00
             18.731137    0.03349459952309
             2.8253937    0.23472694665786
             0.6401217    0.81375731841339
 s    1 1.00
             0.1612778                   1

42 0
 s    6 1.00
             5484.6717   0.001831099805527
             825.23495   0.013950098518422
             188.04696    0.06844509273075
               52.9645    0.23271427528445
              16.89757    0.47019295006289
             5.7996353    0.35852086192309
 s    3 1.00
             15.539616   -0.11077750382508
             3.5999336   -0.14802630511126
             1.0137618     1.1307670390447
 s    1 1.00
             0.2700058                   1
 p    3 1.00
             15.539616   0.070874299543311
             3.5999336    0.33975279781076
             1.0137618    0.72715859531445
 p    1 1.00
             0.2700058                   1
 d    1 1.00
                   0.8                   1

43 0
 s    3 1.00
             18.731137    0.03349459952309
             2.8253937    0.23472694665786
             0.6401217    0.81375731841339
 s    1 1.00
             0.1612778                   1

[5d]
[7f]
[9g]

[MO]
 Sym= A
 Ene=               0
 Spin= Alpha
 Occup=    1.00000
   1     0.017645336601525
   2    -0.00089329032578031
   3    0.0064646463292443
   4    0.00036137347623603
   5    -5.9970631053364e-05
   6    0.0011697757007763
   7    0.00075930091887213
   8    0.00082221277388489
   9    -0.0043570526627445
  10    -0.00095928871161125
  11    -0.00089576981332258
  12    0.00014588628595316
  13    -0.00021559697138506
  14    5.036325621417e-05
  15    -0.00041240119815769
  16    -0.00080161310983454
  17      0.99469763351955
  18     0.036408267142059
  19    -0.027444660761167
  20    0.0007686394516295
  21    0.00014502212973718
  22    -0.00043525149347274
  23    -0.0030780294896158
  24    -0.00091091506081127
  25    -0.00033652536955116
  26    0.00080456036727439
  27    -0.00025523575265176
  28    -0.00037680337793751
  29    0.00028058958216722
  30    0.00013971525991255
  31    -0.0010613371956244
  32    0.0039072659851898
  33     0.023460259448504
  34    -0.00023845541028969
  35    0.0026084859176774
  36    0.00081834595500268
  37    0.00032674208379093
  38    -0.0012038722779632
  39    -0.00079673494766198
  40    0.0023365281244349
  41    0.0047110315394127
  42    -0.00066632410252596
  43    0.0010490606654435
  44    0.00045054671648643
  45    -0.00033858850815363
  46    -0.0004380820561688
  47    -0.00050579129704983
  48    -0.00056705930015285
  49    0.0013125843246574
  50    -0.00043179691600857
  51    0.00041993038591256
  52    6.7682050446327e-05
  53    4.8705624168806e-05
  54    -0.00041934191527072
  55    -0.0021643332498875
  56    0.00045933889217888
  57    0.0061080335233142
  58    -5.0782509064221e-05
  59    5.1597676322384e-05
  60    0.00019902979659233
  61    -0.0001712257396975
  62    5.5283490707981e-05
  63    -0.00039011004111992
  64    4.4000140395193e-05
  65    -3.5680212360978e-06
  66    -5.5680568870403e-06
  67    8.9408296996528e-07
  68    -3.0632221763176e-06
  69    6.8441836615811e-06
  70    1.6159567480559e-06
  71    -4.4552441806539e-06
  72    1.0125451803145e-06
  73     5.64227308683e-06
  74    2.0587268056051e-05
  75    5.869809297899e-06
  76    -6.6687936826328e-07
  77    -5.9731242880801e-07
  78    5.6144095392302e-07
  79    5.0300024627706e-07
  80    -1.3250807184355e-07
  81    2.3217574734154e-06
  82    1.1657396838027e-05
  83    1.6941638786525e-06
  84    -2.5885576140422e-06
  85    -7.2837427405843e-05
  86    8.9621369294487e-06
  87    2.4091774144662e-06
  88    1.5069109637422e-05
  89    2.582956224412e-05
  90    -5.0581920718453e-05
  91    2.0515938806351e-05
  92    9.5278570900735e-07
  93    -1.8239672464655e-06
  94    3.3198540389708e-06
  95    -1.786018795747e-07
  96    -5.3215537090433e-07
  97    1.0570163048578e-05
  98    1.8645593607485e-05
  99    -2.0119949489628e-06
 100    -1.5682737390137e-05
 101    -2.8269822167707e-06
 102    -8.1264632373958e-06
 103    0.00016898876067757
 104    -1.4960566944137e-05
 105    -1.9357825870575e-05
 106    -3.9613066607162e-06
 107    -0.00017379775615667
 108    0.0001332902624129
 109    0.00014689343950176
 110    -6.6695495236594e-06
 111    -3.1868109465049e-06
 112    1.3320834690612e-06
 113    2.9668302027803e-06
 114    -4.4042444458052e-06
 115    -5.6734358133597e-06
 116    -2.6815396544894e-05
 117    0.00023435633298406
 118    -5.2610838910398e-06
 119     8.41039420753e-06
 120    8.8801182435126e-06
 121    -5.3757298203088e-05
 122    2.343646789581e-05
 123    2.644077602257e-05
 124    6.6500688144501e-07
 125    -2.3444134044228e-06
 126    -1.9791114345785e-06
 127    1.0206617028818e-06
 128    -1.458884468376e-06
 129    7.4315168587038e-06
 130    -7.2000961055112e-05
 131    8.6089145059896e-05
 132    1.6457719567167e-05
 133    -6.6191818022348e-06
 134    9.6304022861693e-05
 135    -0.00024358509408015
 136    4.0504705268173e-05
 137    -0.00035397702010015
 138    1.2037955111099e-05
 139    5.9377824455148e-06
 140    2.0450989323116e-06
 141    2.5235734476105e-06
 142    3.7202985309066e-06
 143    -9.6660172789525e-06
 144    -3.7322896388307e-06
 145    8.8907939615274e-05
 146    1.932894754284e-05
 147    -8.0278919854196e-06
 148    -2.3400897683045e-05
 149    5.2298915837626e-05
 150    -5.5418837287285e-05
 151    -2.9616672307437e-05
 152    -8.5729651864385e-06
 153    -3.8435989634004e-06
 154    -1.1765485918918e-06
 155    4.5816799461603e-06
 156    -4.0920072716959e-06
 157    -2.0497518829027e-07
 158    7.8704209966486e-06
 159    1.4077398800089e-05
 160    6.021971465194e-06
 161    -4.3493515372315e-06
 162    3.4192234535763e-06
 163    -3.4543149879271e-05
 164    1.1210756696502e-06
 165    8.1393198224192e-06
 166    1.9500826414227e-06
 167    -4.4952147145997e-07
 168    2.0460970436827e-07
 169    -3.3242643279083e-07
 170    5.9183281159876e-07
 171    -1.2719229974595e-06
 172    -9.3060847910078e-06
 173    1.9885940970196e-05
 174    -1.7169861307997e-06
 175    1.7134640490884e-06
 176    7.4686965558193e-06
 177    -2.3056832949683e-05
 178    -1.0369586243784e-06
 179    -3.5066192656898e-05
 180    1.3553741195183e-06
 181    2.0459115537952e-06
 182    -5.1575509043374e-08
 183    -1.237024279121e-06
 184    5.1189462829795e-07
 185    9.6610744825522e-07
 186    -2.7415282238776e-05
 187    1.4877223623703e-05
 188    3.528106224638e-06
 189    4.2381517311859e-06
 190    2.1969593506295e-05
 191    1.2328933662023e-05
 192    4.3356153173384e-06
 193    -3.3811037620356e-05
 194    3.259364418649e-06
 195    -4.3691311580663e-07
 196    1.5701829307299e-06
 197    -4.0290453974671e-07
 198    -4.2122779443009e-08
 199    -5.5640089977153e-06
 200    -2.8295750098419e-06
 201    4.9928161068617e-06
 202    3.269280620554e-05
 203    -1.2055243038329e-05
 204    -5.7441475951397e-06
 205    1.9620558243033e-06
 206    -1.7799420445745e-05
 207    7.2145398575827e-06
 208    -7.0107185986704e-05
 209    3.3421487405453e-06
 210    -2.9412896526576e-05
 211    2.602637643971e-06
 212    1.0646364809362e-05
 213    1.9248071956408e-06
 214    -1.0555444697281e-05
 215    -2.3730474604076e-06
 216    -5.720610844685e-05
 217    3.4116466569649e-06
 218    1.1187981695663e-05
 219    -7.1287312379636e-07
 220    4.613957622685e-06
 221    -8.2834659833559e-05
 222    0.00010260273537967
 223    0.00060619339415447
 224    9.5570974730568e-05
 225    5.9595252326737e-05
 226    -0.00020447952375738
 227    0.00053168701643314
 228    0.00023461249727443
 229    -0.00070572698645031
 230    -7.0579575109302e-06
 231    -3.4286446043159e-05
 232    -1.4442466888547e-05
 233    1.8411244950974e-05
 234    1.9120426924473e-05
 235    0.00013798113389627
 236    -0.00033299609307236
 237    1.4610121881951e-05
 238    -0.0002015604116525
 239    -0.00015052977631728
 240    0.00052571890561631
 241    4.3977081787784e-05
 242     0.000180537494487
 243    -0.0011507932678268
 244    1.4125967176044e-05
 245     4.33606196485e-05
 246    1.1004503832408e-05
 247    8.407813042175e-06
 248    1.780655900134e-06
 249    -8.8339223018095e-06
 250    0.0002811746432801
 251    -0.00033387210577157
 252    -0.00038530906125737
 253    0.0012834369892524
 254    -0.00047708909035305
 255    -0.00010974292597934
 256    -0.00018638678457749
 257    -0.00060861854151425
 258    0.0003333036293269
 259    -0.0017079818301443
 260    -8.7483055308565e-05
 261    -1.8473565530656e-05
 262    -1.6953327349212e-05
 263    0.00012981195585257
 264    9.4856323114503e-05
 265    -0.00023879020345877
 266    0.00012593663977347
 267    0.00020972232236566
 268    -0.00030159034523361
 269    -7.1817215120128e-06
 270    -0.00037473005940092
 271    0.0049595370667699
 272    -3.6219028130829e-05
 273    -0.00018700693267324
 274    1.7837069580702e-05
 275    -0.0019030629088557
 276    -0.0018426308062066
 277    0.0017232517429393
 278    5.9729036635933e-05
 279    -0.00013318270139033
 280    -3.0359678875749e-05
 281    7.9640488749966e-06