[Molden Format]
made by pyscf v[2.0.1]
[Atoms] (AU)
C   1   6     0.69100024066471     0.64692934207205    -3.48223131169301
H   2   1     2.68052439830868     1.13355088658700    -3.25784032593313
C   3   6    -0.36286361513219     0.85440132524594    -5.97030179418974
H   4   1    -2.35448549047279     0.36322488579172    -6.17995817793143
C   5   6     0.93697958957450     1.61209284601821    -8.05828437677121
H   6   1     0.14022243979667     3.08603065646166    -9.25562650474843
C   7   6     3.33155915073320     0.56926267114995    -8.78956929307971
H   8   1     4.10661901770469    -0.90506612570738    -7.57081623325171
H   9   1     1.55630230933075    -1.92953025305990    12.99630010416247
C   10   6     0.75233899775814    -2.21270439606481    11.10705728102219
H   11   1    -0.43433408177274    -3.90944857546550    11.22216085340412
C   12   6     2.86362581178706    -2.63237380607947     9.17926416456045
H   13   1     4.39038949912609    -1.24955421540245     9.49899813497433
H   14   1     3.74629220191363    -4.48798724300892     9.47414880959024
C   15   6     2.02478325613682    -2.42177285709634     6.44560829588644
C   16   6     3.88048732735477    -3.58795445234514     4.61402886975252
C   17   6    -0.18412382258602    -1.30464291234259     5.76021113872346
C   18   6    -2.10044360464350    -0.26837831858460     7.71610340967100
C   19   6    -3.08956938670431     2.35282328359417     6.88693925039594
C   20   6    -4.37372924086464    -2.09766595989678     7.93610724222001
C   21   6    -0.83850430601230     0.06372213486173    10.33002307638377
H   22   1     0.38411922151109     1.74281358582432    10.27380136542181
H   23   1    -2.30980003007874     0.45460143924521    11.73986301809809
H   24   1     4.58527064644668    -5.38706904487420     5.36778158031719
H   25   1     5.54944938085014    -2.37631462192748     4.35398898413318
H   26   1     3.06633019150423    -3.94118377050688     2.75255466040884
H   27   1    -4.17727778763735     2.26573369139522     5.12914900961283
H   28   1    -1.52662344944051     3.68001877445626     6.59540397144508
H   29   1    -4.32916174397830     3.13643051467482     8.35225460090378
H   30   1    -5.32329548508442    -2.36691813602939     6.11583672749896
H   31   1    -5.77989366602257    -1.33896741843465     9.25748940450990
H   32   1    -3.79310905208926    -3.96389819310853     8.61386170102686
C   33   6    -1.01100794811226    -1.06331657314144     3.11929490449947
C   34   6     0.37686231036534    -0.33275864505552     1.09165013605873
H   35   1    -3.01671213906703    -1.40297922279997     2.77827895090944
C   36   6    -0.64382707979370    -0.11591880174385    -1.42063131251064
H   37   1     2.35569259782137     0.17174499283897     1.33641070251401
H   38   1    -2.63317482980319    -0.60229203511219    -1.66119700387645
C   39   6     4.69106502259275     1.26188352336463   -10.85081981009206
C   40   6     7.11506387067225     0.08270412537969   -11.43459041306820
H   41   1     4.02727424636240     2.71762167762249   -12.14232148362751
O   42   8     8.43283181269616     0.61123359193353   -13.25254761350674
H   43   1     7.72125158488297    -1.39686243822724   -10.06214800755086
[GTO]
1 0
 s    6 1.00
             3047.5249  0.0018347001629433
             457.36951    0.01403730124668
             103.94869   0.068842606114048
             29.210155    0.23218442062076
              9.286663    0.46794134155879
              3.163927    0.36231203217765
 s    3 1.00
             7.8682724   -0.11933240861517
             1.8812885   -0.16085421161283
             0.5442493     1.1434564825515
 s    1 1.00
             0.1687144                   1
 p    3 1.00
             7.8682724   0.068999095584993
             1.8812885    0.31642397975315
             0.5442493    0.74430825237435
 p    1 1.00
             0.1687144                   1
 d    1 1.00
                   0.8                   1

2 0
 s    3 1.00
             18.731137    0.03349459952309
             2.8253937    0.23472694665786
             0.6401217    0.81375731841339
 s    1 1.00
             0.1612778                   1

3 0
 s    6 1.00
             3047.5249  0.0018347001629433
             457.36951    0.01403730124668
             103.94869   0.068842606114048
             29.210155    0.23218442062076
              9.286663    0.46794134155879
              3.163927    0.36231203217765
 s    3 1.00
             7.8682724   -0.11933240861517
             1.8812885   -0.16085421161283
             0.5442493     1.1434564825515
 s    1 1.00
             0.1687144                   1
 p    3 1.00
             7.8682724   0.068999095584993
             1.8812885    0.31642397975315
             0.5442493    0.74430825237435
 p    1 1.00
             0.1687144                   1
 d    1 1.00
                   0.8                   1

4 0
 s    3 1.00
             18.731137    0.03349459952309
             2.8253937    0.23472694665786
             0.6401217    0.81375731841339
 s    1 1.00
             0.1612778                   1

5 0
 s    6 1.00
             3047.5249  0.0018347001629433
             457.36951    0.01403730124668
             103.94869   0.068842606114048
             29.210155    0.23218442062076
              9.286663    0.46794134155879
              3.163927    0.36231203217765
 s    3 1.00
             7.8682724   -0.11933240861517
             1.8812885   -0.16085421161283
             0.5442493     1.1434564825515
 s    1 1.00
             0.1687144                   1
 p    3 1.00
             7.8682724   0.068999095584993
             1.8812885    0.31642397975315
             0.5442493    0.74430825237435
 p    1 1.00
             0.1687144                   1
 d    1 1.00
                   0.8                   1

6 0
 s    3 1.00
             18.731137    0.03349459952309
             2.8253937    0.23472694665786
             0.6401217    0.81375731841339
 s    1 1.00
             0.1612778                   1

7 0
 s    6 1.00
             3047.5249  0.0018347001629433
             457.36951    0.01403730124668
             103.94869   0.068842606114048
             29.210155    0.23218442062076
              9.286663    0.46794134155879
              3.163927    0.36231203217765
 s    3 1.00
             7.8682724   -0.11933240861517
             1.8812885   -0.16085421161283
             0.5442493     1.1434564825515
 s    1 1.00
             0.1687144                   1
 p    3 1.00
             7.8682724   0.068999095584993
             1.8812885    0.31642397975315
             0.5442493    0.74430825237435
 p    1 1.00
             0.1687144                   1
 d    1 1.00
                   0.8                   1

8 0
 s    3 1.00
             18.731137    0.03349459952309
             2.8253937    0.23472694665786
             0.6401217    0.81375731841339
 s    1 1.00
             0.1612778                   1

9 0
 s    3 1.00
             18.731137    0.03349459952309
             2.8253937    0.23472694665786
             0.6401217    0.81375731841339
 s    1 1.00
             0.1612778                   1

10 0
 s    6 1.00
             3047.5249  0.0018347001629433
             457.36951    0.01403730124668
             103.94869   0.068842606114048
             29.210155    0.23218442062076
              9.286663    0.46794134155879
              3.163927    0.36231203217765
 s    3 1.00
             7.8682724   -0.11933240861517
             1.8812885   -0.16085421161283
             0.5442493     1.1434564825515
 s    1 1.00
             0.1687144                   1
 p    3 1.00
             7.8682724   0.068999095584993
             1.8812885    0.31642397975315
             0.5442493    0.74430825237435
 p    1 1.00
             0.1687144                   1
 d    1 1.00
                   0.8                   1

11 0
 s    3 1.00
             18.731137    0.03349459952309
             2.8253937    0.23472694665786
             0.6401217    0.81375731841339
 s    1 1.00
             0.1612778                   1

12 0
 s    6 1.00
             3047.5249  0.0018347001629433
             457.36951    0.01403730124668
             103.94869   0.068842606114048
             29.210155    0.23218442062076
              9.286663    0.46794134155879
              3.163927    0.36231203217765
 s    3 1.00
             7.8682724   -0.11933240861517
             1.8812885   -0.16085421161283
             0.5442493     1.1434564825515
 s    1 1.00
             0.1687144                   1
 p    3 1.00
             7.8682724   0.068999095584993
             1.8812885    0.31642397975315
             0.5442493    0.74430825237435
 p    1 1.00
             0.1687144                   1
 d    1 1.00
                   0.8                   1

13 0
 s    3 1.00
             18.731137    0.03349459952309
             2.8253937    0.23472694665786
             0.6401217    0.81375731841339
 s    1 1.00
             0.1612778                   1

14 0
 s    3 1.00
             18.731137    0.03349459952309
             2.8253937    0.23472694665786
             0.6401217    0.81375731841339
 s    1 1.00
             0.1612778                   1

15 0
 s    6 1.00
             3047.5249  0.0018347001629433
             457.36951    0.01403730124668
             103.94869   0.068842606114048
             29.210155    0.23218442062076
              9.286663    0.46794134155879
              3.163927    0.36231203217765
 s    3 1.00
             7.8682724   -0.11933240861517
             1.8812885   -0.16085421161283
             0.5442493     1.1434564825515
 s    1 1.00
             0.1687144                   1
 p    3 1.00
             7.8682724   0.068999095584993
             1.8812885    0.31642397975315
             0.5442493    0.74430825237435
 p    1 1.00
             0.1687144                   1
 d    1 1.00
                   0.8                   1

16 0
 s    6 1.00
             3047.5249  0.0018347001629433
             457.36951    0.01403730124668
             103.94869   0.068842606114048
             29.210155    0.23218442062076
              9.286663    0.46794134155879
              3.163927    0.36231203217765
 s    3 1.00
             7.8682724   -0.11933240861517
             1.8812885   -0.16085421161283
             0.5442493     1.1434564825515
 s    1 1.00
             0.1687144                   1
 p    3 1.00
             7.8682724   0.068999095584993
             1.8812885    0.31642397975315
             0.5442493    0.74430825237435
 p    1 1.00
             0.1687144                   1
 d    1 1.00
                   0.8                   1

17 0
 s    6 1.00
             3047.5249  0.0018347001629433
             457.36951    0.01403730124668
             103.94869   0.068842606114048
             29.210155    0.23218442062076
              9.286663    0.46794134155879
              3.163927    0.36231203217765
 s    3 1.00
             7.8682724   -0.11933240861517
             1.8812885   -0.16085421161283
             0.5442493     1.1434564825515
 s    1 1.00
             0.1687144                   1
 p    3 1.00
             7.8682724   0.068999095584993
             1.8812885    0.31642397975315
             0.5442493    0.74430825237435
 p    1 1.00
             0.1687144                   1
 d    1 1.00
                   0.8                   1

18 0
 s    6 1.00
             3047.5249  0.0018347001629433
             457.36951    0.01403730124668
             103.94869   0.068842606114048
             29.210155    0.23218442062076
              9.286663    0.46794134155879
              3.163927    0.36231203217765
 s    3 1.00
             7.8682724   -0.11933240861517
             1.8812885   -0.16085421161283
             0.5442493     1.1434564825515
 s    1 1.00
             0.1687144                   1
 p    3 1.00
             7.8682724   0.068999095584993
             1.8812885    0.31642397975315
             0.5442493    0.74430825237435
 p    1 1.00
             0.1687144                   1
 d    1 1.00
                   0.8                   1

19 0
 s    6 1.00
             3047.5249  0.0018347001629433
             457.36951    0.01403730124668
             103.94869   0.068842606114048
             29.210155    0.23218442062076
              9.286663    0.46794134155879
              3.163927    0.36231203217765
 s    3 1.00
             7.8682724   -0.11933240861517
             1.8812885   -0.16085421161283
             0.5442493     1.1434564825515
 s    1 1.00
             0.1687144                   1
 p    3 1.00
             7.8682724   0.068999095584993
             1.8812885    0.31642397975315
             0.5442493    0.74430825237435
 p    1 1.00
             0.1687144                   1
 d    1 1.00
                   0.8                   1

20 0
 s    6 1.00
             3047.5249  0.0018347001629433
             457.36951    0.01403730124668
             103.94869   0.068842606114048
             29.210155    0.23218442062076
              9.286663    0.46794134155879
              3.163927    0.36231203217765
 s    3 1.00
             7.8682724   -0.11933240861517
             1.8812885   -0.16085421161283
             0.5442493     1.1434564825515
 s    1 1.00
             0.1687144                   1
 p    3 1.00
             7.8682724   0.068999095584993
             1.8812885    0.31642397975315
             0.5442493    0.74430825237435
 p    1 1.00
             0.1687144                   1
 d    1 1.00
                   0.8                   1

21 0
 s    6 1.00
             3047.5249  0.0018347001629433
             457.36951    0.01403730124668
             103.94869   0.068842606114048
             29.210155    0.23218442062076
              9.286663    0.46794134155879
              3.163927    0.36231203217765
 s    3 1.00
             7.8682724   -0.11933240861517
             1.8812885   -0.16085421161283
             0.5442493     1.1434564825515
 s    1 1.00
             0.1687144                   1
 p    3 1.00
             7.8682724   0.068999095584993
             1.8812885    0.31642397975315
             0.5442493    0.74430825237435
 p    1 1.00
             0.1687144                   1
 d    1 1.00
                   0.8                   1

22 0
 s    3 1.00
             18.731137    0.03349459952309
             2.8253937    0.23472694665786
             0.6401217    0.81375731841339
 s    1 1.00
             0.1612778                   1

23 0
 s    3 1.00
             18.731137    0.03349459952309
             2.8253937    0.23472694665786
             0.6401217    0.81375731841339
 s    1 1.00
             0.1612778                   1

24 0
 s    3 1.00
             18.731137    0.03349459952309
             2.8253937    0.23472694665786
             0.6401217    0.81375731841339
 s    1 1.00
             0.1612778                   1

25 0
 s    3 1.00
             18.731137    0.03349459952309
             2.8253937    0.23472694665786
             0.6401217    0.81375731841339
 s    1 1.00
             0.1612778                   1

26 0
 s    3 1.00
             18.731137    0.03349459952309
             2.8253937    0.23472694665786
             0.6401217    0.81375731841339
 s    1 1.00
             0.1612778                   1

27 0
 s    3 1.00
             18.731137    0.03349459952309
             2.8253937    0.23472694665786
             0.6401217    0.81375731841339
 s    1 1.00
             0.1612778                   1

28 0
 s    3 1.00
             18.731137    0.03349459952309
             2.8253937    0.23472694665786
             0.6401217    0.81375731841339
 s    1 1.00
             0.1612778                   1

29 0
 s    3 1.00
             18.731137    0.03349459952309
             2.8253937    0.23472694665786
             0.6401217    0.81375731841339
 s    1 1.00
             0.1612778                   1

30 0
 s    3 1.00
             18.731137    0.03349459952309
             2.8253937    0.23472694665786
             0.6401217    0.81375731841339
 s    1 1.00
             0.1612778                   1

31 0
 s    3 1.00
             18.731137    0.03349459952309
             2.8253937    0.23472694665786
             0.6401217    0.81375731841339
 s    1 1.00
             0.1612778                   1

32 0
 s    3 1.00
             18.731137    0.03349459952309
             2.8253937    0.23472694665786
             0.6401217    0.81375731841339
 s    1 1.00
             0.1612778                   1

33 0
 s    6 1.00
             3047.5249  0.0018347001629433
             457.36951    0.01403730124668
             103.94869   0.068842606114048
             29.210155    0.23218442062076
              9.286663    0.46794134155879
              3.163927    0.36231203217765
 s    3 1.00
             7.8682724   -0.11933240861517
             1.8812885   -0.16085421161283
             0.5442493     1.1434564825515
 s    1 1.00
             0.1687144                   1
 p    3 1.00
             7.8682724   0.068999095584993
             1.8812885    0.31642397975315
             0.5442493    0.74430825237435
 p    1 1.00
             0.1687144                   1
 d    1 1.00
                   0.8                   1

34 0
 s    6 1.00
             3047.5249  0.0018347001629433
             457.36951    0.01403730124668
             103.94869   0.068842606114048
             29.210155    0.23218442062076
              9.286663    0.46794134155879
              3.163927    0.36231203217765
 s    3 1.00
             7.8682724   -0.11933240861517
             1.8812885   -0.16085421161283
             0.5442493     1.1434564825515
 s    1 1.00
             0.1687144                   1
 p    3 1.00
             7.8682724   0.068999095584993
             1.8812885    0.31642397975315
             0.5442493    0.74430825237435
 p    1 1.00
             0.1687144                   1
 d    1 1.00
                   0.8                   1

35 0
 s    3 1.00
             18.731137    0.03349459952309
             2.8253937    0.23472694665786
             0.6401217    0.81375731841339
 s    1 1.00
             0.1612778                   1

36 0
 s    6 1.00
             3047.5249  0.0018347001629433
             457.36951    0.01403730124668
             103.94869   0.068842606114048
             29.210155    0.23218442062076
              9.286663    0.46794134155879
              3.163927    0.36231203217765
 s    3 1.00
             7.8682724   -0.11933240861517
             1.8812885   -0.16085421161283
             0.5442493     1.1434564825515
 s    1 1.00
             0.1687144                   1
 p    3 1.00
             7.8682724   0.068999095584993
             1.8812885    0.31642397975315
             0.5442493    0.74430825237435
 p    1 1.00
             0.1687144                   1
 d    1 1.00
                   0.8                   1

37 0
 s    3 1.00
             18.731137    0.03349459952309
             2.8253937    0.23472694665786
             0.6401217    0.81375731841339
 s    1 1.00
             0.1612778                   1

38 0
 s    3 1.00
             18.731137    0.03349459952309
             2.8253937    0.23472694665786
             0.6401217    0.81375731841339
 s    1 1.00
             0.1612778                   1

39 0
 s    6 1.00
             3047.5249  0.0018347001629433
             457.36951    0.01403730124668
             103.94869   0.068842606114048
             29.210155    0.23218442062076
              9.286663    0.46794134155879
              3.163927    0.36231203217765
 s    3 1.00
             7.8682724   -0.11933240861517
             1.8812885   -0.16085421161283
             0.5442493     1.1434564825515
 s    1 1.00
             0.1687144                   1
 p    3 1.00
             7.8682724   0.068999095584993
             1.8812885    0.31642397975315
             0.5442493    0.74430825237435
 p    1 1.00
             0.1687144                   1
 d    1 1.00
                   0.8                   1

40 0
 s    6 1.00
             3047.5249  0.0018347001629433
             457.36951    0.01403730124668
             103.94869   0.068842606114048
             29.210155    0.23218442062076
              9.286663    0.46794134155879
              3.163927    0.36231203217765
 s    3 1.00
             7.8682724   -0.11933240861517
             1.8812885   -0.16085421161283
             0.5442493     1.1434564825515
 s    1 1.00
             0.1687144                   1
 p    3 1.00
             7.8682724   0.068999095584993
             1.8812885    0.31642397975315
             0.5442493    0.74430825237435
 p    1 1.00
             0.1687144                   1
 d    1 1.00
                   0.8                   1

41 0
 s    3 1.00
             18.731137    0.03349459952309
             2.8253937    0.23472694665786
             0.6401217    0.81375731841339
 s    1 1.00
             0.1612778                   1

42 0
 s    6 1.00
             5484.6717   0.001831099805527
             825.23495   0.013950098518422
             188.04696    0.06844509273075
               52.9645    0.23271427528445
              16.89757    0.47019295006289
             5.7996353    0.35852086192309
 s    3 1.00
             15.539616   -0.11077750382508
             3.5999336   -0.14802630511126
             1.0137618     1.1307670390447
 s    1 1.00
             0.2700058                   1
 p    3 1.00
             15.539616   0.070874299543311
             3.5999336    0.33975279781076
             1.0137618    0.72715859531445
 p    1 1.00
             0.2700058                   1
 d    1 1.00
                   0.8                   1

43 0
 s    3 1.00
             18.731137    0.03349459952309
             2.8253937    0.23472694665786
             0.6401217    0.81375731841339
 s    1 1.00
             0.1612778                   1

[5d]
[7f]
[9g]

[MO]
 Sym= A
 Ene=               0
 Spin= Alpha
 Occup=    1.00000
   1     0.018280608024507
   2    -0.00083976882066289
   3     0.007104825899445
   4    0.00042872580856847
   5    -0.0001925509330709
   6    0.0010733574460155
   7    0.00038583385793437
   8    0.0011808286816894
   9    -0.0039219406065703
  10    -0.00092100298617515
  11    -0.00093506998094799
  12    0.00011059395860634
  13    -0.00022170942217819
  14    6.1249218838242e-05
  15    -0.00035475590876634
  16    -0.00086856327513746
  17      0.99457860412505
  18     0.036303997883818
  19    -0.027356801633851
  20    0.00084442151374013
  21    0.00021407520399935
  22    -0.00027360248963496
  23    -0.0032000368530715
  24    -0.00095361712047242
  25    -0.00049171339445878
  26    0.00074188109329984
  27    -0.00026644011593084
  28    -0.00035326118655527
  29    0.00023747814604088
  30    0.00024210735455615
  31    -0.0011537298179663
  32    0.0037789969231149
  33     0.027453193306629
  34    -0.00039732488210228
  35    0.0042343108783837
  36    0.00081645531802629
  37    0.00038521479226714
  38    -0.0011973060061598
  39    -0.0025591695511661
  40    0.00086976986912681
  41    0.0025983501499821
  42    -0.00052655387079914
  43    0.0010405678479574
  44    0.00056557035980647
  45    -0.00038503656441174
  46    -0.00041040577141802
  47    -0.00043275748295835
  48    -0.00014929659095756
  49    0.0020934604189663
  50    -0.00027918163282199
  51    -0.0013792920777423
  52    0.00033177593654601
  53    0.00013470845696022
  54    -0.0002191564021031
  55    -0.0040127000458338
  56    -0.00090875685708765
  57    0.0035916669859183
  58    -0.0001108639529616
  59    0.00010941042846736
  60    -5.2495206311952e-05
  61    3.455715809489e-05
  62    -0.00020140760152647
  63    -0.00036511921419004
  64    -7.6435073875073e-05
  65    -3.4609596243693e-06
  66    -6.8036601795787e-06
  67    1.089069082289e-06
  68    -7.6739505956121e-07
  69    -3.5894338023193e-06
  70    6.7174704499339e-07
  71    -4.1552096248296e-06
  72    5.0352106391684e-07
  73    7.6213063880033e-06
  74    2.3178807649715e-05
  75    8.6418944130718e-06
  76    -6.5531326330587e-07
  77    -2.1793406467238e-07
  78    1.9682003682276e-07
  79    2.3561578115723e-07
  80    4.4297232321246e-08
  81    3.0392920013463e-06
  82    1.4622692138741e-05
  83    1.4781839873194e-06
  84    -4.4136268459245e-06
  85    -5.5664012823722e-05
  86    8.3329947156315e-06
  87    2.2875039972867e-06
  88    1.3941980214973e-05
  89    1.3515432060785e-05
  90    -4.60893424113e-05
  91    2.0041723051843e-05
  92    1.0583227585883e-06
  93    -9.9112247595603e-07
  94    2.6308305796632e-06
  95    6.0658622782815e-08
  96    -5.8653891998366e-07
  97    9.5149591119804e-06
  98    1.934114128525e-05
  99    -1.9744230477849e-06
 100    -1.5107948240514e-05
 101    -1.6428697483369e-06
 102    -6.7291349115824e-07
 103    3.9693852633128e-05
 104    -1.3514718845248e-05
 105    -1.8919828045482e-05
 106    -1.7776303565359e-06
 107    -0.00011386748977987
 108    0.00010053760223297
 109    0.00014177855117771
 110    -7.6200377656758e-06
 111    -3.4814142565075e-06
 112    1.295846662426e-06
 113    6.0230599523705e-07
 114    -2.7367652252678e-06
 115    -5.5099648263653e-06
 116    -2.6680391978683e-05
 117    0.00020681600201234
 118    -3.616802647046e-06
 119    3.5582587326065e-06
 120    1.1204886950752e-05
 121    -5.9003638065338e-05
 122    4.6615203106674e-05
 123    2.0429438640895e-05
 124    1.1424561608705e-07
 125    -2.9646382466226e-06
 126    -1.3062850685986e-06
 127    2.1862280533472e-06
 128    -1.6878502353976e-06
 129    8.9144139513083e-06
 130    -6.4099245378873e-05
 131    -2.426785523828e-06
 132    1.2855401312871e-05
 133    -6.1918169888699e-07
 134    9.826151004657e-05
 135    -0.00011040698460939
 136    -2.1999217998083e-05
 137    -0.00024550326138039
 138    5.9696521502837e-06
 139    6.1966171865269e-06
 140    5.5280171711915e-07
 141    3.5888757805092e-06
 142    3.5425065673964e-06
 143    -1.0652624719033e-05
 144    -1.0124597607064e-05
 145    0.00014919689240691
 146    2.0165178959693e-05
 147    -1.0332198796487e-05
 148    -2.4957154528924e-05
 149    5.7024403829842e-05
 150    -3.8218745555428e-05
 151    -7.3115815809869e-05
 152    -5.5162665926818e-06
 153    -5.5496976781476e-06
 154    -7.8113243066594e-07
 155    3.6505136746518e-06
 156    -3.8340534336605e-06
 157    1.3240237262186e-07
 158    9.8492606142546e-06
 159    -1.3892487411322e-05
 160    5.0028101703218e-06
 161    -3.0294158900353e-06
 162    1.1033559630056e-06
 163    -3.5822266992906e-05
 164    1.4538373706326e-05
 165    1.4623996314045e-05
 166    2.4340575804354e-06
 167    -1.7493149297371e-06
 168    4.2531843185308e-08
 169    6.6547804617196e-07
 170    3.3237762680665e-07
 171    -1.7356590028913e-06
 172    -1.2550240755643e-05
 173    3.0206880518977e-05
 174    -1.9722916202472e-06
 175    1.8333313975547e-06
 176    7.9404898142204e-06
 177    -1.5164712907768e-05
 178    -4.6028087435768e-06
 179    -3.2651324858974e-05
 180    1.1751225381442e-06
 181    2.1576141372394e-06
 182    7.1182799601021e-07
 183    -5.268067282927e-07
 184    4.7191480303793e-07
 185    1.6064825220122e-06
 186    -2.2207806069426e-05
 187    1.0760541521479e-05
 188    4.5975450572085e-06
 189    3.8274613118289e-06
 190    2.1376491061735e-05
 191    -1.8265471876533e-06
 192    3.4410651677214e-07
 193    -2.1740910114219e-05
 194    1.9178875570318e-06
 195    -2.4411085002816e-07
 196    1.8609312023713e-06
 197    7.2273323605785e-08
 198    1.9188314020737e-07
 199    -3.4563053927103e-06
 200    2.5247763293852e-06
 201    4.3778069722849e-06
 202    2.5938089150386e-05
 203    -8.4716718264287e-06
 204    1.0296075221764e-05
 205    2.1372600633262e-07
 206    -2.0618845275916e-05
 207    1.9139024442149e-06
 208    -4.568046083358e-05
 209    4.7639985476774e-06
 210    -2.4304238647885e-05
 211    3.9780119052151e-06
 212    8.6703764330126e-06
 213    1.9371020172463e-06
 214    -1.0817966928671e-05
 215    -2.6819651359434e-06
 216    -5.7791896557673e-05
 217    2.7870789906558e-06
 218    1.4669370775749e-05
 219    -1.5473395839707e-06
 220    -2.5866523433312e-07
 221    -8.4010468848405e-05
 222    0.00010483229569047
 223    0.00074508028000694
 224    9.6041760588439e-05
 225    5.1512622227247e-05
 226    -0.0002171161623639
 227    0.0005705839776558
 228    0.00023804193822673
 229    -0.00055185979980558
 230    -3.6058319032507e-06
 231    -3.286084601309e-05
 232    -1.0310632838759e-05
 233    1.9525339576845e-05
 234     1.70481522934e-05
 235    0.00013732807360163
 236    -0.00033924166664366
 237    0.00013408153963648
 238    -0.00019914658921982
 239    -0.00016574556776523
 240    0.00052959853022134
 241    2.8155500497624e-05
 242    0.00027231111264349
 243    -0.0012484735654928
 244    1.4558804417664e-05
 245    4.5476565702237e-05
 246    -2.124003240693e-06
 247    1.080745122218e-05
 248    -8.8933045352862e-06
 249    -1.1464369742635e-06
 250    0.00028537809736923
 251    -0.00033019332785752
 252    -0.00035022450454548
 253    0.00059555459365696
 254    -0.0004845020070145
 255    -8.3807115127923e-05
 256    -0.00017066091250008
 257    -0.00076911484968723
 258    -6.9764170281857e-05
 259    -0.0015461813068128
 260    -9.7159556763769e-05
 261    -9.2078865556716e-06
 262    1.3579777647765e-05
 263    0.00013924736333941
 264    6.0782067418366e-05
 265    -0.00024115582419713
 266    0.0001075868272045
 267    0.00020103576402537
 268    -0.00032424304396747
 269    -5.055031014148e-06
 270    -0.00035851003451734
 271    0.0049106949047863
 272    7.0856215633413e-05
 273    -0.00015831227925143
 274    9.5306225395626e-05
 275    -0.00076153593298413
 276    -0.0012602273197829
 277     0.002655061224754
 278    9.6577144111771e-05
 279    -0.0001077035408148
 280    -7.221232553141e-05