[Molden Format]
made by pyscf v[2.0.1]
[Atoms] (AU)
C   1   6     0.69100024066471     0.64692934207205    -3.48223131169301
H   2   1     2.68052439830868     1.13355088658700    -3.25784032593313
C   3   6    -0.36286361513219     0.85440132524594    -5.97030179418974
H   4   1    -2.35448549047279     0.36322488579172    -6.17995817793143
C   5   6     0.93697958957450     1.61209284601821    -8.05828437677121
H   6   1     1.52220939200985     3.58023657898303    -8.21595213017833
C   7   6     1.59282573286669    -0.05175011382745   -10.09734693546315
H   8   1     0.99474836942587    -2.01839690080961    -9.91207388765078
H   9   1     1.55630230933075    -1.92953025305990    12.99630010416247
C   10   6     0.75233899775814    -2.21270439606481    11.10705728102219
H   11   1    -0.43433408177274    -3.90944857546550    11.22216085340412
C   12   6     2.86362581178706    -2.63237380607947     9.17926416456045
H   13   1     4.39038949912609    -1.24955421540245     9.49899813497433
H   14   1     3.74629220191363    -4.48798724300892     9.47414880959024
C   15   6     2.02478325613682    -2.42177285709634     6.44560829588644
C   16   6     3.88048732735477    -3.58795445234514     4.61402886975252
C   17   6    -0.18412382258602    -1.30464291234259     5.76021113872346
C   18   6    -2.10044360464350    -0.26837831858460     7.71610340967100
C   19   6    -3.08956938670431     2.35282328359417     6.88693925039594
C   20   6    -4.37372924086464    -2.09766595989678     7.93610724222001
C   21   6    -0.83850430601230     0.06372213486173    10.33002307638377
H   22   1     0.38411922151109     1.74281358582432    10.27380136542181
H   23   1    -2.30980003007874     0.45460143924521    11.73986301809809
H   24   1     4.58527064644668    -5.38706904487420     5.36778158031719
H   25   1     5.54944938085014    -2.37631462192748     4.35398898413318
H   26   1     3.06633019150423    -3.94118377050688     2.75255466040884
H   27   1    -4.17727778763735     2.26573369139522     5.12914900961283
H   28   1    -1.52662344944051     3.68001877445626     6.59540397144508
H   29   1    -4.32916174397830     3.13643051467482     8.35225460090378
H   30   1    -5.32329548508442    -2.36691813602939     6.11583672749896
H   31   1    -5.77989366602257    -1.33896741843465     9.25748940450990
H   32   1    -3.79310905208926    -3.96389819310853     8.61386170102686
C   33   6    -1.01100794811226    -1.06331657314144     3.11929490449947
C   34   6     0.37686231036534    -0.33275864505552     1.09165013605873
H   35   1    -3.01671213906703    -1.40297922279997     2.77827895090944
C   36   6    -0.64382707979370    -0.11591880174385    -1.42063131251064
H   37   1     2.35569259782137     0.17174499283897     1.33641070251401
H   38   1    -2.63317482980319    -0.60229203511219    -1.66119700387645
C   39   6     2.88089126504443     0.61821658123040   -12.21129238571255
C   40   6     3.45664863859100    -1.22033421200677   -14.18493293343049
H   41   1     3.53070761900678     2.54536442784122   -12.51396089296279
O   42   8     4.60321296142939    -0.74877588551315   -16.13014426558594
H   43   1     2.75622344406002    -3.16930929543288   -13.79624335354022
[GTO]
1 0
 s    6 1.00
             3047.5249  0.0018347001629433
             457.36951    0.01403730124668
             103.94869   0.068842606114048
             29.210155    0.23218442062076
              9.286663    0.46794134155879
              3.163927    0.36231203217765
 s    3 1.00
             7.8682724   -0.11933240861517
             1.8812885   -0.16085421161283
             0.5442493     1.1434564825515
 s    1 1.00
             0.1687144                   1
 p    3 1.00
             7.8682724   0.068999095584993
             1.8812885    0.31642397975315
             0.5442493    0.74430825237435
 p    1 1.00
             0.1687144                   1
 d    1 1.00
                   0.8                   1

2 0
 s    3 1.00
             18.731137    0.03349459952309
             2.8253937    0.23472694665786
             0.6401217    0.81375731841339
 s    1 1.00
             0.1612778                   1

3 0
 s    6 1.00
             3047.5249  0.0018347001629433
             457.36951    0.01403730124668
             103.94869   0.068842606114048
             29.210155    0.23218442062076
              9.286663    0.46794134155879
              3.163927    0.36231203217765
 s    3 1.00
             7.8682724   -0.11933240861517
             1.8812885   -0.16085421161283
             0.5442493     1.1434564825515
 s    1 1.00
             0.1687144                   1
 p    3 1.00
             7.8682724   0.068999095584993
             1.8812885    0.31642397975315
             0.5442493    0.74430825237435
 p    1 1.00
             0.1687144                   1
 d    1 1.00
                   0.8                   1

4 0
 s    3 1.00
             18.731137    0.03349459952309
             2.8253937    0.23472694665786
             0.6401217    0.81375731841339
 s    1 1.00
             0.1612778                   1

5 0
 s    6 1.00
             3047.5249  0.0018347001629433
             457.36951    0.01403730124668
             103.94869   0.068842606114048
             29.210155    0.23218442062076
              9.286663    0.46794134155879
              3.163927    0.36231203217765
 s    3 1.00
             7.8682724   -0.11933240861517
             1.8812885   -0.16085421161283
             0.5442493     1.1434564825515
 s    1 1.00
             0.1687144                   1
 p    3 1.00
             7.8682724   0.068999095584993
             1.8812885    0.31642397975315
             0.5442493    0.74430825237435
 p    1 1.00
             0.1687144                   1
 d    1 1.00
                   0.8                   1

6 0
 s    3 1.00
             18.731137    0.03349459952309
             2.8253937    0.23472694665786
             0.6401217    0.81375731841339
 s    1 1.00
             0.1612778                   1

7 0
 s    6 1.00
             3047.5249  0.0018347001629433
             457.36951    0.01403730124668
             103.94869   0.068842606114048
             29.210155    0.23218442062076
              9.286663    0.46794134155879
              3.163927    0.36231203217765
 s    3 1.00
             7.8682724   -0.11933240861517
             1.8812885   -0.16085421161283
             0.5442493     1.1434564825515
 s    1 1.00
             0.1687144                   1
 p    3 1.00
             7.8682724   0.068999095584993
             1.8812885    0.31642397975315
             0.5442493    0.74430825237435
 p    1 1.00
             0.1687144                   1
 d    1 1.00
                   0.8                   1

8 0
 s    3 1.00
             18.731137    0.03349459952309
             2.8253937    0.23472694665786
             0.6401217    0.81375731841339
 s    1 1.00
             0.1612778                   1

9 0
 s    3 1.00
             18.731137    0.03349459952309
             2.8253937    0.23472694665786
             0.6401217    0.81375731841339
 s    1 1.00
             0.1612778                   1

10 0
 s    6 1.00
             3047.5249  0.0018347001629433
             457.36951    0.01403730124668
             103.94869   0.068842606114048
             29.210155    0.23218442062076
              9.286663    0.46794134155879
              3.163927    0.36231203217765
 s    3 1.00
             7.8682724   -0.11933240861517
             1.8812885   -0.16085421161283
             0.5442493     1.1434564825515
 s    1 1.00
             0.1687144                   1
 p    3 1.00
             7.8682724   0.068999095584993
             1.8812885    0.31642397975315
             0.5442493    0.74430825237435
 p    1 1.00
             0.1687144                   1
 d    1 1.00
                   0.8                   1

11 0
 s    3 1.00
             18.731137    0.03349459952309
             2.8253937    0.23472694665786
             0.6401217    0.81375731841339
 s    1 1.00
             0.1612778                   1

12 0
 s    6 1.00
             3047.5249  0.0018347001629433
             457.36951    0.01403730124668
             103.94869   0.068842606114048
             29.210155    0.23218442062076
              9.286663    0.46794134155879
              3.163927    0.36231203217765
 s    3 1.00
             7.8682724   -0.11933240861517
             1.8812885   -0.16085421161283
             0.5442493     1.1434564825515
 s    1 1.00
             0.1687144                   1
 p    3 1.00
             7.8682724   0.068999095584993
             1.8812885    0.31642397975315
             0.5442493    0.74430825237435
 p    1 1.00
             0.1687144                   1
 d    1 1.00
                   0.8                   1

13 0
 s    3 1.00
             18.731137    0.03349459952309
             2.8253937    0.23472694665786
             0.6401217    0.81375731841339
 s    1 1.00
             0.1612778                   1

14 0
 s    3 1.00
             18.731137    0.03349459952309
             2.8253937    0.23472694665786
             0.6401217    0.81375731841339
 s    1 1.00
             0.1612778                   1

15 0
 s    6 1.00
             3047.5249  0.0018347001629433
             457.36951    0.01403730124668
             103.94869   0.068842606114048
             29.210155    0.23218442062076
              9.286663    0.46794134155879
              3.163927    0.36231203217765
 s    3 1.00
             7.8682724   -0.11933240861517
             1.8812885   -0.16085421161283
             0.5442493     1.1434564825515
 s    1 1.00
             0.1687144                   1
 p    3 1.00
             7.8682724   0.068999095584993
             1.8812885    0.31642397975315
             0.5442493    0.74430825237435
 p    1 1.00
             0.1687144                   1
 d    1 1.00
                   0.8                   1

16 0
 s    6 1.00
             3047.5249  0.0018347001629433
             457.36951    0.01403730124668
             103.94869   0.068842606114048
             29.210155    0.23218442062076
              9.286663    0.46794134155879
              3.163927    0.36231203217765
 s    3 1.00
             7.8682724   -0.11933240861517
             1.8812885   -0.16085421161283
             0.5442493     1.1434564825515
 s    1 1.00
             0.1687144                   1
 p    3 1.00
             7.8682724   0.068999095584993
             1.8812885    0.31642397975315
             0.5442493    0.74430825237435
 p    1 1.00
             0.1687144                   1
 d    1 1.00
                   0.8                   1

17 0
 s    6 1.00
             3047.5249  0.0018347001629433
             457.36951    0.01403730124668
             103.94869   0.068842606114048
             29.210155    0.23218442062076
              9.286663    0.46794134155879
              3.163927    0.36231203217765
 s    3 1.00
             7.8682724   -0.11933240861517
             1.8812885   -0.16085421161283
             0.5442493     1.1434564825515
 s    1 1.00
             0.1687144                   1
 p    3 1.00
             7.8682724   0.068999095584993
             1.8812885    0.31642397975315
             0.5442493    0.74430825237435
 p    1 1.00
             0.1687144                   1
 d    1 1.00
                   0.8                   1

18 0
 s    6 1.00
             3047.5249  0.0018347001629433
             457.36951    0.01403730124668
             103.94869   0.068842606114048
             29.210155    0.23218442062076
              9.286663    0.46794134155879
              3.163927    0.36231203217765
 s    3 1.00
             7.8682724   -0.11933240861517
             1.8812885   -0.16085421161283
             0.5442493     1.1434564825515
 s    1 1.00
             0.1687144                   1
 p    3 1.00
             7.8682724   0.068999095584993
             1.8812885    0.31642397975315
             0.5442493    0.74430825237435
 p    1 1.00
             0.1687144                   1
 d    1 1.00
                   0.8                   1

19 0
 s    6 1.00
             3047.5249  0.0018347001629433
             457.36951    0.01403730124668
             103.94869   0.068842606114048
             29.210155    0.23218442062076
              9.286663    0.46794134155879
              3.163927    0.36231203217765
 s    3 1.00
             7.8682724   -0.11933240861517
             1.8812885   -0.16085421161283
             0.5442493     1.1434564825515
 s    1 1.00
             0.1687144                   1
 p    3 1.00
             7.8682724   0.068999095584993
             1.8812885    0.31642397975315
             0.5442493    0.74430825237435
 p    1 1.00
             0.1687144                   1
 d    1 1.00
                   0.8                   1

20 0
 s    6 1.00
             3047.5249  0.0018347001629433
             457.36951    0.01403730124668
             103.94869   0.068842606114048
             29.210155    0.23218442062076
              9.286663    0.46794134155879
              3.163927    0.36231203217765
 s    3 1.00
             7.8682724   -0.11933240861517
             1.8812885   -0.16085421161283
             0.5442493     1.1434564825515
 s    1 1.00
             0.1687144                   1
 p    3 1.00
             7.8682724   0.068999095584993
             1.8812885    0.31642397975315
             0.5442493    0.74430825237435
 p    1 1.00
             0.1687144                   1
 d    1 1.00
                   0.8                   1

21 0
 s    6 1.00
             3047.5249  0.0018347001629433
             457.36951    0.01403730124668
             103.94869   0.068842606114048
             29.210155    0.23218442062076
              9.286663    0.46794134155879
              3.163927    0.36231203217765
 s    3 1.00
             7.8682724   -0.11933240861517
             1.8812885   -0.16085421161283
             0.5442493     1.1434564825515
 s    1 1.00
             0.1687144                   1
 p    3 1.00
             7.8682724   0.068999095584993
             1.8812885    0.31642397975315
             0.5442493    0.74430825237435
 p    1 1.00
             0.1687144                   1
 d    1 1.00
                   0.8                   1

22 0
 s    3 1.00
             18.731137    0.03349459952309
             2.8253937    0.23472694665786
             0.6401217    0.81375731841339
 s    1 1.00
             0.1612778                   1

23 0
 s    3 1.00
             18.731137    0.03349459952309
             2.8253937    0.23472694665786
             0.6401217    0.81375731841339
 s    1 1.00
             0.1612778                   1

24 0
 s    3 1.00
             18.731137    0.03349459952309
             2.8253937    0.23472694665786
             0.6401217    0.81375731841339
 s    1 1.00
             0.1612778                   1

25 0
 s    3 1.00
             18.731137    0.03349459952309
             2.8253937    0.23472694665786
             0.6401217    0.81375731841339
 s    1 1.00
             0.1612778                   1

26 0
 s    3 1.00
             18.731137    0.03349459952309
             2.8253937    0.23472694665786
             0.6401217    0.81375731841339
 s    1 1.00
             0.1612778                   1

27 0
 s    3 1.00
             18.731137    0.03349459952309
             2.8253937    0.23472694665786
             0.6401217    0.81375731841339
 s    1 1.00
             0.1612778                   1

28 0
 s    3 1.00
             18.731137    0.03349459952309
             2.8253937    0.23472694665786
             0.6401217    0.81375731841339
 s    1 1.00
             0.1612778                   1

29 0
 s    3 1.00
             18.731137    0.03349459952309
             2.8253937    0.23472694665786
             0.6401217    0.81375731841339
 s    1 1.00
             0.1612778                   1

30 0
 s    3 1.00
             18.731137    0.03349459952309
             2.8253937    0.23472694665786
             0.6401217    0.81375731841339
 s    1 1.00
             0.1612778                   1

31 0
 s    3 1.00
             18.731137    0.03349459952309
             2.8253937    0.23472694665786
             0.6401217    0.81375731841339
 s    1 1.00
             0.1612778                   1

32 0
 s    3 1.00
             18.731137    0.03349459952309
             2.8253937    0.23472694665786
             0.6401217    0.81375731841339
 s    1 1.00
             0.1612778                   1

33 0
 s    6 1.00
             3047.5249  0.0018347001629433
             457.36951    0.01403730124668
             103.94869   0.068842606114048
             29.210155    0.23218442062076
              9.286663    0.46794134155879
              3.163927    0.36231203217765
 s    3 1.00
             7.8682724   -0.11933240861517
             1.8812885   -0.16085421161283
             0.5442493     1.1434564825515
 s    1 1.00
             0.1687144                   1
 p    3 1.00
             7.8682724   0.068999095584993
             1.8812885    0.31642397975315
             0.5442493    0.74430825237435
 p    1 1.00
             0.1687144                   1
 d    1 1.00
                   0.8                   1

34 0
 s    6 1.00
             3047.5249  0.0018347001629433
             457.36951    0.01403730124668
             103.94869   0.068842606114048
             29.210155    0.23218442062076
              9.286663    0.46794134155879
              3.163927    0.36231203217765
 s    3 1.00
             7.8682724   -0.11933240861517
             1.8812885   -0.16085421161283
             0.5442493     1.1434564825515
 s    1 1.00
             0.1687144                   1
 p    3 1.00
             7.8682724   0.068999095584993
             1.8812885    0.31642397975315
             0.5442493    0.74430825237435
 p    1 1.00
             0.1687144                   1
 d    1 1.00
                   0.8                   1

35 0
 s    3 1.00
             18.731137    0.03349459952309
             2.8253937    0.23472694665786
             0.6401217    0.81375731841339
 s    1 1.00
             0.1612778                   1

36 0
 s    6 1.00
             3047.5249  0.0018347001629433
             457.36951    0.01403730124668
             103.94869   0.068842606114048
             29.210155    0.23218442062076
              9.286663    0.46794134155879
              3.163927    0.36231203217765
 s    3 1.00
             7.8682724   -0.11933240861517
             1.8812885   -0.16085421161283
             0.5442493     1.1434564825515
 s    1 1.00
             0.1687144                   1
 p    3 1.00
             7.8682724   0.068999095584993
             1.8812885    0.31642397975315
             0.5442493    0.74430825237435
 p    1 1.00
             0.1687144                   1
 d    1 1.00
                   0.8                   1

37 0
 s    3 1.00
             18.731137    0.03349459952309
             2.8253937    0.23472694665786
             0.6401217    0.81375731841339
 s    1 1.00
             0.1612778                   1

38 0
 s    3 1.00
             18.731137    0.03349459952309
             2.8253937    0.23472694665786
             0.6401217    0.81375731841339
 s    1 1.00
             0.1612778                   1

39 0
 s    6 1.00
             3047.5249  0.0018347001629433
             457.36951    0.01403730124668
             103.94869   0.068842606114048
             29.210155    0.23218442062076
              9.286663    0.46794134155879
              3.163927    0.36231203217765
 s    3 1.00
             7.8682724   -0.11933240861517
             1.8812885   -0.16085421161283
             0.5442493     1.1434564825515
 s    1 1.00
             0.1687144                   1
 p    3 1.00
             7.8682724   0.068999095584993
             1.8812885    0.31642397975315
             0.5442493    0.74430825237435
 p    1 1.00
             0.1687144                   1
 d    1 1.00
                   0.8                   1

40 0
 s    6 1.00
             3047.5249  0.0018347001629433
             457.36951    0.01403730124668
             103.94869   0.068842606114048
             29.210155    0.23218442062076
              9.286663    0.46794134155879
              3.163927    0.36231203217765
 s    3 1.00
             7.8682724   -0.11933240861517
             1.8812885   -0.16085421161283
             0.5442493     1.1434564825515
 s    1 1.00
             0.1687144                   1
 p    3 1.00
             7.8682724   0.068999095584993
             1.8812885    0.31642397975315
             0.5442493    0.74430825237435
 p    1 1.00
             0.1687144                   1
 d    1 1.00
                   0.8                   1

41 0
 s    3 1.00
             18.731137    0.03349459952309
             2.8253937    0.23472694665786
             0.6401217    0.81375731841339
 s    1 1.00
             0.1612778                   1

42 0
 s    6 1.00
             5484.6717   0.001831099805527
             825.23495   0.013950098518422
             188.04696    0.06844509273075
               52.9645    0.23271427528445
              16.89757    0.47019295006289
             5.7996353    0.35852086192309
 s    3 1.00
             15.539616   -0.11077750382508
             3.5999336   -0.14802630511126
             1.0137618     1.1307670390447
 s    1 1.00
             0.2700058                   1
 p    3 1.00
             15.539616   0.070874299543311
             3.5999336    0.33975279781076
             1.0137618    0.72715859531445
 p    1 1.00
             0.2700058                   1
 d    1 1.00
                   0.8                   1

43 0
 s    3 1.00
             18.731137    0.03349459952309
             2.8253937    0.23472694665786
             0.6401217    0.81375731841339
 s    1 1.00
             0.1612778                   1

[5d]
[7f]
[9g]

[MO]
 Sym= A
 Ene=               0
 Spin= Alpha
 Occup=    1.00000
   1    -0.018372043853099
   2    0.00089781225127575
   3    -0.0066292849909479
   4    -0.00035218203429362
   5    7.2194875420469e-05
   6    -0.0011768851439592
   7    -0.00079994095306836
   8    -0.00094940705832294
   9     0.004888246487964
  10    0.00094227840016549
  11    0.00087874793963143
  12    -0.00014977825552781
  13    0.0002065571352939
  14    -4.9077884094799e-05
  15    0.00043358674077538
  16    0.00080065744444569
  17     -0.99478437310681
  18    -0.036598278815691
  19     0.027953849130203
  20    -0.0008236653877999
  21    -0.00014014017545866
  22    0.00051426197914588
  23    0.0032649132153093
  24    0.00094573406416644
  25    0.0005402298947942
  26    -0.00079508270006897
  27    0.00027085690652428
  28    0.0003655578325725
  29    -0.00029277871978896
  30    -0.00015437257934417
  31    0.0010748033323019
  32    -0.0039260688777293
  33    -0.019538958791935
  34    0.00018498745819692
  35    -0.0017188656791171
  36    -0.00082188707035199
  37    -0.00031356822587555
  38    0.0011630305267323
  39    0.0012672755301831
  40    -0.0029775966672851
  41    -0.0046379851649701
  42    0.00065603965158852
  43    -0.0011001238147594
  44    -0.00043281668251587
  45    0.00032746952147085
  46    0.00042748226670265
  47    0.00052620937245509
  48    0.00058816523017023
  49    -0.00064687694732659
  50    0.00049224897651922
  51    -0.00045024504928756
  52    -0.00012742582952832
  53    -2.1487110557491e-05
  54    0.00044047262056454
  55    0.0030773317502409
  56    -0.00087672152917619
  57    -0.006825784510903
  58    8.0286572299553e-05
  59    -2.3420175867582e-05
  60    -0.00021734793888723
  61    0.00022503214846454
  62    1.6434181950291e-05
  63    0.00044297517056286
  64    -0.00014107471185788
  65    3.794108603213e-06
  66    5.3552205782724e-06
  67    -8.4937046421478e-07
  68    3.5453350087811e-06
  69    -7.3959256860595e-06
  70    -1.9730852296547e-06
  71    4.9773462150479e-06
  72    -1.0889627158799e-06
  73    -6.9540205494381e-06
  74    -2.20217606209e-05
  75    -5.6720761685976e-06
  76    6.0570734456799e-07
  77    6.0763321062574e-07
  78    -6.2784887824049e-07
  79    -5.7515250945387e-07
  80    1.165342636447e-07
  81    -2.5050528412788e-06
  82    -1.237301467868e-05
  83    -1.7848122666244e-06
  84    2.0357697811172e-06
  85    7.9753082900516e-05
  86    -9.2914086924203e-06
  87    -2.5809180070325e-06
  88    -1.5644822271798e-05
  89    -2.8640149192995e-05
  90    5.6391892740672e-05
  91    -2.1123615923386e-05
  92    -1.0175022453868e-06
  93    2.1023771931923e-06
  94    -3.7437985392711e-06
  95     3.02509903062e-07
  96    5.9906189868278e-07
  97    -1.1253500700193e-05
  98    -1.9420841397744e-05
  99    2.2210455830228e-06
 100    1.706841784901e-05
 101    3.0359331504334e-06
 102    9.381696042329e-06
 103    -0.00020119258843302
 104    1.5136746294417e-05
 105    1.9520256599748e-05
 106    4.805644201964e-06
 107    0.00019289851297946
 108    -0.00015257072071192
 109    -0.00015480526140063
 110    6.847908047114e-06
 111    2.9295548464692e-06
 112    -1.2324616063397e-06
 113    -2.9265637551161e-06
 114    5.1082594974535e-06
 115    5.8133776906735e-06
 116    2.7977859257789e-05
 117    -0.00024777945449085
 118    5.5526503553547e-06
 119    -9.0254394933562e-06
 120    -9.0078835128455e-06
 121    5.6129605294027e-05
 122    -2.1646212746042e-05
 123    -3.1977675948458e-05
 124    -8.5679375470382e-07
 125    2.6473276899318e-06
 126    2.2486525018311e-06
 127    -1.0458544628589e-06
 128    1.6372272163116e-06
 129    -7.290416907706e-06
 130    7.4482203939149e-05
 131    -0.00011010229166506
 132    -1.8177053474383e-05
 133    6.5163165643656e-06
 134    -9.7294248662099e-05
 135    0.00029034974455799
 136    -4.4699492865115e-05
 137    0.00038756606486275
 138    -1.2872235034401e-05
 139    -6.8544963908694e-06
 140    -3.0282433385754e-06
 141    -2.6804908901859e-06
 142    -4.5399568295689e-06
 143    9.8636795518648e-06
 144    5.7119881910767e-06
 145    -8.2549475968477e-05
 146    -1.9671071244451e-05
 147    8.0942154142882e-06
 148    2.1660282301316e-05
 149    -5.0296945456373e-05
 150    4.6234932072423e-05
 151    3.9378122013005e-05
 152    9.2448395479495e-06
 153    4.0702038083329e-06
 154    1.8623684898759e-06
 155    -4.7950873247262e-06
 156    4.6200368282316e-06
 157    -4.447402613932e-08
 158    -1.0127420370289e-05
 159    -3.2500727508907e-06
 160    -6.5153914216093e-06
 161    4.1395366228123e-06
 162    -2.9589413741855e-06
 163    4.0311742621841e-05
 164    -5.7907554536606e-06
 165    -9.8982786545464e-06
 166    -2.4751538107199e-06
 167    5.9715842173182e-07
 168    -2.1876238450347e-07
 169    1.4594637276371e-07
 170    -8.7827094896673e-07
 171    1.2547814168647e-06
 172    9.6524483182615e-06
 173    -1.9790067970754e-05
 174    2.2685281557894e-06
 175    -1.578718072904e-06
 176    -8.5152993637488e-06
 177    1.8521930559237e-05
 178    -9.3529308500109e-08
 179    3.4306893842075e-05
 180    -1.3181793647948e-06
 181    -2.6478032577581e-06
 182    6.749245875068e-09
 183    1.1136077496197e-06
 184    -9.1525904862008e-07
 185    -6.227972177094e-07
 186    3.066538634016e-05
 187    -2.7563350139038e-05
 188    -3.0860070734119e-06
 189    -4.2537014226275e-06
 190    -2.2390298105639e-05
 191    -1.2182853159643e-05
 192    -1.2355881816657e-06
 193    4.1519532036929e-05
 194    -3.6200690341092e-06
 195    1.469680512272e-07
 196    -2.1089434706665e-06
 197    5.301655199333e-07
 198    -5.9517377353083e-08
 199    6.468973966775e-06
 200    2.7119289250549e-06
 201    -4.8707456025832e-06
 202    -3.4400944373069e-05
 203    1.2933016164166e-05
 204    7.5514560542599e-06
 205    -2.5176489485503e-06
 206    1.9460442358747e-05
 207    -7.748966087941e-06
 208    7.0534744210641e-05
 209    -4.6157711884402e-06
 210    3.0394298905683e-05
 211    -3.4901497182808e-06
 212    -1.2739891569431e-05
 213    -2.0050821315406e-06
 214    1.2933369669478e-05
 215    3.6423092511678e-06
 216    5.1104345489647e-05
 217    -3.8886820554573e-06
 218    -1.2329217981012e-05
 219    4.5677945169708e-07
 220    -3.9018955108231e-06
 221    8.4817557478818e-05
 222    -9.0275856098538e-05
 223    -0.00072250059674561
 224    -9.7704287204815e-05
 225    -5.9107061457378e-05
 226    0.00020469240763045
 227    -0.00057052917427768
 228    -0.00026433472502667
 229    0.00083148685237826
 230    5.1463479234722e-06
 231     3.91264086189e-05
 232    1.7457596502533e-05
 233    -2.057671837633e-05
 234    -2.117625586905e-05
 235    -0.00013982811089557
 236    0.00032713221468677
 237    0.00020874744392239
 238    0.00020437354937837
 239    0.00015335406807254
 240    -0.00053589305523541
 241    -0.00011565930316718
 242    -0.00020863787976308
 243    0.0011949594452463
 244    -9.4685525726236e-06
 245    -4.8707216458691e-05
 246    -1.3431243956165e-05
 247    -9.5547840661255e-06
 248    -1.1380350522416e-06
 249    1.2870365812437e-05
 250    -0.00028321268664855
 251    0.00033801051463719
 252    0.00041256500619646
 253    -0.0016675219994708
 254    0.00048493247537255
 255    0.00010923263593959
 256    0.00019047818758329
 257    0.00042454010527489
 258    -0.00038955925315753
 259    0.0017665927923978
 260    8.3083509068125e-05
 261    2.3861893751605e-05
 262    1.988711363221e-05
 263    -0.00013474711712574
 264    -9.7538520480625e-05
 265    0.00024569428616314
 266    -0.00013666380114186
 267    -0.00021604294837632
 268    0.00025730419238719
 269    1.3726780569028e-05
 270    0.00043510630148668
 271    -0.0057883726670657
 272    2.2558480900113e-05
 273    0.00017390030793768
 274    -5.1679974657461e-05
 275    0.0018966081867247
 276    0.0023587253988975
 277    -0.0020139153412523
 278    -6.7285065527146e-05
 279    0.00015687156930495
 280    4.6972472217096e-05