[Molden Format]
made by pyscf v[2.0.1]
[Atoms] (AU)
C   1   6     0.69100024066471     0.64692934207205    -3.48223131169301
H   2   1     2.68052439830868     1.13355088658700    -3.25784032593313
C   3   6    -0.36286361513219     0.85440132524594    -5.97030179418974
H   4   1    -2.35448549047279     0.36322488579172    -6.17995817793143
C   5   6     0.93697958957450     1.61209284601821    -8.05828437677121
H   6   1    -0.09693119212527     2.00604603919817    -9.79517014534402
C   7   6     3.63030097622708     1.92762357571405    -8.11066704391556
H   8   1     4.64038155806228     1.52704759336691    -6.35595956986227
H   9   1     1.55630230933075    -1.92953025305990    12.99630010416247
C   10   6     0.75233899775814    -2.21270439606481    11.10705728102219
H   11   1    -0.43433408177274    -3.90944857546550    11.22216085340412
C   12   6     2.86362581178706    -2.63237380607947     9.17926416456045
H   13   1     4.39038949912609    -1.24955421540245     9.49899813497433
H   14   1     3.74629220191363    -4.48798724300892     9.47414880959024
C   15   6     2.02478325613682    -2.42177285709634     6.44560829588644
C   16   6     3.88048732735477    -3.58795445234514     4.61402886975252
C   17   6    -0.18412382258602    -1.30464291234259     5.76021113872346
C   18   6    -2.10044360464350    -0.26837831858460     7.71610340967100
C   19   6    -3.08956938670431     2.35282328359417     6.88693925039594
C   20   6    -4.37372924086464    -2.09766595989678     7.93610724222001
C   21   6    -0.83850430601230     0.06372213486173    10.33002307638377
H   22   1     0.38411922151109     1.74281358582432    10.27380136542181
H   23   1    -2.30980003007874     0.45460143924521    11.73986301809809
H   24   1     4.58527064644668    -5.38706904487420     5.36778158031719
H   25   1     5.54944938085014    -2.37631462192748     4.35398898413318
H   26   1     3.06633019150423    -3.94118377050688     2.75255466040884
H   27   1    -4.17727778763735     2.26573369139522     5.12914900961283
H   28   1    -1.52662344944051     3.68001877445626     6.59540397144508
H   29   1    -4.32916174397830     3.13643051467482     8.35225460090378
H   30   1    -5.32329548508442    -2.36691813602939     6.11583672749896
H   31   1    -5.77989366602257    -1.33896741843465     9.25748940450990
H   32   1    -3.79310905208926    -3.96389819310853     8.61386170102686
C   33   6    -1.01100794811226    -1.06331657314144     3.11929490449947
C   34   6     0.37686231036534    -0.33275864505552     1.09165013605873
H   35   1    -3.01671213906703    -1.40297922279997     2.77827895090944
C   36   6    -0.64382707979370    -0.11591880174385    -1.42063131251064
H   37   1     2.35569259782137     0.17174499283897     1.33641070251401
H   38   1    -2.63317482980319    -0.60229203511219    -1.66119700387645
C   39   6     5.00345825531076     2.67452304879010   -10.14372233560053
C   40   6     7.74537676211387     2.93885238802377   -10.00575318331397
H   41   1     4.11504514624535     3.10282594680410   -11.94789724846226
O   42   8     9.09456961333047     3.59889471504076   -11.75642359916462
H   43   1     8.57474602054619     2.48152315519597    -8.12342071425648
[GTO]
1 0
 s    6 1.00
             3047.5249  0.0018347001629433
             457.36951    0.01403730124668
             103.94869   0.068842606114048
             29.210155    0.23218442062076
              9.286663    0.46794134155879
              3.163927    0.36231203217765
 s    3 1.00
             7.8682724   -0.11933240861517
             1.8812885   -0.16085421161283
             0.5442493     1.1434564825515
 s    1 1.00
             0.1687144                   1
 p    3 1.00
             7.8682724   0.068999095584993
             1.8812885    0.31642397975315
             0.5442493    0.74430825237435
 p    1 1.00
             0.1687144                   1
 d    1 1.00
                   0.8                   1

2 0
 s    3 1.00
             18.731137    0.03349459952309
             2.8253937    0.23472694665786
             0.6401217    0.81375731841339
 s    1 1.00
             0.1612778                   1

3 0
 s    6 1.00
             3047.5249  0.0018347001629433
             457.36951    0.01403730124668
             103.94869   0.068842606114048
             29.210155    0.23218442062076
              9.286663    0.46794134155879
              3.163927    0.36231203217765
 s    3 1.00
             7.8682724   -0.11933240861517
             1.8812885   -0.16085421161283
             0.5442493     1.1434564825515
 s    1 1.00
             0.1687144                   1
 p    3 1.00
             7.8682724   0.068999095584993
             1.8812885    0.31642397975315
             0.5442493    0.74430825237435
 p    1 1.00
             0.1687144                   1
 d    1 1.00
                   0.8                   1

4 0
 s    3 1.00
             18.731137    0.03349459952309
             2.8253937    0.23472694665786
             0.6401217    0.81375731841339
 s    1 1.00
             0.1612778                   1

5 0
 s    6 1.00
             3047.5249  0.0018347001629433
             457.36951    0.01403730124668
             103.94869   0.068842606114048
             29.210155    0.23218442062076
              9.286663    0.46794134155879
              3.163927    0.36231203217765
 s    3 1.00
             7.8682724   -0.11933240861517
             1.8812885   -0.16085421161283
             0.5442493     1.1434564825515
 s    1 1.00
             0.1687144                   1
 p    3 1.00
             7.8682724   0.068999095584993
             1.8812885    0.31642397975315
             0.5442493    0.74430825237435
 p    1 1.00
             0.1687144                   1
 d    1 1.00
                   0.8                   1

6 0
 s    3 1.00
             18.731137    0.03349459952309
             2.8253937    0.23472694665786
             0.6401217    0.81375731841339
 s    1 1.00
             0.1612778                   1

7 0
 s    6 1.00
             3047.5249  0.0018347001629433
             457.36951    0.01403730124668
             103.94869   0.068842606114048
             29.210155    0.23218442062076
              9.286663    0.46794134155879
              3.163927    0.36231203217765
 s    3 1.00
             7.8682724   -0.11933240861517
             1.8812885   -0.16085421161283
             0.5442493     1.1434564825515
 s    1 1.00
             0.1687144                   1
 p    3 1.00
             7.8682724   0.068999095584993
             1.8812885    0.31642397975315
             0.5442493    0.74430825237435
 p    1 1.00
             0.1687144                   1
 d    1 1.00
                   0.8                   1

8 0
 s    3 1.00
             18.731137    0.03349459952309
             2.8253937    0.23472694665786
             0.6401217    0.81375731841339
 s    1 1.00
             0.1612778                   1

9 0
 s    3 1.00
             18.731137    0.03349459952309
             2.8253937    0.23472694665786
             0.6401217    0.81375731841339
 s    1 1.00
             0.1612778                   1

10 0
 s    6 1.00
             3047.5249  0.0018347001629433
             457.36951    0.01403730124668
             103.94869   0.068842606114048
             29.210155    0.23218442062076
              9.286663    0.46794134155879
              3.163927    0.36231203217765
 s    3 1.00
             7.8682724   -0.11933240861517
             1.8812885   -0.16085421161283
             0.5442493     1.1434564825515
 s    1 1.00
             0.1687144                   1
 p    3 1.00
             7.8682724   0.068999095584993
             1.8812885    0.31642397975315
             0.5442493    0.74430825237435
 p    1 1.00
             0.1687144                   1
 d    1 1.00
                   0.8                   1

11 0
 s    3 1.00
             18.731137    0.03349459952309
             2.8253937    0.23472694665786
             0.6401217    0.81375731841339
 s    1 1.00
             0.1612778                   1

12 0
 s    6 1.00
             3047.5249  0.0018347001629433
             457.36951    0.01403730124668
             103.94869   0.068842606114048
             29.210155    0.23218442062076
              9.286663    0.46794134155879
              3.163927    0.36231203217765
 s    3 1.00
             7.8682724   -0.11933240861517
             1.8812885   -0.16085421161283
             0.5442493     1.1434564825515
 s    1 1.00
             0.1687144                   1
 p    3 1.00
             7.8682724   0.068999095584993
             1.8812885    0.31642397975315
             0.5442493    0.74430825237435
 p    1 1.00
             0.1687144                   1
 d    1 1.00
                   0.8                   1

13 0
 s    3 1.00
             18.731137    0.03349459952309
             2.8253937    0.23472694665786
             0.6401217    0.81375731841339
 s    1 1.00
             0.1612778                   1

14 0
 s    3 1.00
             18.731137    0.03349459952309
             2.8253937    0.23472694665786
             0.6401217    0.81375731841339
 s    1 1.00
             0.1612778                   1

15 0
 s    6 1.00
             3047.5249  0.0018347001629433
             457.36951    0.01403730124668
             103.94869   0.068842606114048
             29.210155    0.23218442062076
              9.286663    0.46794134155879
              3.163927    0.36231203217765
 s    3 1.00
             7.8682724   -0.11933240861517
             1.8812885   -0.16085421161283
             0.5442493     1.1434564825515
 s    1 1.00
             0.1687144                   1
 p    3 1.00
             7.8682724   0.068999095584993
             1.8812885    0.31642397975315
             0.5442493    0.74430825237435
 p    1 1.00
             0.1687144                   1
 d    1 1.00
                   0.8                   1

16 0
 s    6 1.00
             3047.5249  0.0018347001629433
             457.36951    0.01403730124668
             103.94869   0.068842606114048
             29.210155    0.23218442062076
              9.286663    0.46794134155879
              3.163927    0.36231203217765
 s    3 1.00
             7.8682724   -0.11933240861517
             1.8812885   -0.16085421161283
             0.5442493     1.1434564825515
 s    1 1.00
             0.1687144                   1
 p    3 1.00
             7.8682724   0.068999095584993
             1.8812885    0.31642397975315
             0.5442493    0.74430825237435
 p    1 1.00
             0.1687144                   1
 d    1 1.00
                   0.8                   1

17 0
 s    6 1.00
             3047.5249  0.0018347001629433
             457.36951    0.01403730124668
             103.94869   0.068842606114048
             29.210155    0.23218442062076
              9.286663    0.46794134155879
              3.163927    0.36231203217765
 s    3 1.00
             7.8682724   -0.11933240861517
             1.8812885   -0.16085421161283
             0.5442493     1.1434564825515
 s    1 1.00
             0.1687144                   1
 p    3 1.00
             7.8682724   0.068999095584993
             1.8812885    0.31642397975315
             0.5442493    0.74430825237435
 p    1 1.00
             0.1687144                   1
 d    1 1.00
                   0.8                   1

18 0
 s    6 1.00
             3047.5249  0.0018347001629433
             457.36951    0.01403730124668
             103.94869   0.068842606114048
             29.210155    0.23218442062076
              9.286663    0.46794134155879
              3.163927    0.36231203217765
 s    3 1.00
             7.8682724   -0.11933240861517
             1.8812885   -0.16085421161283
             0.5442493     1.1434564825515
 s    1 1.00
             0.1687144                   1
 p    3 1.00
             7.8682724   0.068999095584993
             1.8812885    0.31642397975315
             0.5442493    0.74430825237435
 p    1 1.00
             0.1687144                   1
 d    1 1.00
                   0.8                   1

19 0
 s    6 1.00
             3047.5249  0.0018347001629433
             457.36951    0.01403730124668
             103.94869   0.068842606114048
             29.210155    0.23218442062076
              9.286663    0.46794134155879
              3.163927    0.36231203217765
 s    3 1.00
             7.8682724   -0.11933240861517
             1.8812885   -0.16085421161283
             0.5442493     1.1434564825515
 s    1 1.00
             0.1687144                   1
 p    3 1.00
             7.8682724   0.068999095584993
             1.8812885    0.31642397975315
             0.5442493    0.74430825237435
 p    1 1.00
             0.1687144                   1
 d    1 1.00
                   0.8                   1

20 0
 s    6 1.00
             3047.5249  0.0018347001629433
             457.36951    0.01403730124668
             103.94869   0.068842606114048
             29.210155    0.23218442062076
              9.286663    0.46794134155879
              3.163927    0.36231203217765
 s    3 1.00
             7.8682724   -0.11933240861517
             1.8812885   -0.16085421161283
             0.5442493     1.1434564825515
 s    1 1.00
             0.1687144                   1
 p    3 1.00
             7.8682724   0.068999095584993
             1.8812885    0.31642397975315
             0.5442493    0.74430825237435
 p    1 1.00
             0.1687144                   1
 d    1 1.00
                   0.8                   1

21 0
 s    6 1.00
             3047.5249  0.0018347001629433
             457.36951    0.01403730124668
             103.94869   0.068842606114048
             29.210155    0.23218442062076
              9.286663    0.46794134155879
              3.163927    0.36231203217765
 s    3 1.00
             7.8682724   -0.11933240861517
             1.8812885   -0.16085421161283
             0.5442493     1.1434564825515
 s    1 1.00
             0.1687144                   1
 p    3 1.00
             7.8682724   0.068999095584993
             1.8812885    0.31642397975315
             0.5442493    0.74430825237435
 p    1 1.00
             0.1687144                   1
 d    1 1.00
                   0.8                   1

22 0
 s    3 1.00
             18.731137    0.03349459952309
             2.8253937    0.23472694665786
             0.6401217    0.81375731841339
 s    1 1.00
             0.1612778                   1

23 0
 s    3 1.00
             18.731137    0.03349459952309
             2.8253937    0.23472694665786
             0.6401217    0.81375731841339
 s    1 1.00
             0.1612778                   1

24 0
 s    3 1.00
             18.731137    0.03349459952309
             2.8253937    0.23472694665786
             0.6401217    0.81375731841339
 s    1 1.00
             0.1612778                   1

25 0
 s    3 1.00
             18.731137    0.03349459952309
             2.8253937    0.23472694665786
             0.6401217    0.81375731841339
 s    1 1.00
             0.1612778                   1

26 0
 s    3 1.00
             18.731137    0.03349459952309
             2.8253937    0.23472694665786
             0.6401217    0.81375731841339
 s    1 1.00
             0.1612778                   1

27 0
 s    3 1.00
             18.731137    0.03349459952309
             2.8253937    0.23472694665786
             0.6401217    0.81375731841339
 s    1 1.00
             0.1612778                   1

28 0
 s    3 1.00
             18.731137    0.03349459952309
             2.8253937    0.23472694665786
             0.6401217    0.81375731841339
 s    1 1.00
             0.1612778                   1

29 0
 s    3 1.00
             18.731137    0.03349459952309
             2.8253937    0.23472694665786
             0.6401217    0.81375731841339
 s    1 1.00
             0.1612778                   1

30 0
 s    3 1.00
             18.731137    0.03349459952309
             2.8253937    0.23472694665786
             0.6401217    0.81375731841339
 s    1 1.00
             0.1612778                   1

31 0
 s    3 1.00
             18.731137    0.03349459952309
             2.8253937    0.23472694665786
             0.6401217    0.81375731841339
 s    1 1.00
             0.1612778                   1

32 0
 s    3 1.00
             18.731137    0.03349459952309
             2.8253937    0.23472694665786
             0.6401217    0.81375731841339
 s    1 1.00
             0.1612778                   1

33 0
 s    6 1.00
             3047.5249  0.0018347001629433
             457.36951    0.01403730124668
             103.94869   0.068842606114048
             29.210155    0.23218442062076
              9.286663    0.46794134155879
              3.163927    0.36231203217765
 s    3 1.00
             7.8682724   -0.11933240861517
             1.8812885   -0.16085421161283
             0.5442493     1.1434564825515
 s    1 1.00
             0.1687144                   1
 p    3 1.00
             7.8682724   0.068999095584993
             1.8812885    0.31642397975315
             0.5442493    0.74430825237435
 p    1 1.00
             0.1687144                   1
 d    1 1.00
                   0.8                   1

34 0
 s    6 1.00
             3047.5249  0.0018347001629433
             457.36951    0.01403730124668
             103.94869   0.068842606114048
             29.210155    0.23218442062076
              9.286663    0.46794134155879
              3.163927    0.36231203217765
 s    3 1.00
             7.8682724   -0.11933240861517
             1.8812885   -0.16085421161283
             0.5442493     1.1434564825515
 s    1 1.00
             0.1687144                   1
 p    3 1.00
             7.8682724   0.068999095584993
             1.8812885    0.31642397975315
             0.5442493    0.74430825237435
 p    1 1.00
             0.1687144                   1
 d    1 1.00
                   0.8                   1

35 0
 s    3 1.00
             18.731137    0.03349459952309
             2.8253937    0.23472694665786
             0.6401217    0.81375731841339
 s    1 1.00
             0.1612778                   1

36 0
 s    6 1.00
             3047.5249  0.0018347001629433
             457.36951    0.01403730124668
             103.94869   0.068842606114048
             29.210155    0.23218442062076
              9.286663    0.46794134155879
              3.163927    0.36231203217765
 s    3 1.00
             7.8682724   -0.11933240861517
             1.8812885   -0.16085421161283
             0.5442493     1.1434564825515
 s    1 1.00
             0.1687144                   1
 p    3 1.00
             7.8682724   0.068999095584993
             1.8812885    0.31642397975315
             0.5442493    0.74430825237435
 p    1 1.00
             0.1687144                   1
 d    1 1.00
                   0.8                   1

37 0
 s    3 1.00
             18.731137    0.03349459952309
             2.8253937    0.23472694665786
             0.6401217    0.81375731841339
 s    1 1.00
             0.1612778                   1

38 0
 s    3 1.00
             18.731137    0.03349459952309
             2.8253937    0.23472694665786
             0.6401217    0.81375731841339
 s    1 1.00
             0.1612778                   1

39 0
 s    6 1.00
             3047.5249  0.0018347001629433
             457.36951    0.01403730124668
             103.94869   0.068842606114048
             29.210155    0.23218442062076
              9.286663    0.46794134155879
              3.163927    0.36231203217765
 s    3 1.00
             7.8682724   -0.11933240861517
             1.8812885   -0.16085421161283
             0.5442493     1.1434564825515
 s    1 1.00
             0.1687144                   1
 p    3 1.00
             7.8682724   0.068999095584993
             1.8812885    0.31642397975315
             0.5442493    0.74430825237435
 p    1 1.00
             0.1687144                   1
 d    1 1.00
                   0.8                   1

40 0
 s    6 1.00
             3047.5249  0.0018347001629433
             457.36951    0.01403730124668
             103.94869   0.068842606114048
             29.210155    0.23218442062076
              9.286663    0.46794134155879
              3.163927    0.36231203217765
 s    3 1.00
             7.8682724   -0.11933240861517
             1.8812885   -0.16085421161283
             0.5442493     1.1434564825515
 s    1 1.00
             0.1687144                   1
 p    3 1.00
             7.8682724   0.068999095584993
             1.8812885    0.31642397975315
             0.5442493    0.74430825237435
 p    1 1.00
             0.1687144                   1
 d    1 1.00
                   0.8                   1

41 0
 s    3 1.00
             18.731137    0.03349459952309
             2.8253937    0.23472694665786
             0.6401217    0.81375731841339
 s    1 1.00
             0.1612778                   1

42 0
 s    6 1.00
             5484.6717   0.001831099805527
             825.23495   0.013950098518422
             188.04696    0.06844509273075
               52.9645    0.23271427528445
              16.89757    0.47019295006289
             5.7996353    0.35852086192309
 s    3 1.00
             15.539616   -0.11077750382508
             3.5999336   -0.14802630511126
             1.0137618     1.1307670390447
 s    1 1.00
             0.2700058                   1
 p    3 1.00
             15.539616   0.070874299543311
             3.5999336    0.33975279781076
             1.0137618    0.72715859531445
 p    1 1.00
             0.2700058                   1
 d    1 1.00
                   0.8                   1

43 0
 s    3 1.00
             18.731137    0.03349459952309
             2.8253937    0.23472694665786
             0.6401217    0.81375731841339
 s    1 1.00
             0.1612778                   1

[5d]
[7f]
[9g]

[MO]
 Sym= A
 Ene=               0
 Spin= Alpha
 Occup=    1.00000
   1    0.0017791503757571
   2    0.00023437137403011
   3    0.00052633126778747
   4    0.00014011262256049
   5    8.6412012151772e-05
   6    -0.00012069188870166
   7    -0.0015101827979334
   8    -0.00066877247777613
   9    0.00060810296702559
  10    6.5104497689352e-05
  11    -6.3734336254434e-05
  12    -2.4888245641862e-05
  13    -2.81393839104e-05
  14    6.1636717262802e-07
  15    9.1895012797338e-05
  16    0.0014490725486356
  17    -0.0042109265110988
  18    0.00021300856967693
  19    -0.0012671498809059
  20    0.00016863142764397
  21    3.9534094604686e-05
  22    -8.7134892859053e-05
  23    -0.00016755147512453
  24    -5.85967421187e-05
  25    0.00032519209831042
  26    -0.00010180039348161
  27    -7.1135365273076e-05
  28    7.1795271409224e-05
  29    -6.7118935395692e-05
  30    1.4906485797209e-05
  31    3.4247193042825e-05
  32    -0.00016762691918098
  33    -0.015425649575362
  34    0.00090883827049064
  35    -0.0063893969518031
  36    0.0011651767897271
  37    0.00016696225178081
  38    -0.00014724474837258
  39    -0.0033455997138764
  40    -0.00082949715984743
  41    0.0015781006724122
  42    -0.00066654058204651
  43    6.274110367994e-05
  44    -4.4465709756865e-06
  45    0.0011733285295512
  46    0.00025176977068638
  47    0.00042435523147661
  48    0.0004175443700145
  49      -0.9951020908251
  50     -0.03570412210528
  51     0.028601848164845
  52    0.0004561301945555
  53    -2.1928768751621e-06
  54    0.00025156646596742
  55    -0.00086449932394556
  56    0.00062886260071835
  57    -0.0025849731462155
  58    -0.00017679491097671
  59    0.00063180938495265
  60    0.00037876277840811
  61    -0.00060501285834262
  62    -0.00033689522948505
  63     0.001099905672022
  64    -0.0049593549970435
  65    1.1915277746526e-06
  66    1.9864143265333e-06
  67    9.6276431868382e-08
  68    5.0365286925965e-07
  69    -1.578418651435e-06
  70    -8.9613320689978e-07
  71    1.8044564968679e-06
  72    -3.6883481905535e-08
  73    -4.5200214272733e-06
  74    -6.8356793882682e-06
  75    -2.9319253355715e-06
  76    2.6949171211928e-07
  77    2.3647618851294e-07
  78    -2.170290497733e-07
  79    -1.8281097907998e-07
  80    1.110845553426e-07
  81    -1.0196327112653e-06
  82    -3.4103838195302e-06
  83    -1.1898353285401e-07
  84    4.6608018115317e-07
  85    3.229413676994e-05
  86    -2.4159545109087e-06
  87    3.2518156422629e-07
  88    -3.4304044574718e-06
  89    -8.3496424675454e-06
  90    2.0721131380753e-05
  91    -5.5600634709496e-06
  92    -7.5810475248038e-07
  93    1.2647684771929e-06
  94    -1.4307627758634e-06
  95    6.3654509732782e-08
  96    4.6725849432842e-07
  97    -1.7587186969615e-06
  98    -3.9743911518482e-06
  99    -2.6211137690065e-07
 100    4.0415841712219e-06
 101    4.096957455882e-07
 102    4.1977165321778e-06
 103    -9.098790950553e-05
 104    -2.0686887738927e-06
 105    -3.4606579052764e-07
 106    2.863834417559e-06
 107    9.0770235470768e-05
 108    -8.4059824847376e-05
 109    -7.2900343547801e-05
 110    2.2168167969092e-06
 111    9.7245260158285e-07
 112    -4.5073894325984e-08
 113    -4.6611134754191e-07
 114    2.3903097860886e-06
 115    1.1261839390668e-06
 116    1.0064231020456e-05
 117    -0.00010178916744457
 118    3.5732471334358e-06
 119    -3.9767537352602e-06
 120    -3.7727244522279e-07
 121    1.1458313820522e-05
 122    4.0554431753638e-08
 123    -3.6287741446817e-05
 124    -1.4890608414811e-07
 125    1.5276351525372e-06
 126    1.0273542981916e-06
 127    1.7137352118685e-07
 128    1.879385256057e-06
 129    1.7159769733135e-06
 130    2.3773780494917e-05
 131    -8.5797183633253e-05
 132    -4.3376516602238e-06
 133    -2.7020611334195e-06
 134    -1.3904903960712e-05
 135    0.00013559873215923
 136    -8.6878571282988e-06
 137    0.00023456636182507
 138    -6.3346562782638e-06
 139    -5.9836800733201e-06
 140    -1.719711329258e-06
 141    -1.702517501984e-06
 142    -2.3421377767773e-06
 143    2.2127069446803e-06
 144    1.5465558576967e-05
 145    -5.4713988773104e-05
 146    -7.3373876771783e-07
 147    -3.3104059690256e-07
 148    -1.4503013133901e-06
 149    -3.3977664204126e-05
 150    5.0766042347973e-06
 151    2.5392172448697e-05
 152    3.4254742159396e-06
 153    1.9547607851911e-06
 154    1.0983714288925e-06
 155    -2.3470639774208e-06
 156    2.5368621642844e-06
 157    -3.1915195878867e-07
 158    -4.4641466606187e-06
 159    1.1162274510836e-05
 160    -1.953251250455e-06
 161    -3.1020532833293e-08
 162    1.5966267345452e-06
 163    2.3859947283608e-05
 164    -7.628470566951e-06
 165    -3.9949111794766e-06
 166    -2.005324354883e-06
 167    6.997065833589e-07
 168    -9.5648624244948e-10
 169    9.1990691719687e-08
 170    -1.1965905741782e-06
 171     3.81360419694e-07
 172    3.1786441587082e-06
 173    -1.0804915921205e-05
 174    7.0958574823209e-07
 175    1.3537906595462e-07
 176    -3.584766432726e-06
 177    4.306945066455e-06
 178    -4.3605132141375e-06
 179    7.9123377716119e-06
 180    -4.1058544060032e-07
 181    -1.596330199225e-06
 182    -5.4228795221973e-07
 183    9.1730731346113e-07
 184    -5.2956026017594e-07
 185    1.120663444608e-06
 186    1.236508159459e-05
 187    -2.0083564916709e-05
 188    2.2992513791724e-07
 189    -8.0987037233059e-07
 190    -5.3848186867641e-06
 191    -2.403957099634e-06
 192    5.2410167225155e-06
 193    2.1655691279652e-05
 194    -9.2929113302461e-07
 195    -3.6589962108374e-07
 196    -1.2111848673307e-06
 197    -1.8025467137612e-07
 198    9.459250414984e-08
 199    2.6076485588994e-06
 200    1.7946703208071e-08
 201    -8.9880415415256e-08
 202    -1.1289524360929e-05
 203    5.9366526128877e-06
 204    1.1140130727643e-05
 205    -4.3582966779055e-06
 206    2.7031859990542e-05
 207    -3.4767438141963e-06
 208    -1.134229697245e-07
 209    -4.6184705721518e-06
 210    1.2537741565294e-05
 211    -3.0494319536995e-06
 212    -7.2858313740567e-06
 213    7.9467167732391e-07
 214    8.4240509265184e-06
 215    6.0950103357985e-07
 216    1.2228328845396e-05
 217    -3.2417845255131e-07
 218    -1.0860625932998e-06
 219    -8.4886134825969e-07
 220    -1.9989261973139e-06
 221    3.2836597289758e-06
 222    3.8236344129793e-05
 223    -6.1863986381906e-05
 224    -1.0913638407867e-07
 225    9.669091359784e-06
 226    -9.6777743863781e-06
 227    -0.00017716744236573
 228    -9.8935758910722e-05
 229    0.00033345878255086
 230    2.3526106676746e-06
 231    1.7460628941324e-05
 232    6.7746008289001e-06
 233    -1.0811177398373e-05
 234    -9.1456337094076e-06
 235    -7.435251163479e-06
 236    -1.1638062248819e-05
 237    -2.9403868565355e-05
 238    -9.3722570034857e-06
 239    2.7124470887614e-06
 240    -7.9432877269845e-06
 241    0.00021039468578148
 242    -3.7204107079598e-05
 243    0.00045130198321128
 244    2.5461783797767e-06
 245    -2.5467742499921e-05
 246    -3.5484868050491e-06
 247    -5.1422357738444e-06
 248    5.486956740728e-06
 249    1.5819537511288e-05
 250    -0.0001136796907482
 251    -2.5666905667468e-05
 252    4.0471631644558e-05
 253    -0.0011904512006562
 254    7.6325720125361e-06
 255    -1.7037849658935e-05
 256    1.9692056788849e-05
 257    -0.00011129760202172
 258    -0.00020940968881854
 259    0.0012273767209345
 260    -3.7543287433763e-05
 261    4.4608484080827e-05
 262    2.297393928002e-05
 263    -1.3091106989187e-05
 264    -1.0455040018569e-05
 265    2.8459247160906e-05
 266    -0.00027659212214672
 267    1.0732194026601e-05
 268    9.5492431547316e-05
 269    0.00020384105513493
 270    -0.00041266914390606
 271    -0.010785132204936
 272    -0.0014935832631284
 273    -0.0012258233628588
 274    0.0036292137265846
 275    0.0027072464931279
 276    0.0006631030670103
 277    -0.0011853391558904
 278    0.00066236159478637
 279    -0.0010516849343967
 280    -0.00054703164162854