[Molden Format]
made by pyscf v[2.0.1]
[Atoms] (AU)
C   1   6     0.69100024066471     0.64692934207205    -3.48223131169301
H   2   1     2.68052439830868     1.13355088658700    -3.25784032593313
C   3   6    -0.36286361513219     0.85440132524594    -5.97030179418974
H   4   1    -2.35448549047279     0.36322488579172    -6.17995817793143
C   5   6     0.93697958957450     1.61209284601821    -8.05828437677121
H   6   1     0.96138501035509     3.61074187827952    -8.55401536893531
C   7   6     2.29833572157337    -0.09037665740906    -9.67215882917863
H   8   1     2.25763405404964    -2.08692321364337    -9.15074973557782
H   9   1     1.55630230933075    -1.92953025305990    12.99630010416247
C   10   6     0.75233899775814    -2.21270439606481    11.10705728102219
H   11   1    -0.43433408177274    -3.90944857546550    11.22216085340412
C   12   6     2.86362581178706    -2.63237380607947     9.17926416456045
H   13   1     4.39038949912609    -1.24955421540245     9.49899813497433
H   14   1     3.74629220191363    -4.48798724300892     9.47414880959024
C   15   6     2.02478325613682    -2.42177285709634     6.44560829588644
C   16   6     3.88048732735477    -3.58795445234514     4.61402886975252
C   17   6    -0.18412382258602    -1.30464291234259     5.76021113872346
C   18   6    -2.10044360464350    -0.26837831858460     7.71610340967100
C   19   6    -3.08956938670431     2.35282328359417     6.88693925039594
C   20   6    -4.37372924086464    -2.09766595989678     7.93610724222001
C   21   6    -0.83850430601230     0.06372213486173    10.33002307638377
H   22   1     0.38411922151109     1.74281358582432    10.27380136542181
H   23   1    -2.30980003007874     0.45460143924521    11.73986301809809
H   24   1     4.58527064644668    -5.38706904487420     5.36778158031719
H   25   1     5.54944938085014    -2.37631462192748     4.35398898413318
H   26   1     3.06633019150423    -3.94118377050688     2.75255466040884
H   27   1    -4.17727778763735     2.26573369139522     5.12914900961283
H   28   1    -1.52662344944051     3.68001877445626     6.59540397144508
H   29   1    -4.32916174397830     3.13643051467482     8.35225460090378
H   30   1    -5.32329548508442    -2.36691813602939     6.11583672749896
H   31   1    -5.77989366602257    -1.33896741843465     9.25748940450990
H   32   1    -3.79310905208926    -3.96389819310853     8.61386170102686
C   33   6    -1.01100794811226    -1.06331657314144     3.11929490449947
C   34   6     0.37686231036534    -0.33275864505552     1.09165013605873
H   35   1    -3.01671213906703    -1.40297922279997     2.77827895090944
C   36   6    -0.64382707979370    -0.11591880174385    -1.42063131251064
H   37   1     2.35569259782137     0.17174499283897     1.33641070251401
H   38   1    -2.63317482980319    -0.60229203511219    -1.66119700387645
C   39   6     3.61506927759443     0.57708357993929   -11.76916696671870
C   40   6     4.94068653136927    -1.30276865816170   -13.29098070185656
H   41   1     3.73162541044975     2.53269508104841   -12.39347992177894
O   42   8     6.15625203764207    -0.83635548426311   -15.19510343410387
H   43   1     4.77073908343657    -3.27989237609552   -12.58226454806003
[GTO]
1 0
 s    6 1.00
             3047.5249  0.0018347001629433
             457.36951    0.01403730124668
             103.94869   0.068842606114048
             29.210155    0.23218442062076
              9.286663    0.46794134155879
              3.163927    0.36231203217765
 s    3 1.00
             7.8682724   -0.11933240861517
             1.8812885   -0.16085421161283
             0.5442493     1.1434564825515
 s    1 1.00
             0.1687144                   1
 p    3 1.00
             7.8682724   0.068999095584993
             1.8812885    0.31642397975315
             0.5442493    0.74430825237435
 p    1 1.00
             0.1687144                   1
 d    1 1.00
                   0.8                   1

2 0
 s    3 1.00
             18.731137    0.03349459952309
             2.8253937    0.23472694665786
             0.6401217    0.81375731841339
 s    1 1.00
             0.1612778                   1

3 0
 s    6 1.00
             3047.5249  0.0018347001629433
             457.36951    0.01403730124668
             103.94869   0.068842606114048
             29.210155    0.23218442062076
              9.286663    0.46794134155879
              3.163927    0.36231203217765
 s    3 1.00
             7.8682724   -0.11933240861517
             1.8812885   -0.16085421161283
             0.5442493     1.1434564825515
 s    1 1.00
             0.1687144                   1
 p    3 1.00
             7.8682724   0.068999095584993
             1.8812885    0.31642397975315
             0.5442493    0.74430825237435
 p    1 1.00
             0.1687144                   1
 d    1 1.00
                   0.8                   1

4 0
 s    3 1.00
             18.731137    0.03349459952309
             2.8253937    0.23472694665786
             0.6401217    0.81375731841339
 s    1 1.00
             0.1612778                   1

5 0
 s    6 1.00
             3047.5249  0.0018347001629433
             457.36951    0.01403730124668
             103.94869   0.068842606114048
             29.210155    0.23218442062076
              9.286663    0.46794134155879
              3.163927    0.36231203217765
 s    3 1.00
             7.8682724   -0.11933240861517
             1.8812885   -0.16085421161283
             0.5442493     1.1434564825515
 s    1 1.00
             0.1687144                   1
 p    3 1.00
             7.8682724   0.068999095584993
             1.8812885    0.31642397975315
             0.5442493    0.74430825237435
 p    1 1.00
             0.1687144                   1
 d    1 1.00
                   0.8                   1

6 0
 s    3 1.00
             18.731137    0.03349459952309
             2.8253937    0.23472694665786
             0.6401217    0.81375731841339
 s    1 1.00
             0.1612778                   1

7 0
 s    6 1.00
             3047.5249  0.0018347001629433
             457.36951    0.01403730124668
             103.94869   0.068842606114048
             29.210155    0.23218442062076
              9.286663    0.46794134155879
              3.163927    0.36231203217765
 s    3 1.00
             7.8682724   -0.11933240861517
             1.8812885   -0.16085421161283
             0.5442493     1.1434564825515
 s    1 1.00
             0.1687144                   1
 p    3 1.00
             7.8682724   0.068999095584993
             1.8812885    0.31642397975315
             0.5442493    0.74430825237435
 p    1 1.00
             0.1687144                   1
 d    1 1.00
                   0.8                   1

8 0
 s    3 1.00
             18.731137    0.03349459952309
             2.8253937    0.23472694665786
             0.6401217    0.81375731841339
 s    1 1.00
             0.1612778                   1

9 0
 s    3 1.00
             18.731137    0.03349459952309
             2.8253937    0.23472694665786
             0.6401217    0.81375731841339
 s    1 1.00
             0.1612778                   1

10 0
 s    6 1.00
             3047.5249  0.0018347001629433
             457.36951    0.01403730124668
             103.94869   0.068842606114048
             29.210155    0.23218442062076
              9.286663    0.46794134155879
              3.163927    0.36231203217765
 s    3 1.00
             7.8682724   -0.11933240861517
             1.8812885   -0.16085421161283
             0.5442493     1.1434564825515
 s    1 1.00
             0.1687144                   1
 p    3 1.00
             7.8682724   0.068999095584993
             1.8812885    0.31642397975315
             0.5442493    0.74430825237435
 p    1 1.00
             0.1687144                   1
 d    1 1.00
                   0.8                   1

11 0
 s    3 1.00
             18.731137    0.03349459952309
             2.8253937    0.23472694665786
             0.6401217    0.81375731841339
 s    1 1.00
             0.1612778                   1

12 0
 s    6 1.00
             3047.5249  0.0018347001629433
             457.36951    0.01403730124668
             103.94869   0.068842606114048
             29.210155    0.23218442062076
              9.286663    0.46794134155879
              3.163927    0.36231203217765
 s    3 1.00
             7.8682724   -0.11933240861517
             1.8812885   -0.16085421161283
             0.5442493     1.1434564825515
 s    1 1.00
             0.1687144                   1
 p    3 1.00
             7.8682724   0.068999095584993
             1.8812885    0.31642397975315
             0.5442493    0.74430825237435
 p    1 1.00
             0.1687144                   1
 d    1 1.00
                   0.8                   1

13 0
 s    3 1.00
             18.731137    0.03349459952309
             2.8253937    0.23472694665786
             0.6401217    0.81375731841339
 s    1 1.00
             0.1612778                   1

14 0
 s    3 1.00
             18.731137    0.03349459952309
             2.8253937    0.23472694665786
             0.6401217    0.81375731841339
 s    1 1.00
             0.1612778                   1

15 0
 s    6 1.00
             3047.5249  0.0018347001629433
             457.36951    0.01403730124668
             103.94869   0.068842606114048
             29.210155    0.23218442062076
              9.286663    0.46794134155879
              3.163927    0.36231203217765
 s    3 1.00
             7.8682724   -0.11933240861517
             1.8812885   -0.16085421161283
             0.5442493     1.1434564825515
 s    1 1.00
             0.1687144                   1
 p    3 1.00
             7.8682724   0.068999095584993
             1.8812885    0.31642397975315
             0.5442493    0.74430825237435
 p    1 1.00
             0.1687144                   1
 d    1 1.00
                   0.8                   1

16 0
 s    6 1.00
             3047.5249  0.0018347001629433
             457.36951    0.01403730124668
             103.94869   0.068842606114048
             29.210155    0.23218442062076
              9.286663    0.46794134155879
              3.163927    0.36231203217765
 s    3 1.00
             7.8682724   -0.11933240861517
             1.8812885   -0.16085421161283
             0.5442493     1.1434564825515
 s    1 1.00
             0.1687144                   1
 p    3 1.00
             7.8682724   0.068999095584993
             1.8812885    0.31642397975315
             0.5442493    0.74430825237435
 p    1 1.00
             0.1687144                   1
 d    1 1.00
                   0.8                   1

17 0
 s    6 1.00
             3047.5249  0.0018347001629433
             457.36951    0.01403730124668
             103.94869   0.068842606114048
             29.210155    0.23218442062076
              9.286663    0.46794134155879
              3.163927    0.36231203217765
 s    3 1.00
             7.8682724   -0.11933240861517
             1.8812885   -0.16085421161283
             0.5442493     1.1434564825515
 s    1 1.00
             0.1687144                   1
 p    3 1.00
             7.8682724   0.068999095584993
             1.8812885    0.31642397975315
             0.5442493    0.74430825237435
 p    1 1.00
             0.1687144                   1
 d    1 1.00
                   0.8                   1

18 0
 s    6 1.00
             3047.5249  0.0018347001629433
             457.36951    0.01403730124668
             103.94869   0.068842606114048
             29.210155    0.23218442062076
              9.286663    0.46794134155879
              3.163927    0.36231203217765
 s    3 1.00
             7.8682724   -0.11933240861517
             1.8812885   -0.16085421161283
             0.5442493     1.1434564825515
 s    1 1.00
             0.1687144                   1
 p    3 1.00
             7.8682724   0.068999095584993
             1.8812885    0.31642397975315
             0.5442493    0.74430825237435
 p    1 1.00
             0.1687144                   1
 d    1 1.00
                   0.8                   1

19 0
 s    6 1.00
             3047.5249  0.0018347001629433
             457.36951    0.01403730124668
             103.94869   0.068842606114048
             29.210155    0.23218442062076
              9.286663    0.46794134155879
              3.163927    0.36231203217765
 s    3 1.00
             7.8682724   -0.11933240861517
             1.8812885   -0.16085421161283
             0.5442493     1.1434564825515
 s    1 1.00
             0.1687144                   1
 p    3 1.00
             7.8682724   0.068999095584993
             1.8812885    0.31642397975315
             0.5442493    0.74430825237435
 p    1 1.00
             0.1687144                   1
 d    1 1.00
                   0.8                   1

20 0
 s    6 1.00
             3047.5249  0.0018347001629433
             457.36951    0.01403730124668
             103.94869   0.068842606114048
             29.210155    0.23218442062076
              9.286663    0.46794134155879
              3.163927    0.36231203217765
 s    3 1.00
             7.8682724   -0.11933240861517
             1.8812885   -0.16085421161283
             0.5442493     1.1434564825515
 s    1 1.00
             0.1687144                   1
 p    3 1.00
             7.8682724   0.068999095584993
             1.8812885    0.31642397975315
             0.5442493    0.74430825237435
 p    1 1.00
             0.1687144                   1
 d    1 1.00
                   0.8                   1

21 0
 s    6 1.00
             3047.5249  0.0018347001629433
             457.36951    0.01403730124668
             103.94869   0.068842606114048
             29.210155    0.23218442062076
              9.286663    0.46794134155879
              3.163927    0.36231203217765
 s    3 1.00
             7.8682724   -0.11933240861517
             1.8812885   -0.16085421161283
             0.5442493     1.1434564825515
 s    1 1.00
             0.1687144                   1
 p    3 1.00
             7.8682724   0.068999095584993
             1.8812885    0.31642397975315
             0.5442493    0.74430825237435
 p    1 1.00
             0.1687144                   1
 d    1 1.00
                   0.8                   1

22 0
 s    3 1.00
             18.731137    0.03349459952309
             2.8253937    0.23472694665786
             0.6401217    0.81375731841339
 s    1 1.00
             0.1612778                   1

23 0
 s    3 1.00
             18.731137    0.03349459952309
             2.8253937    0.23472694665786
             0.6401217    0.81375731841339
 s    1 1.00
             0.1612778                   1

24 0
 s    3 1.00
             18.731137    0.03349459952309
             2.8253937    0.23472694665786
             0.6401217    0.81375731841339
 s    1 1.00
             0.1612778                   1

25 0
 s    3 1.00
             18.731137    0.03349459952309
             2.8253937    0.23472694665786
             0.6401217    0.81375731841339
 s    1 1.00
             0.1612778                   1

26 0
 s    3 1.00
             18.731137    0.03349459952309
             2.8253937    0.23472694665786
             0.6401217    0.81375731841339
 s    1 1.00
             0.1612778                   1

27 0
 s    3 1.00
             18.731137    0.03349459952309
             2.8253937    0.23472694665786
             0.6401217    0.81375731841339
 s    1 1.00
             0.1612778                   1

28 0
 s    3 1.00
             18.731137    0.03349459952309
             2.8253937    0.23472694665786
             0.6401217    0.81375731841339
 s    1 1.00
             0.1612778                   1

29 0
 s    3 1.00
             18.731137    0.03349459952309
             2.8253937    0.23472694665786
             0.6401217    0.81375731841339
 s    1 1.00
             0.1612778                   1

30 0
 s    3 1.00
             18.731137    0.03349459952309
             2.8253937    0.23472694665786
             0.6401217    0.81375731841339
 s    1 1.00
             0.1612778                   1

31 0
 s    3 1.00
             18.731137    0.03349459952309
             2.8253937    0.23472694665786
             0.6401217    0.81375731841339
 s    1 1.00
             0.1612778                   1

32 0
 s    3 1.00
             18.731137    0.03349459952309
             2.8253937    0.23472694665786
             0.6401217    0.81375731841339
 s    1 1.00
             0.1612778                   1

33 0
 s    6 1.00
             3047.5249  0.0018347001629433
             457.36951    0.01403730124668
             103.94869   0.068842606114048
             29.210155    0.23218442062076
              9.286663    0.46794134155879
              3.163927    0.36231203217765
 s    3 1.00
             7.8682724   -0.11933240861517
             1.8812885   -0.16085421161283
             0.5442493     1.1434564825515
 s    1 1.00
             0.1687144                   1
 p    3 1.00
             7.8682724   0.068999095584993
             1.8812885    0.31642397975315
             0.5442493    0.74430825237435
 p    1 1.00
             0.1687144                   1
 d    1 1.00
                   0.8                   1

34 0
 s    6 1.00
             3047.5249  0.0018347001629433
             457.36951    0.01403730124668
             103.94869   0.068842606114048
             29.210155    0.23218442062076
              9.286663    0.46794134155879
              3.163927    0.36231203217765
 s    3 1.00
             7.8682724   -0.11933240861517
             1.8812885   -0.16085421161283
             0.5442493     1.1434564825515
 s    1 1.00
             0.1687144                   1
 p    3 1.00
             7.8682724   0.068999095584993
             1.8812885    0.31642397975315
             0.5442493    0.74430825237435
 p    1 1.00
             0.1687144                   1
 d    1 1.00
                   0.8                   1

35 0
 s    3 1.00
             18.731137    0.03349459952309
             2.8253937    0.23472694665786
             0.6401217    0.81375731841339
 s    1 1.00
             0.1612778                   1

36 0
 s    6 1.00
             3047.5249  0.0018347001629433
             457.36951    0.01403730124668
             103.94869   0.068842606114048
             29.210155    0.23218442062076
              9.286663    0.46794134155879
              3.163927    0.36231203217765
 s    3 1.00
             7.8682724   -0.11933240861517
             1.8812885   -0.16085421161283
             0.5442493     1.1434564825515
 s    1 1.00
             0.1687144                   1
 p    3 1.00
             7.8682724   0.068999095584993
             1.8812885    0.31642397975315
             0.5442493    0.74430825237435
 p    1 1.00
             0.1687144                   1
 d    1 1.00
                   0.8                   1

37 0
 s    3 1.00
             18.731137    0.03349459952309
             2.8253937    0.23472694665786
             0.6401217    0.81375731841339
 s    1 1.00
             0.1612778                   1

38 0
 s    3 1.00
             18.731137    0.03349459952309
             2.8253937    0.23472694665786
             0.6401217    0.81375731841339
 s    1 1.00
             0.1612778                   1

39 0
 s    6 1.00
             3047.5249  0.0018347001629433
             457.36951    0.01403730124668
             103.94869   0.068842606114048
             29.210155    0.23218442062076
              9.286663    0.46794134155879
              3.163927    0.36231203217765
 s    3 1.00
             7.8682724   -0.11933240861517
             1.8812885   -0.16085421161283
             0.5442493     1.1434564825515
 s    1 1.00
             0.1687144                   1
 p    3 1.00
             7.8682724   0.068999095584993
             1.8812885    0.31642397975315
             0.5442493    0.74430825237435
 p    1 1.00
             0.1687144                   1
 d    1 1.00
                   0.8                   1

40 0
 s    6 1.00
             3047.5249  0.0018347001629433
             457.36951    0.01403730124668
             103.94869   0.068842606114048
             29.210155    0.23218442062076
              9.286663    0.46794134155879
              3.163927    0.36231203217765
 s    3 1.00
             7.8682724   -0.11933240861517
             1.8812885   -0.16085421161283
             0.5442493     1.1434564825515
 s    1 1.00
             0.1687144                   1
 p    3 1.00
             7.8682724   0.068999095584993
             1.8812885    0.31642397975315
             0.5442493    0.74430825237435
 p    1 1.00
             0.1687144                   1
 d    1 1.00
                   0.8                   1

41 0
 s    3 1.00
             18.731137    0.03349459952309
             2.8253937    0.23472694665786
             0.6401217    0.81375731841339
 s    1 1.00
             0.1612778                   1

42 0
 s    6 1.00
             5484.6717   0.001831099805527
             825.23495   0.013950098518422
             188.04696    0.06844509273075
               52.9645    0.23271427528445
              16.89757    0.47019295006289
             5.7996353    0.35852086192309
 s    3 1.00
             15.539616   -0.11077750382508
             3.5999336   -0.14802630511126
             1.0137618     1.1307670390447
 s    1 1.00
             0.2700058                   1
 p    3 1.00
             15.539616   0.070874299543311
             3.5999336    0.33975279781076
             1.0137618    0.72715859531445
 p    1 1.00
             0.2700058                   1
 d    1 1.00
                   0.8                   1

43 0
 s    3 1.00
             18.731137    0.03349459952309
             2.8253937    0.23472694665786
             0.6401217    0.81375731841339
 s    1 1.00
             0.1612778                   1

[5d]
[7f]
[9g]

[MO]
 Sym= A
 Ene=               0
 Spin= Alpha
 Occup=    1.00000
   1     0.018630598145532
   2    -0.00090101724563804
   3    0.0069374495198757
   4    0.00035753413130708
   5    -0.00014618849128238
   6    0.0011519365620882
   7    0.00081853283228414
   8    0.0013001101374856
   9    -0.0055454340842706
  10    -0.00090524662849036
  11    -0.00086634264610056
  12    0.00014805711097588
  13    -0.0001960800737754
  14    4.7705148986499e-05
  15    -0.00044804315829013
  16    -0.00082507845511567
  17       0.9949072593485
  18     0.036821868331115
  19      -0.0286623647681
  20    0.00092904630448652
  21    0.00018639864971127
  22    -0.00060626842259518
  23    -0.0036363398340383
  24    -0.0010934164706031
  25    -0.00080153723035493
  26    0.00076722651454245
  27    -0.00030284299275345
  28    -0.00034545181115002
  29    0.00029902002899309
  30    0.00020404304307051
  31    -0.0011266654410623
  32    0.0038584776712217
  33     0.012869445426106
  34    -0.00024279027403817
  35    0.0010746039980721
  36    0.00083077256908916
  37    0.00030869003627748
  38    -0.0011140085129177
  39    -0.0024727761775077
  40    0.0034861107601188
  41    0.0040235927353981
  42    -0.00059172113949536
  43    0.0011794002608524
  44    0.00046827432184899
  45    -0.00034898657314314
  46    -0.00036130563583655
  47    -0.0005510616363178
  48    -0.000601584912349
  49    0.00019077217135718
  50    -0.0005256971572174
  51    0.00027547541027021
  52    0.00027178520597345
  53    1.3673646085773e-05
  54    -0.00039663972934328
  55    -0.0049701820745172
  56    0.0010777153874062
  57    0.0069078313582135
  58    -0.00015079207667294
  59    -2.1157430155303e-05
  60    0.00015622203013648
  61    -0.00022315594308011
  62    -0.00020833841382575
  63    -0.00049351265050121
  64    0.00020589515694913
  65    -4.0638174360306e-06
  66    -5.2119088785997e-06
  67    8.3908070956092e-07
  68    -3.7107621779598e-06
  69    5.2845903537654e-06
  70    2.3075869812536e-06
  71    -5.6048666893552e-06
  72    1.0401381316014e-06
  73    9.1350121312115e-06
  74    2.4650298791952e-05
  75    5.5817308858715e-06
  76    -5.3536586989207e-07
  77    -5.36887066665e-07
  78    6.2450855474612e-07
  79    5.9594137893961e-07
  80    -7.406672194716e-08
  81    2.8944521248032e-06
  82    1.406514281761e-05
  83    1.9070161183028e-06
  84    -1.9860506917121e-06
  85    -8.7992205105798e-05
  86    9.5846017878564e-06
  87    2.4822149813819e-06
  88    1.6576043079465e-05
  89    2.9214375300521e-05
  90    -6.2939578633449e-05
  91    2.3494573532392e-05
  92    1.1228864644815e-06
  93    -2.2593109736827e-06
  94    4.1899383988314e-06
  95    -3.6414838044117e-07
  96    -7.256036684448e-07
  97    1.1912987814721e-05
  98    2.0825614171877e-05
  99    -2.3791187255011e-06
 100    -1.8607505631237e-05
 101    -3.0661331344978e-06
 102    -8.5640843222457e-06
 103    0.00020837865096106
 104    -1.5001224309326e-05
 105    -1.9785103759189e-05
 106    -5.7995926141797e-06
 107    -0.00020365842391356
 108    0.0001708358991738
 109    0.00017128547791204
 110    -7.3401891975007e-06
 111    -2.8515265500282e-06
 112    1.1028367111889e-06
 113    2.0355420751831e-06
 114    -5.7249402338466e-06
 115    -5.9219349817567e-06
 116    -2.9261940270148e-05
 117    0.0002605298270115
 118    -5.7191846800863e-06
 119    8.5031796494655e-06
 120    1.0276363905108e-05
 121    -6.1983556216216e-05
 122    2.5808609884477e-05
 123    3.9968248766815e-05
 124    8.8648393284111e-07
 125    -3.3453185324108e-06
 126    -2.4102964152863e-06
 127    1.4627176672452e-06
 128    -2.0474280834201e-06
 129    7.3480310573935e-06
 130    -7.6346599756297e-05
 131    0.00013503065161367
 132    2.0497892959629e-05
 133    -2.0446933163843e-06
 134    9.9173935209196e-05
 135    -0.00031710542554984
 136    3.1297941604028e-05
 137    -0.0004210475813114
 138    1.2788923377915e-05
 139    8.5020612626301e-06
 140    3.7670416884941e-06
 141    3.2107112748694e-06
 142    5.3831302225983e-06
 143    -1.038683296933e-05
 144    -1.1696152439809e-05
 145    9.7307407274568e-05
 146    1.9802858003949e-05
 147    -9.424937673167e-06
 148    -1.9410433383511e-05
 149    5.3051056854593e-05
 150    -2.8507033851666e-05
 151    -6.5504738008382e-05
 152    -9.3408534248082e-06
 153    -4.9156193899359e-06
 154    -2.7660832617945e-06
 155    4.9760556479137e-06
 156    -5.4165477195285e-06
 157    6.4676519015732e-07
 158    1.3422969125773e-05
 159    -2.0820210714199e-05
 160    6.6768815532726e-06
 161    -2.9800212426392e-06
 162    1.6980443721597e-06
 163    -4.9658065729031e-05
 164    1.6141442896179e-05
 165    1.3863618470704e-05
 166    3.4572152019231e-06
 167    -1.3176408408602e-06
 168    2.750974959729e-07
 169    3.4691849692192e-07
 170    1.3130213493268e-06
 171    -1.4394190071713e-06
 172    -1.0671069919861e-05
 173    2.3298625053118e-05
 174    -2.5535847829131e-06
 175    1.5782266939309e-06
 176    9.9446636240787e-06
 177    -1.0024896271059e-05
 178    1.9397412671325e-06
 179    -3.1822653295787e-05
 180    1.1920675528465e-06
 181    3.5161078466746e-06
 182    3.017558551775e-07
 183    -8.1348506115082e-07
 184    1.4934152419113e-06
 185    3.1042752080272e-07
 186    -3.3881388136544e-05
 187    4.2419686026161e-05
 188    2.6974937106889e-06
 189    4.1996876347946e-06
 190    2.3129232704732e-05
 191    8.2348826032851e-06
 192    -4.3332210381489e-06
 193    -4.836667064654e-05
 194    3.6580942292917e-06
 195    2.730107585395e-07
 196    3.0195688119239e-06
 197    -5.202713372234e-07
 198    2.4504843206032e-07
 199    -7.057632958026e-06
 200    -8.1341623743734e-07
 201    4.5785484212545e-06
 202    3.5108852411827e-05
 203    -1.3043126557411e-05
 204    -5.9208341224443e-06
 205    2.8106068009611e-06
 206    -2.2213840127014e-05
 207    6.3148872652074e-06
 208    -6.2388279733581e-05
 209    6.8485891649903e-06
 210    -3.1102917151859e-05
 211    5.1710841661944e-06
 212    1.5632212954915e-05
 213    2.3062864790986e-06
 214    -1.5648499840678e-05
 215    -5.3902500460509e-06
 216    -4.2057326430968e-05
 217    4.1033105069192e-06
 218    1.392235705373e-05
 219    -1.5224572487768e-07
 220    1.8991026358248e-06
 221    -8.7525785008905e-05
 222    7.4316294473021e-05
 223    0.00089594289269596
 224    0.00010066777728849
 225    5.8197441853353e-05
 226    -0.00020657905214247
 227    0.00061770914485389
 228    0.0003124464535729
 229    -0.00097676658918991
 230    -1.8351852786972e-06
 231    -4.5839051981557e-05
 232    -1.9906903462104e-05
 233    2.4030226074638e-05
 234    2.3312955840041e-05
 235    0.00014325570223971
 236    -0.00032024061324538
 237    -0.00050505910292765
 238    -0.00020417082641637
 239    -0.00016739292230218
 240    0.00055060109298722
 241    0.00020885613330411
 242    0.00026358950690044
 243    -0.0012544705313775
 244    2.1513463999106e-06
 245    5.5625665625271e-05
 246    1.3231442708332e-05
 247    1.1942114535489e-05
 248    -3.0660669688065e-06
 249    -1.7460789098383e-05
 250    0.00028387472195821
 251    -0.00034317679206317
 252    -0.00044502226821802
 253    0.0021265666987083
 254    -0.0004938510509762
 255    -0.00011347110782636
 256    -0.00020063340839116
 257    -0.0001652044503112
 258    0.00034207802279873
 259    -0.0018383999551448
 260    -7.6317743026243e-05
 261    -3.1046975476563e-05
 262    -1.5695118591129e-05
 263    0.00014629140256333
 264    8.9102077308113e-05
 265    -0.00025426672869015
 266    0.00014778483979093
 267    0.00022204068393512
 268    -0.00019769707955284
 269    -1.9125340141357e-05
 270    -0.00050051010614957
 271    0.0067063966979331
 272    -1.7026352107407e-05
 273    -0.00015209207111554
 274    8.2954584700272e-05
 275    -0.0014172114949534
 276    -0.0028301499826915
 277    0.0026817848863543
 278    8.6088169329841e-05
 279    -0.0001743425366676
 280    -8.6659432727211e-05
 281    -2.283527590348e-05