[Molden Format]
made by pyscf v[2.0.1]
[Atoms] (AU)
C   1   6     0.69100024066471     0.64692934207205    -3.48223131169301
H   2   1     2.68052439830868     1.13355088658700    -3.25784032593313
C   3   6    -0.36286361513219     0.85440132524594    -5.97030179418974
H   4   1    -2.35448549047279     0.36322488579172    -6.17995817793143
C   5   6     0.93697958957450     1.61209284601821    -8.05828437677121
H   6   1     1.06549067678056     3.62267689696451    -8.48487489511106
C   7   6     2.16736557798100    -0.10534186648568    -9.75912299477448
H   8   1     2.02320928491733    -2.11383137749881    -9.30645195914250
H   9   1     1.55630230933075    -1.92953025305990    12.99630010416247
C   10   6     0.75233899775814    -2.21270439606481    11.10705728102219
H   11   1    -0.43433408177274    -3.90944857546550    11.22216085340412
C   12   6     2.86362581178706    -2.63237380607947     9.17926416456045
H   13   1     4.39038949912609    -1.24955421540245     9.49899813497433
H   14   1     3.74629220191363    -4.48798724300892     9.47414880959024
C   15   6     2.02478325613682    -2.42177285709634     6.44560829588644
C   16   6     3.88048732735477    -3.58795445234514     4.61402886975252
C   17   6    -0.18412382258602    -1.30464291234259     5.76021113872346
C   18   6    -2.10044360464350    -0.26837831858460     7.71610340967100
C   19   6    -3.08956938670431     2.35282328359417     6.88693925039594
C   20   6    -4.37372924086464    -2.09766595989678     7.93610724222001
C   21   6    -0.83850430601230     0.06372213486173    10.33002307638377
H   22   1     0.38411922151109     1.74281358582432    10.27380136542181
H   23   1    -2.30980003007874     0.45460143924521    11.73986301809809
H   24   1     4.58527064644668    -5.38706904487420     5.36778158031719
H   25   1     5.54944938085014    -2.37631462192748     4.35398898413318
H   26   1     3.06633019150423    -3.94118377050688     2.75255466040884
H   27   1    -4.17727778763735     2.26573369139522     5.12914900961283
H   28   1    -1.52662344944051     3.68001877445626     6.59540397144508
H   29   1    -4.32916174397830     3.13643051467482     8.35225460090378
H   30   1    -5.32329548508442    -2.36691813602939     6.11583672749896
H   31   1    -5.77989366602257    -1.33896741843465     9.25748940450990
H   32   1    -3.79310905208926    -3.96389819310853     8.61386170102686
C   33   6    -1.01100794811226    -1.06331657314144     3.11929490449947
C   34   6     0.37686231036534    -0.33275864505552     1.09165013605873
H   35   1    -3.01671213906703    -1.40297922279997     2.77827895090944
C   36   6    -0.64382707979370    -0.11591880174385    -1.42063131251064
H   37   1     2.35569259782137     0.17174499283897     1.33641070251401
H   38   1    -2.63317482980319    -0.60229203511219    -1.66119700387645
C   39   6     3.47875288242203     0.56169257871714   -11.85961387583028
C   40   6     4.66516051155728    -1.33401759756945   -13.47384510134906
H   41   1     3.69428385946791     2.52875803282145   -12.41815504578381
O   42   8     5.86788117255002    -0.86880199432758   -15.38639878207248
H   43   1     4.39675898316744    -3.32256790318547   -12.83056660829343
[GTO]
1 0
 s    6 1.00
             3047.5249  0.0018347001629433
             457.36951    0.01403730124668
             103.94869   0.068842606114048
             29.210155    0.23218442062076
              9.286663    0.46794134155879
              3.163927    0.36231203217765
 s    3 1.00
             7.8682724   -0.11933240861517
             1.8812885   -0.16085421161283
             0.5442493     1.1434564825515
 s    1 1.00
             0.1687144                   1
 p    3 1.00
             7.8682724   0.068999095584993
             1.8812885    0.31642397975315
             0.5442493    0.74430825237435
 p    1 1.00
             0.1687144                   1
 d    1 1.00
                   0.8                   1

2 0
 s    3 1.00
             18.731137    0.03349459952309
             2.8253937    0.23472694665786
             0.6401217    0.81375731841339
 s    1 1.00
             0.1612778                   1

3 0
 s    6 1.00
             3047.5249  0.0018347001629433
             457.36951    0.01403730124668
             103.94869   0.068842606114048
             29.210155    0.23218442062076
              9.286663    0.46794134155879
              3.163927    0.36231203217765
 s    3 1.00
             7.8682724   -0.11933240861517
             1.8812885   -0.16085421161283
             0.5442493     1.1434564825515
 s    1 1.00
             0.1687144                   1
 p    3 1.00
             7.8682724   0.068999095584993
             1.8812885    0.31642397975315
             0.5442493    0.74430825237435
 p    1 1.00
             0.1687144                   1
 d    1 1.00
                   0.8                   1

4 0
 s    3 1.00
             18.731137    0.03349459952309
             2.8253937    0.23472694665786
             0.6401217    0.81375731841339
 s    1 1.00
             0.1612778                   1

5 0
 s    6 1.00
             3047.5249  0.0018347001629433
             457.36951    0.01403730124668
             103.94869   0.068842606114048
             29.210155    0.23218442062076
              9.286663    0.46794134155879
              3.163927    0.36231203217765
 s    3 1.00
             7.8682724   -0.11933240861517
             1.8812885   -0.16085421161283
             0.5442493     1.1434564825515
 s    1 1.00
             0.1687144                   1
 p    3 1.00
             7.8682724   0.068999095584993
             1.8812885    0.31642397975315
             0.5442493    0.74430825237435
 p    1 1.00
             0.1687144                   1
 d    1 1.00
                   0.8                   1

6 0
 s    3 1.00
             18.731137    0.03349459952309
             2.8253937    0.23472694665786
             0.6401217    0.81375731841339
 s    1 1.00
             0.1612778                   1

7 0
 s    6 1.00
             3047.5249  0.0018347001629433
             457.36951    0.01403730124668
             103.94869   0.068842606114048
             29.210155    0.23218442062076
              9.286663    0.46794134155879
              3.163927    0.36231203217765
 s    3 1.00
             7.8682724   -0.11933240861517
             1.8812885   -0.16085421161283
             0.5442493     1.1434564825515
 s    1 1.00
             0.1687144                   1
 p    3 1.00
             7.8682724   0.068999095584993
             1.8812885    0.31642397975315
             0.5442493    0.74430825237435
 p    1 1.00
             0.1687144                   1
 d    1 1.00
                   0.8                   1

8 0
 s    3 1.00
             18.731137    0.03349459952309
             2.8253937    0.23472694665786
             0.6401217    0.81375731841339
 s    1 1.00
             0.1612778                   1

9 0
 s    3 1.00
             18.731137    0.03349459952309
             2.8253937    0.23472694665786
             0.6401217    0.81375731841339
 s    1 1.00
             0.1612778                   1

10 0
 s    6 1.00
             3047.5249  0.0018347001629433
             457.36951    0.01403730124668
             103.94869   0.068842606114048
             29.210155    0.23218442062076
              9.286663    0.46794134155879
              3.163927    0.36231203217765
 s    3 1.00
             7.8682724   -0.11933240861517
             1.8812885   -0.16085421161283
             0.5442493     1.1434564825515
 s    1 1.00
             0.1687144                   1
 p    3 1.00
             7.8682724   0.068999095584993
             1.8812885    0.31642397975315
             0.5442493    0.74430825237435
 p    1 1.00
             0.1687144                   1
 d    1 1.00
                   0.8                   1

11 0
 s    3 1.00
             18.731137    0.03349459952309
             2.8253937    0.23472694665786
             0.6401217    0.81375731841339
 s    1 1.00
             0.1612778                   1

12 0
 s    6 1.00
             3047.5249  0.0018347001629433
             457.36951    0.01403730124668
             103.94869   0.068842606114048
             29.210155    0.23218442062076
              9.286663    0.46794134155879
              3.163927    0.36231203217765
 s    3 1.00
             7.8682724   -0.11933240861517
             1.8812885   -0.16085421161283
             0.5442493     1.1434564825515
 s    1 1.00
             0.1687144                   1
 p    3 1.00
             7.8682724   0.068999095584993
             1.8812885    0.31642397975315
             0.5442493    0.74430825237435
 p    1 1.00
             0.1687144                   1
 d    1 1.00
                   0.8                   1

13 0
 s    3 1.00
             18.731137    0.03349459952309
             2.8253937    0.23472694665786
             0.6401217    0.81375731841339
 s    1 1.00
             0.1612778                   1

14 0
 s    3 1.00
             18.731137    0.03349459952309
             2.8253937    0.23472694665786
             0.6401217    0.81375731841339
 s    1 1.00
             0.1612778                   1

15 0
 s    6 1.00
             3047.5249  0.0018347001629433
             457.36951    0.01403730124668
             103.94869   0.068842606114048
             29.210155    0.23218442062076
              9.286663    0.46794134155879
              3.163927    0.36231203217765
 s    3 1.00
             7.8682724   -0.11933240861517
             1.8812885   -0.16085421161283
             0.5442493     1.1434564825515
 s    1 1.00
             0.1687144                   1
 p    3 1.00
             7.8682724   0.068999095584993
             1.8812885    0.31642397975315
             0.5442493    0.74430825237435
 p    1 1.00
             0.1687144                   1
 d    1 1.00
                   0.8                   1

16 0
 s    6 1.00
             3047.5249  0.0018347001629433
             457.36951    0.01403730124668
             103.94869   0.068842606114048
             29.210155    0.23218442062076
              9.286663    0.46794134155879
              3.163927    0.36231203217765
 s    3 1.00
             7.8682724   -0.11933240861517
             1.8812885   -0.16085421161283
             0.5442493     1.1434564825515
 s    1 1.00
             0.1687144                   1
 p    3 1.00
             7.8682724   0.068999095584993
             1.8812885    0.31642397975315
             0.5442493    0.74430825237435
 p    1 1.00
             0.1687144                   1
 d    1 1.00
                   0.8                   1

17 0
 s    6 1.00
             3047.5249  0.0018347001629433
             457.36951    0.01403730124668
             103.94869   0.068842606114048
             29.210155    0.23218442062076
              9.286663    0.46794134155879
              3.163927    0.36231203217765
 s    3 1.00
             7.8682724   -0.11933240861517
             1.8812885   -0.16085421161283
             0.5442493     1.1434564825515
 s    1 1.00
             0.1687144                   1
 p    3 1.00
             7.8682724   0.068999095584993
             1.8812885    0.31642397975315
             0.5442493    0.74430825237435
 p    1 1.00
             0.1687144                   1
 d    1 1.00
                   0.8                   1

18 0
 s    6 1.00
             3047.5249  0.0018347001629433
             457.36951    0.01403730124668
             103.94869   0.068842606114048
             29.210155    0.23218442062076
              9.286663    0.46794134155879
              3.163927    0.36231203217765
 s    3 1.00
             7.8682724   -0.11933240861517
             1.8812885   -0.16085421161283
             0.5442493     1.1434564825515
 s    1 1.00
             0.1687144                   1
 p    3 1.00
             7.8682724   0.068999095584993
             1.8812885    0.31642397975315
             0.5442493    0.74430825237435
 p    1 1.00
             0.1687144                   1
 d    1 1.00
                   0.8                   1

19 0
 s    6 1.00
             3047.5249  0.0018347001629433
             457.36951    0.01403730124668
             103.94869   0.068842606114048
             29.210155    0.23218442062076
              9.286663    0.46794134155879
              3.163927    0.36231203217765
 s    3 1.00
             7.8682724   -0.11933240861517
             1.8812885   -0.16085421161283
             0.5442493     1.1434564825515
 s    1 1.00
             0.1687144                   1
 p    3 1.00
             7.8682724   0.068999095584993
             1.8812885    0.31642397975315
             0.5442493    0.74430825237435
 p    1 1.00
             0.1687144                   1
 d    1 1.00
                   0.8                   1

20 0
 s    6 1.00
             3047.5249  0.0018347001629433
             457.36951    0.01403730124668
             103.94869   0.068842606114048
             29.210155    0.23218442062076
              9.286663    0.46794134155879
              3.163927    0.36231203217765
 s    3 1.00
             7.8682724   -0.11933240861517
             1.8812885   -0.16085421161283
             0.5442493     1.1434564825515
 s    1 1.00
             0.1687144                   1
 p    3 1.00
             7.8682724   0.068999095584993
             1.8812885    0.31642397975315
             0.5442493    0.74430825237435
 p    1 1.00
             0.1687144                   1
 d    1 1.00
                   0.8                   1

21 0
 s    6 1.00
             3047.5249  0.0018347001629433
             457.36951    0.01403730124668
             103.94869   0.068842606114048
             29.210155    0.23218442062076
              9.286663    0.46794134155879
              3.163927    0.36231203217765
 s    3 1.00
             7.8682724   -0.11933240861517
             1.8812885   -0.16085421161283
             0.5442493     1.1434564825515
 s    1 1.00
             0.1687144                   1
 p    3 1.00
             7.8682724   0.068999095584993
             1.8812885    0.31642397975315
             0.5442493    0.74430825237435
 p    1 1.00
             0.1687144                   1
 d    1 1.00
                   0.8                   1

22 0
 s    3 1.00
             18.731137    0.03349459952309
             2.8253937    0.23472694665786
             0.6401217    0.81375731841339
 s    1 1.00
             0.1612778                   1

23 0
 s    3 1.00
             18.731137    0.03349459952309
             2.8253937    0.23472694665786
             0.6401217    0.81375731841339
 s    1 1.00
             0.1612778                   1

24 0
 s    3 1.00
             18.731137    0.03349459952309
             2.8253937    0.23472694665786
             0.6401217    0.81375731841339
 s    1 1.00
             0.1612778                   1

25 0
 s    3 1.00
             18.731137    0.03349459952309
             2.8253937    0.23472694665786
             0.6401217    0.81375731841339
 s    1 1.00
             0.1612778                   1

26 0
 s    3 1.00
             18.731137    0.03349459952309
             2.8253937    0.23472694665786
             0.6401217    0.81375731841339
 s    1 1.00
             0.1612778                   1

27 0
 s    3 1.00
             18.731137    0.03349459952309
             2.8253937    0.23472694665786
             0.6401217    0.81375731841339
 s    1 1.00
             0.1612778                   1

28 0
 s    3 1.00
             18.731137    0.03349459952309
             2.8253937    0.23472694665786
             0.6401217    0.81375731841339
 s    1 1.00
             0.1612778                   1

29 0
 s    3 1.00
             18.731137    0.03349459952309
             2.8253937    0.23472694665786
             0.6401217    0.81375731841339
 s    1 1.00
             0.1612778                   1

30 0
 s    3 1.00
             18.731137    0.03349459952309
             2.8253937    0.23472694665786
             0.6401217    0.81375731841339
 s    1 1.00
             0.1612778                   1

31 0
 s    3 1.00
             18.731137    0.03349459952309
             2.8253937    0.23472694665786
             0.6401217    0.81375731841339
 s    1 1.00
             0.1612778                   1

32 0
 s    3 1.00
             18.731137    0.03349459952309
             2.8253937    0.23472694665786
             0.6401217    0.81375731841339
 s    1 1.00
             0.1612778                   1

33 0
 s    6 1.00
             3047.5249  0.0018347001629433
             457.36951    0.01403730124668
             103.94869   0.068842606114048
             29.210155    0.23218442062076
              9.286663    0.46794134155879
              3.163927    0.36231203217765
 s    3 1.00
             7.8682724   -0.11933240861517
             1.8812885   -0.16085421161283
             0.5442493     1.1434564825515
 s    1 1.00
             0.1687144                   1
 p    3 1.00
             7.8682724   0.068999095584993
             1.8812885    0.31642397975315
             0.5442493    0.74430825237435
 p    1 1.00
             0.1687144                   1
 d    1 1.00
                   0.8                   1

34 0
 s    6 1.00
             3047.5249  0.0018347001629433
             457.36951    0.01403730124668
             103.94869   0.068842606114048
             29.210155    0.23218442062076
              9.286663    0.46794134155879
              3.163927    0.36231203217765
 s    3 1.00
             7.8682724   -0.11933240861517
             1.8812885   -0.16085421161283
             0.5442493     1.1434564825515
 s    1 1.00
             0.1687144                   1
 p    3 1.00
             7.8682724   0.068999095584993
             1.8812885    0.31642397975315
             0.5442493    0.74430825237435
 p    1 1.00
             0.1687144                   1
 d    1 1.00
                   0.8                   1

35 0
 s    3 1.00
             18.731137    0.03349459952309
             2.8253937    0.23472694665786
             0.6401217    0.81375731841339
 s    1 1.00
             0.1612778                   1

36 0
 s    6 1.00
             3047.5249  0.0018347001629433
             457.36951    0.01403730124668
             103.94869   0.068842606114048
             29.210155    0.23218442062076
              9.286663    0.46794134155879
              3.163927    0.36231203217765
 s    3 1.00
             7.8682724   -0.11933240861517
             1.8812885   -0.16085421161283
             0.5442493     1.1434564825515
 s    1 1.00
             0.1687144                   1
 p    3 1.00
             7.8682724   0.068999095584993
             1.8812885    0.31642397975315
             0.5442493    0.74430825237435
 p    1 1.00
             0.1687144                   1
 d    1 1.00
                   0.8                   1

37 0
 s    3 1.00
             18.731137    0.03349459952309
             2.8253937    0.23472694665786
             0.6401217    0.81375731841339
 s    1 1.00
             0.1612778                   1

38 0
 s    3 1.00
             18.731137    0.03349459952309
             2.8253937    0.23472694665786
             0.6401217    0.81375731841339
 s    1 1.00
             0.1612778                   1

39 0
 s    6 1.00
             3047.5249  0.0018347001629433
             457.36951    0.01403730124668
             103.94869   0.068842606114048
             29.210155    0.23218442062076
              9.286663    0.46794134155879
              3.163927    0.36231203217765
 s    3 1.00
             7.8682724   -0.11933240861517
             1.8812885   -0.16085421161283
             0.5442493     1.1434564825515
 s    1 1.00
             0.1687144                   1
 p    3 1.00
             7.8682724   0.068999095584993
             1.8812885    0.31642397975315
             0.5442493    0.74430825237435
 p    1 1.00
             0.1687144                   1
 d    1 1.00
                   0.8                   1

40 0
 s    6 1.00
             3047.5249  0.0018347001629433
             457.36951    0.01403730124668
             103.94869   0.068842606114048
             29.210155    0.23218442062076
              9.286663    0.46794134155879
              3.163927    0.36231203217765
 s    3 1.00
             7.8682724   -0.11933240861517
             1.8812885   -0.16085421161283
             0.5442493     1.1434564825515
 s    1 1.00
             0.1687144                   1
 p    3 1.00
             7.8682724   0.068999095584993
             1.8812885    0.31642397975315
             0.5442493    0.74430825237435
 p    1 1.00
             0.1687144                   1
 d    1 1.00
                   0.8                   1

41 0
 s    3 1.00
             18.731137    0.03349459952309
             2.8253937    0.23472694665786
             0.6401217    0.81375731841339
 s    1 1.00
             0.1612778                   1

42 0
 s    6 1.00
             5484.6717   0.001831099805527
             825.23495   0.013950098518422
             188.04696    0.06844509273075
               52.9645    0.23271427528445
              16.89757    0.47019295006289
             5.7996353    0.35852086192309
 s    3 1.00
             15.539616   -0.11077750382508
             3.5999336   -0.14802630511126
             1.0137618     1.1307670390447
 s    1 1.00
             0.2700058                   1
 p    3 1.00
             15.539616   0.070874299543311
             3.5999336    0.33975279781076
             1.0137618    0.72715859531445
 p    1 1.00
             0.2700058                   1
 d    1 1.00
                   0.8                   1

43 0
 s    3 1.00
             18.731137    0.03349459952309
             2.8253937    0.23472694665786
             0.6401217    0.81375731841339
 s    1 1.00
             0.1612778                   1

[5d]
[7f]
[9g]

[MO]
 Sym= A
 Ene=               0
 Spin= Alpha
 Occup=    1.00000
   1     0.018050033365129
   2    -0.0009261823442777
   3     0.006922574076562
   4    0.00035137272903143
   5    -0.00012112300759514
   6    0.0011608663331384
   7    0.00081910579121558
   8    0.0012419389073844
   9    -0.0055149532060362
  10    -0.00091185803478391
  11    -0.00086330074840116
  12    0.00014570084076731
  13    -0.00019636352883607
  14    4.5304287993194e-05
  15    -0.00044951656045459
  16    -0.0008188499409123
  17      0.99491043620692
  18     0.036812516146076
  19    -0.028623010729504
  20    0.00091501246309418
  21    0.00015767109000786
  22    -0.00060855988685545
  23    -0.0035865256773768
  24    -0.0010715322431372
  25    -0.00079066498237608
  26    0.00077433192076592
  27    -0.00029890555723469
  28    -0.00034320833292064
  29    0.00029923042897798
  30    0.00019905670978739
  31    -0.0011176581212017
  32    0.0038811624153606
  33     0.013348681690288
  34    -0.00022517243390921
  35    0.0010358197360432
  36    0.00082715783430181
  37    0.00030666758287392
  38    -0.0011185278146873
  39    -0.0022606760086102
  40    0.0035210339242772
  41    0.0041818523049644
  42    -0.00060833934920819
  43    0.0011722082819846
  44    0.00044812574999161
  45    -0.00033525892344417
  46    -0.00038377797528611
  47    -0.00054818591819725
  48    -0.00061044071938541
  49    0.00022232933756221
  50    -0.0005309633077749
  51    0.00035016429910322
  52    0.00024900332615457
  53    7.9922874616201e-06
  54    -0.00041374532244558
  55    -0.0046770620684274
  56    0.0011398994196842
  57    0.0070648323123125
  58    -0.00013858694100754
  59    -1.8636141939802e-05
  60    0.00017784227476155
  61    -0.00023834412133611
  62    -0.00017518119343263
  63    -0.0004926444298155
  64    0.00020983537900236
  65    -4.0084401499292e-06
  66    -5.2515458505257e-06
  67    8.1461551991299e-07
  68    -3.7647865831111e-06
  69    6.1428565695645e-06
  70    2.257574260278e-06
  71    -5.5810675941913e-06
  72    1.1442105982825e-06
  73    8.9364956691795e-06
  74    2.406757940537e-05
  75    5.7036345198214e-06
  76    -5.2636932091737e-07
  77    -5.5770471279157e-07
  78     6.36462505914e-07
  79    6.0404413928036e-07
  80    -7.6271256660715e-08
  81    2.8584191020281e-06
  82    1.3656317267673e-05
  83    1.826172967934e-06
  84    -1.7514664259095e-06
  85    -8.6682523925333e-05
  86    9.6046422992922e-06
  87    2.7022181846031e-06
  88    1.6069160651693e-05
  89    2.9820668518669e-05
  90    -6.2404026759346e-05
  91    2.2328347140948e-05
  92    1.1259676620848e-06
  93    -2.3077858870456e-06
  94    4.1509940083672e-06
  95    -3.8726898421565e-07
  96    -7.1705208582388e-07
  97    1.1828356953849e-05
  98    2.0134771948503e-05
  99    -2.3862509899235e-06
 100    -1.8406741175252e-05
 101    -2.9504368905601e-06
 102    -9.4228721918818e-06
 103    0.00021364381382466
 104    -1.4522326230689e-05
 105    -1.9401551792192e-05
 106    -5.4631202124002e-06
 107    -0.00020521195740634
 108    0.00017174162313663
 109    0.00016837228707127
 110    -7.2193593034139e-06
 111    -2.7525890571885e-06
 112    1.1316758383461e-06
 113    2.3257705795023e-06
 114    -5.6899540440056e-06
 115    -5.9336954716569e-06
 116    -2.9260367123119e-05
 117    0.00026067807931334
 118    -5.6734870708869e-06
 119    8.9668555478534e-06
 120    9.5523095059494e-06
 121    -6.1146998560959e-05
 122    2.4173826689312e-05
 123    3.9141787973786e-05
 124    9.5238184160963e-07
 125    -3.190922374028e-06
 126    -2.4105280713805e-06
 127    1.3462787108885e-06
 128    -1.9815707789833e-06
 129    7.3213362856665e-06
 130    -7.6561953866957e-05
 131    0.00013408500411293
 132    1.9417598433132e-05
 133    -5.0928649084705e-06
 134    9.8601507913516e-05
 135    -0.00032276639843796
 136    3.4417574152102e-05
 137    -0.00042012734420178
 138    1.3077441766703e-05
 139    8.2520503148633e-06
 140    4.0238627811801e-06
 141    3.1165150831082e-06
 142    5.4626331274279e-06
 143    -1.0398061439935e-05
 144    -1.0331792151072e-05
 145    9.2256618883362e-05
 146    2.0151987987387e-05
 147    -8.740339226683e-06
 148    -1.9737457863626e-05
 149    5.2108165324114e-05
 150    -3.0087581642446e-05
 151    -6.1193472062175e-05
 152    -9.5100949009344e-06
 153    -4.700039958675e-06
 154    -2.6804258232419e-06
 155    4.9271836040388e-06
 156    -5.3914826368952e-06
 157    4.0967168243332e-07
 158    1.3532875191921e-05
 159    -1.6850979795504e-05
 160    6.9155075172394e-06
 161    -3.6061422063576e-06
 162    1.7271189787139e-06
 163    -4.8927221172211e-05
 164    1.4788250672667e-05
 165    1.3299782749623e-05
 166    3.3082535643538e-06
 167    -1.109861227852e-06
 168    2.2977922528765e-07
 169    2.6423669030964e-07
 170    1.2803266180967e-06
 171    -1.3013282140972e-06
 172    -1.0708349303124e-05
 173    2.2243112149924e-05
 174    -3.0337068661286e-06
 175    1.3527925259386e-06
 176    9.8711260585262e-06
 177    -1.1090708335244e-05
 178    1.4764804191617e-06
 179    -3.2431852478424e-05
 180    1.2148713292075e-06
 181    3.4125806919533e-06
 182    2.3040268255679e-07
 183    -8.4228453520376e-07
 184    1.4403982155797e-06
 185    3.0227463587351e-07
 186    -3.3854182670965e-05
 187    4.1738807367783e-05
 188    2.7337388778144e-06
 189    4.2091773961602e-06
 190    2.2905831291157e-05
 191    9.4698912244263e-06
 192    -3.7553779681166e-06
 193    -4.846102686411e-05
 194    3.7584251807829e-06
 195    2.3708734797291e-07
 196    2.9126339957559e-06
 197    -5.6512223637535e-07
 198    2.1215273109057e-07
 199    -7.193586560435e-06
 200    -1.4783044971064e-06
 201    4.6038347106926e-06
 202    3.5475297778433e-05
 203    -1.3337084065135e-05
 204    -6.7799142830348e-06
 205    2.8968626501702e-06
 206    -2.2073354909216e-05
 207    7.1152230586812e-06
 208    -6.4545353194728e-05
 209    6.6951351222453e-06
 210    -3.1170935809849e-05
 211    4.9961578065993e-06
 212    1.5263732282195e-05
 213    1.988071168453e-06
 214    -1.6293677520266e-05
 215    -5.2990940735349e-06
 216    -4.2862491282006e-05
 217    4.3370533675467e-06
 218    1.4274464206715e-05
 219    -2.2885146554293e-07
 220    2.138489484566e-06
 221    -8.7127801603459e-05
 222    7.4903425357703e-05
 223    0.00088091846272626
 224    0.00010129173560528
 225    5.4868982890983e-05
 226    -0.00020602577711949
 227    0.00061629399442997
 228    0.00030315523677399
 229    -0.00097093811679306
 230    -2.3039993835099e-06
 231    -4.5211506050516e-05
 232    -2.0441504914655e-05
 233    2.3505421907323e-05
 234    2.3380986532064e-05
 235    0.00014302489407004
 236    -0.00032128677988646
 237    -0.00048730981714273
 238    -0.00020609065562019
 239    -0.00015778038851257
 240    0.00055095586026677
 241    0.00020226132312216
 242    0.00026045908322918
 243    -0.0012482246131482
 244    2.5987628415716e-06
 245    5.5260307647404e-05
 246    1.3270531791438e-05
 247    1.1395585284439e-05
 248    -2.2136889807944e-06
 249    -1.7712821123054e-05
 250    0.00028365307890285
 251    -0.00034270978228106
 252    -0.00044377860222973
 253    0.0021001123664142
 254    -0.00049607107603641
 255    -9.662613989726e-05
 256    -0.00019766342772437
 257    -0.00018781108022475
 258    0.00038203594566801
 259    -0.0018278243012194
 260    -7.6241329506225e-05
 261    -3.124350704273e-05
 262    -1.7542920065666e-05
 263    0.00014421720639416
 264    9.319427142869e-05
 265    -0.00025371332453279
 266    0.0001477498037457
 267    0.00022134382312251
 268    -0.00020176408960756
 269    -1.9304848199898e-05
 270    -0.00049485208335872
 271    0.0066495046827225
 272    -1.313725571401e-05
 273    -0.00015457638394004
 274    8.3823587034302e-05
 275    -0.0015372008636198
 276    -0.0028316438934797
 277    0.0025698200252359
 278    8.1764737546831e-05
 279    -0.00017536770316465
 280    -7.9907605085705e-05