[Molden Format]
made by pyscf v[2.0.1]
[Atoms] (AU)
C   1   6     0.69100024069495     0.64692934212497    -3.48223131168734
H   2   1     2.68052439835215     1.13355088667581    -3.25784032595959
C   3   6    -0.36286361514353     0.85440132525350    -5.97030179416329
H   4   1    -2.35448549056350     0.36322488588432    -6.17995817799568
C   5   6     0.93697958950647     1.61209284601065    -8.05828437675987
H   6   1     2.92721069186250     2.10853558287052    -7.87534295441726
C   7   6    -0.17413039189613     1.80008207487984   -10.52534301739428
H   8   1    -2.16943049770440     1.29533627648343   -10.67939296478009
H   9   1     1.55630230933264    -1.92953025311848    12.99630010417381
C   10   6     0.75233899783373    -2.21270439606859    11.10705728099195
H   11   1    -0.43433408176896    -3.90944857543337    11.22216085348160
C   12   6     2.86362581169447    -2.63237380608325     9.17926416459635
H   13   1     4.39038949906562    -1.24955421532309     9.49899813488174
H   14   1     3.74629220184371    -4.48798724298246     9.47414880962803
C   15   6     2.02478325622942    -2.42177285713224     6.44560829586187
C   16   6     3.88048732732831    -3.58795445236593     4.61402886975252
C   17   6    -0.18412382264649    -1.30464291231236     5.76021113881606
C   18   6    -2.10044360460382    -0.26837831862807     7.71610340970501
C   19   6    -3.08956938678556     2.35282328352614     6.88693925042618
C   20   6    -4.37372924094212    -2.09766595985142     7.93610724215954
C   21   6    -0.83850430593104     0.06372213486551    10.33002307643668
H   22   1     0.38411922142983     1.74281358590180    10.27380136539346
H   23   1    -2.30980003011276     0.45460143923765    11.73986301804329
H   24   1     4.58527064636731    -5.38706904479673     5.36778158023404
H   25   1     5.54944938091628    -2.37631462201630     4.35398898404058
H   26   1     3.06633019144754    -3.94118377051822     2.75255466032570
H   27   1    -4.17727778763546     2.26573369145191     5.12914900957504
H   28   1    -1.52662344935358     3.68001877441469     6.59540397151878
H   29   1    -4.32916174393862     3.13643051473529     8.35225460094913
H   30   1    -5.32329548507875    -2.36691813603695     6.11583672741581
H   31   1    -5.77989366598289    -1.33896741838552     9.25748940451935
H   32   1    -3.79310905209871    -3.96389819308585     8.61386170106276
C   33   6    -1.01100794815762    -1.06331657313199     3.11929490450892
C   34   6     0.37686231029920    -0.33275864510088     1.09165013596992
H   35   1    -3.01671213911428    -1.40297922289257     2.77827895090755
C   36   6    -0.64382707979748    -0.11591880174763    -1.42063131255788
H   37   1     2.35569259790262     0.17174499287298     1.33641070253857
H   38   1    -2.63317482972383    -0.60229203504227    -1.66119700396716
C   39   6     1.04406642127022     2.54697835791677   -12.65486785204246
C   40   6    -0.25769856063703     2.67711278008941   -15.08293200861523
H   41   1     3.03094671002655     3.07573165426063   -12.63261900496242
O   42   8     0.71886931482866     3.33224024015006   -17.06735820381613
H   43   1    -2.28855418566595     2.11893682007881   -15.01778643592878
[GTO]
1 0
 s    6 1.00
             3047.5249  0.0018347001629433
             457.36951    0.01403730124668
             103.94869   0.068842606114048
             29.210155    0.23218442062076
              9.286663    0.46794134155879
              3.163927    0.36231203217765
 s    3 1.00
             7.8682724   -0.11933240861517
             1.8812885   -0.16085421161283
             0.5442493     1.1434564825515
 s    1 1.00
             0.1687144                   1
 p    3 1.00
             7.8682724   0.068999095584993
             1.8812885    0.31642397975315
             0.5442493    0.74430825237435
 p    1 1.00
             0.1687144                   1
 d    1 1.00
                   0.8                   1

2 0
 s    3 1.00
             18.731137    0.03349459952309
             2.8253937    0.23472694665786
             0.6401217    0.81375731841339
 s    1 1.00
             0.1612778                   1

3 0
 s    6 1.00
             3047.5249  0.0018347001629433
             457.36951    0.01403730124668
             103.94869   0.068842606114048
             29.210155    0.23218442062076
              9.286663    0.46794134155879
              3.163927    0.36231203217765
 s    3 1.00
             7.8682724   -0.11933240861517
             1.8812885   -0.16085421161283
             0.5442493     1.1434564825515
 s    1 1.00
             0.1687144                   1
 p    3 1.00
             7.8682724   0.068999095584993
             1.8812885    0.31642397975315
             0.5442493    0.74430825237435
 p    1 1.00
             0.1687144                   1
 d    1 1.00
                   0.8                   1

4 0
 s    3 1.00
             18.731137    0.03349459952309
             2.8253937    0.23472694665786
             0.6401217    0.81375731841339
 s    1 1.00
             0.1612778                   1

5 0
 s    6 1.00
             3047.5249  0.0018347001629433
             457.36951    0.01403730124668
             103.94869   0.068842606114048
             29.210155    0.23218442062076
              9.286663    0.46794134155879
              3.163927    0.36231203217765
 s    3 1.00
             7.8682724   -0.11933240861517
             1.8812885   -0.16085421161283
             0.5442493     1.1434564825515
 s    1 1.00
             0.1687144                   1
 p    3 1.00
             7.8682724   0.068999095584993
             1.8812885    0.31642397975315
             0.5442493    0.74430825237435
 p    1 1.00
             0.1687144                   1
 d    1 1.00
                   0.8                   1

6 0
 s    3 1.00
             18.731137    0.03349459952309
             2.8253937    0.23472694665786
             0.6401217    0.81375731841339
 s    1 1.00
             0.1612778                   1

7 0
 s    6 1.00
             3047.5249  0.0018347001629433
             457.36951    0.01403730124668
             103.94869   0.068842606114048
             29.210155    0.23218442062076
              9.286663    0.46794134155879
              3.163927    0.36231203217765
 s    3 1.00
             7.8682724   -0.11933240861517
             1.8812885   -0.16085421161283
             0.5442493     1.1434564825515
 s    1 1.00
             0.1687144                   1
 p    3 1.00
             7.8682724   0.068999095584993
             1.8812885    0.31642397975315
             0.5442493    0.74430825237435
 p    1 1.00
             0.1687144                   1
 d    1 1.00
                   0.8                   1

8 0
 s    3 1.00
             18.731137    0.03349459952309
             2.8253937    0.23472694665786
             0.6401217    0.81375731841339
 s    1 1.00
             0.1612778                   1

9 0
 s    3 1.00
             18.731137    0.03349459952309
             2.8253937    0.23472694665786
             0.6401217    0.81375731841339
 s    1 1.00
             0.1612778                   1

10 0
 s    6 1.00
             3047.5249  0.0018347001629433
             457.36951    0.01403730124668
             103.94869   0.068842606114048
             29.210155    0.23218442062076
              9.286663    0.46794134155879
              3.163927    0.36231203217765
 s    3 1.00
             7.8682724   -0.11933240861517
             1.8812885   -0.16085421161283
             0.5442493     1.1434564825515
 s    1 1.00
             0.1687144                   1
 p    3 1.00
             7.8682724   0.068999095584993
             1.8812885    0.31642397975315
             0.5442493    0.74430825237435
 p    1 1.00
             0.1687144                   1
 d    1 1.00
                   0.8                   1

11 0
 s    3 1.00
             18.731137    0.03349459952309
             2.8253937    0.23472694665786
             0.6401217    0.81375731841339
 s    1 1.00
             0.1612778                   1

12 0
 s    6 1.00
             3047.5249  0.0018347001629433
             457.36951    0.01403730124668
             103.94869   0.068842606114048
             29.210155    0.23218442062076
              9.286663    0.46794134155879
              3.163927    0.36231203217765
 s    3 1.00
             7.8682724   -0.11933240861517
             1.8812885   -0.16085421161283
             0.5442493     1.1434564825515
 s    1 1.00
             0.1687144                   1
 p    3 1.00
             7.8682724   0.068999095584993
             1.8812885    0.31642397975315
             0.5442493    0.74430825237435
 p    1 1.00
             0.1687144                   1
 d    1 1.00
                   0.8                   1

13 0
 s    3 1.00
             18.731137    0.03349459952309
             2.8253937    0.23472694665786
             0.6401217    0.81375731841339
 s    1 1.00
             0.1612778                   1

14 0
 s    3 1.00
             18.731137    0.03349459952309
             2.8253937    0.23472694665786
             0.6401217    0.81375731841339
 s    1 1.00
             0.1612778                   1

15 0
 s    6 1.00
             3047.5249  0.0018347001629433
             457.36951    0.01403730124668
             103.94869   0.068842606114048
             29.210155    0.23218442062076
              9.286663    0.46794134155879
              3.163927    0.36231203217765
 s    3 1.00
             7.8682724   -0.11933240861517
             1.8812885   -0.16085421161283
             0.5442493     1.1434564825515
 s    1 1.00
             0.1687144                   1
 p    3 1.00
             7.8682724   0.068999095584993
             1.8812885    0.31642397975315
             0.5442493    0.74430825237435
 p    1 1.00
             0.1687144                   1
 d    1 1.00
                   0.8                   1

16 0
 s    6 1.00
             3047.5249  0.0018347001629433
             457.36951    0.01403730124668
             103.94869   0.068842606114048
             29.210155    0.23218442062076
              9.286663    0.46794134155879
              3.163927    0.36231203217765
 s    3 1.00
             7.8682724   -0.11933240861517
             1.8812885   -0.16085421161283
             0.5442493     1.1434564825515
 s    1 1.00
             0.1687144                   1
 p    3 1.00
             7.8682724   0.068999095584993
             1.8812885    0.31642397975315
             0.5442493    0.74430825237435
 p    1 1.00
             0.1687144                   1
 d    1 1.00
                   0.8                   1

17 0
 s    6 1.00
             3047.5249  0.0018347001629433
             457.36951    0.01403730124668
             103.94869   0.068842606114048
             29.210155    0.23218442062076
              9.286663    0.46794134155879
              3.163927    0.36231203217765
 s    3 1.00
             7.8682724   -0.11933240861517
             1.8812885   -0.16085421161283
             0.5442493     1.1434564825515
 s    1 1.00
             0.1687144                   1
 p    3 1.00
             7.8682724   0.068999095584993
             1.8812885    0.31642397975315
             0.5442493    0.74430825237435
 p    1 1.00
             0.1687144                   1
 d    1 1.00
                   0.8                   1

18 0
 s    6 1.00
             3047.5249  0.0018347001629433
             457.36951    0.01403730124668
             103.94869   0.068842606114048
             29.210155    0.23218442062076
              9.286663    0.46794134155879
              3.163927    0.36231203217765
 s    3 1.00
             7.8682724   -0.11933240861517
             1.8812885   -0.16085421161283
             0.5442493     1.1434564825515
 s    1 1.00
             0.1687144                   1
 p    3 1.00
             7.8682724   0.068999095584993
             1.8812885    0.31642397975315
             0.5442493    0.74430825237435
 p    1 1.00
             0.1687144                   1
 d    1 1.00
                   0.8                   1

19 0
 s    6 1.00
             3047.5249  0.0018347001629433
             457.36951    0.01403730124668
             103.94869   0.068842606114048
             29.210155    0.23218442062076
              9.286663    0.46794134155879
              3.163927    0.36231203217765
 s    3 1.00
             7.8682724   -0.11933240861517
             1.8812885   -0.16085421161283
             0.5442493     1.1434564825515
 s    1 1.00
             0.1687144                   1
 p    3 1.00
             7.8682724   0.068999095584993
             1.8812885    0.31642397975315
             0.5442493    0.74430825237435
 p    1 1.00
             0.1687144                   1
 d    1 1.00
                   0.8                   1

20 0
 s    6 1.00
             3047.5249  0.0018347001629433
             457.36951    0.01403730124668
             103.94869   0.068842606114048
             29.210155    0.23218442062076
              9.286663    0.46794134155879
              3.163927    0.36231203217765
 s    3 1.00
             7.8682724   -0.11933240861517
             1.8812885   -0.16085421161283
             0.5442493     1.1434564825515
 s    1 1.00
             0.1687144                   1
 p    3 1.00
             7.8682724   0.068999095584993
             1.8812885    0.31642397975315
             0.5442493    0.74430825237435
 p    1 1.00
             0.1687144                   1
 d    1 1.00
                   0.8                   1

21 0
 s    6 1.00
             3047.5249  0.0018347001629433
             457.36951    0.01403730124668
             103.94869   0.068842606114048
             29.210155    0.23218442062076
              9.286663    0.46794134155879
              3.163927    0.36231203217765
 s    3 1.00
             7.8682724   -0.11933240861517
             1.8812885   -0.16085421161283
             0.5442493     1.1434564825515
 s    1 1.00
             0.1687144                   1
 p    3 1.00
             7.8682724   0.068999095584993
             1.8812885    0.31642397975315
             0.5442493    0.74430825237435
 p    1 1.00
             0.1687144                   1
 d    1 1.00
                   0.8                   1

22 0
 s    3 1.00
             18.731137    0.03349459952309
             2.8253937    0.23472694665786
             0.6401217    0.81375731841339
 s    1 1.00
             0.1612778                   1

23 0
 s    3 1.00
             18.731137    0.03349459952309
             2.8253937    0.23472694665786
             0.6401217    0.81375731841339
 s    1 1.00
             0.1612778                   1

24 0
 s    3 1.00
             18.731137    0.03349459952309
             2.8253937    0.23472694665786
             0.6401217    0.81375731841339
 s    1 1.00
             0.1612778                   1

25 0
 s    3 1.00
             18.731137    0.03349459952309
             2.8253937    0.23472694665786
             0.6401217    0.81375731841339
 s    1 1.00
             0.1612778                   1

26 0
 s    3 1.00
             18.731137    0.03349459952309
             2.8253937    0.23472694665786
             0.6401217    0.81375731841339
 s    1 1.00
             0.1612778                   1

27 0
 s    3 1.00
             18.731137    0.03349459952309
             2.8253937    0.23472694665786
             0.6401217    0.81375731841339
 s    1 1.00
             0.1612778                   1

28 0
 s    3 1.00
             18.731137    0.03349459952309
             2.8253937    0.23472694665786
             0.6401217    0.81375731841339
 s    1 1.00
             0.1612778                   1

29 0
 s    3 1.00
             18.731137    0.03349459952309
             2.8253937    0.23472694665786
             0.6401217    0.81375731841339
 s    1 1.00
             0.1612778                   1

30 0
 s    3 1.00
             18.731137    0.03349459952309
             2.8253937    0.23472694665786
             0.6401217    0.81375731841339
 s    1 1.00
             0.1612778                   1

31 0
 s    3 1.00
             18.731137    0.03349459952309
             2.8253937    0.23472694665786
             0.6401217    0.81375731841339
 s    1 1.00
             0.1612778                   1

32 0
 s    3 1.00
             18.731137    0.03349459952309
             2.8253937    0.23472694665786
             0.6401217    0.81375731841339
 s    1 1.00
             0.1612778                   1

33 0
 s    6 1.00
             3047.5249  0.0018347001629433
             457.36951    0.01403730124668
             103.94869   0.068842606114048
             29.210155    0.23218442062076
              9.286663    0.46794134155879
              3.163927    0.36231203217765
 s    3 1.00
             7.8682724   -0.11933240861517
             1.8812885   -0.16085421161283
             0.5442493     1.1434564825515
 s    1 1.00
             0.1687144                   1
 p    3 1.00
             7.8682724   0.068999095584993
             1.8812885    0.31642397975315
             0.5442493    0.74430825237435
 p    1 1.00
             0.1687144                   1
 d    1 1.00
                   0.8                   1

34 0
 s    6 1.00
             3047.5249  0.0018347001629433
             457.36951    0.01403730124668
             103.94869   0.068842606114048
             29.210155    0.23218442062076
              9.286663    0.46794134155879
              3.163927    0.36231203217765
 s    3 1.00
             7.8682724   -0.11933240861517
             1.8812885   -0.16085421161283
             0.5442493     1.1434564825515
 s    1 1.00
             0.1687144                   1
 p    3 1.00
             7.8682724   0.068999095584993
             1.8812885    0.31642397975315
             0.5442493    0.74430825237435
 p    1 1.00
             0.1687144                   1
 d    1 1.00
                   0.8                   1

35 0
 s    3 1.00
             18.731137    0.03349459952309
             2.8253937    0.23472694665786
             0.6401217    0.81375731841339
 s    1 1.00
             0.1612778                   1

36 0
 s    6 1.00
             3047.5249  0.0018347001629433
             457.36951    0.01403730124668
             103.94869   0.068842606114048
             29.210155    0.23218442062076
              9.286663    0.46794134155879
              3.163927    0.36231203217765
 s    3 1.00
             7.8682724   -0.11933240861517
             1.8812885   -0.16085421161283
             0.5442493     1.1434564825515
 s    1 1.00
             0.1687144                   1
 p    3 1.00
             7.8682724   0.068999095584993
             1.8812885    0.31642397975315
             0.5442493    0.74430825237435
 p    1 1.00
             0.1687144                   1
 d    1 1.00
                   0.8                   1

37 0
 s    3 1.00
             18.731137    0.03349459952309
             2.8253937    0.23472694665786
             0.6401217    0.81375731841339
 s    1 1.00
             0.1612778                   1

38 0
 s    3 1.00
             18.731137    0.03349459952309
             2.8253937    0.23472694665786
             0.6401217    0.81375731841339
 s    1 1.00
             0.1612778                   1

39 0
 s    6 1.00
             3047.5249  0.0018347001629433
             457.36951    0.01403730124668
             103.94869   0.068842606114048
             29.210155    0.23218442062076
              9.286663    0.46794134155879
              3.163927    0.36231203217765
 s    3 1.00
             7.8682724   -0.11933240861517
             1.8812885   -0.16085421161283
             0.5442493     1.1434564825515
 s    1 1.00
             0.1687144                   1
 p    3 1.00
             7.8682724   0.068999095584993
             1.8812885    0.31642397975315
             0.5442493    0.74430825237435
 p    1 1.00
             0.1687144                   1
 d    1 1.00
                   0.8                   1

40 0
 s    6 1.00
             3047.5249  0.0018347001629433
             457.36951    0.01403730124668
             103.94869   0.068842606114048
             29.210155    0.23218442062076
              9.286663    0.46794134155879
              3.163927    0.36231203217765
 s    3 1.00
             7.8682724   -0.11933240861517
             1.8812885   -0.16085421161283
             0.5442493     1.1434564825515
 s    1 1.00
             0.1687144                   1
 p    3 1.00
             7.8682724   0.068999095584993
             1.8812885    0.31642397975315
             0.5442493    0.74430825237435
 p    1 1.00
             0.1687144                   1
 d    1 1.00
                   0.8                   1

41 0
 s    3 1.00
             18.731137    0.03349459952309
             2.8253937    0.23472694665786
             0.6401217    0.81375731841339
 s    1 1.00
             0.1612778                   1

42 0
 s    6 1.00
             5484.6717   0.001831099805527
             825.23495   0.013950098518422
             188.04696    0.06844509273075
               52.9645    0.23271427528445
              16.89757    0.47019295006289
             5.7996353    0.35852086192309
 s    3 1.00
             15.539616   -0.11077750382508
             3.5999336   -0.14802630511126
             1.0137618     1.1307670390447
 s    1 1.00
             0.2700058                   1
 p    3 1.00
             15.539616   0.070874299543311
             3.5999336    0.33975279781076
             1.0137618    0.72715859531445
 p    1 1.00
             0.2700058                   1
 d    1 1.00
                   0.8                   1

43 0
 s    3 1.00
             18.731137    0.03349459952309
             2.8253937    0.23472694665786
             0.6401217    0.81375731841339
 s    1 1.00
             0.1612778                   1

[5d]
[7f]
[9g]

[MO]
 Sym= A
 Ene=               0
 Spin= Alpha
 Occup=    1.00000
   1    -0.0027222037728774
   2    -3.9358714730236e-05
   3    -0.00054949929263187
   4    2.5461470923973e-05
   5    1.0801705263226e-05
   6    -2.0526687138675e-05
   7    -6.6499628049204e-05
   8    -0.00030812450490471
   9     0.001478439209615
  10    -2.1226565012093e-05
  11    -4.7986093451955e-05
  12    -3.098752702491e-06
  13    -1.411208309852e-05
  14    2.1655085432208e-06
  15    7.3504101679377e-05
  16    -0.00010864124467495
  17    -0.0054422998921002
  18    0.00010491772751608
  19    -0.00019183938671228
  20    -8.2725424278825e-05
  21    1.754942509369e-05
  22    -0.0002004602526431
  23    0.00074419389155604
  24    -7.0822594745426e-05
  25    0.0013682418331353
  26    7.1218773617296e-05
  27    1.2771140942095e-07
  28    2.9995875671137e-06
  29    -0.00011949201686884
  30    -6.8943725531786e-05
  31    0.00016245384501028
  32    0.00061037238919264
  33    -0.015310378373406
  34    0.00099924954638975
  35    -0.0071837295060638
  36    -0.00038405272045373
  37    0.00011978660336988
  38    -0.0011316164922521
  39    -6.0433019323166e-05
  40    -0.00077853450572019
  41    0.0038760231269268
  42    0.00090602551003364
  43    0.00093667707641479
  44    -0.0001104658257967
  45    0.00025700911438056
  46    -4.3755264239643e-05
  47    0.00042905898659072
  48    0.00060537766949528
  49     -0.99509812429433
  50    -0.035661410170339
  51     0.028436920025883
  52    -0.0004824801404647
  53    -6.5691184186771e-05
  54    -0.00032519470197208
  55    0.0033190509513626
  56    0.0008415625154729
  57    0.00025420494114117
  58    -0.00081964424298671
  59    0.00029202725317532
  60    0.00043168135639156
  61    -0.00022873154367097
  62    -0.0002189349456754
  63    0.0010535380314206
  64    -0.0041677284070638
  65    7.5870185985637e-07
  66    8.6934479327298e-07
  67    -3.5968823782652e-08
  68    1.023065480926e-06
  69    -3.6012173268035e-06
  70    -5.6795759960722e-07
  71    9.7395232025283e-07
  72    -1.1840608571618e-07
  73    -2.2791164232418e-06
  74    -3.3108119735629e-06
  75    -1.107720106893e-06
  76    4.3624254360904e-08
  77    1.5262545070863e-07
  78    -1.719990847198e-07
  79    -1.7780444441439e-07
  80    1.3282393873062e-07
  81    -4.3583535875007e-07
  82    -7.6874157638131e-07
  83    -3.4880224336875e-07
  84    8.703678175582e-07
  85    2.3463988661194e-05
  86    -1.4901702775807e-06
  87    2.7187559884256e-07
  88    -2.9594068320364e-06
  89    -7.086306198783e-06
  90    1.1401149793285e-05
  91    -4.8497212897605e-06
  92    -3.8620857302222e-07
  93    6.0115651664726e-07
  94    -6.0803837116199e-07
  95    6.3425355464425e-08
  96    3.4050866860517e-07
  97    -1.0317187471377e-06
  98    -1.7231446524373e-06
  99    -4.1409847883415e-07
 100    2.3375858135286e-06
 101    7.4258110071808e-07
 102    2.5897086905994e-07
 103    -3.1186108875538e-05
 104    7.3511618350916e-07
 105    -1.0192728174001e-06
 106    2.2513322376558e-06
 107    4.4005683189825e-05
 108    -3.8928483478896e-05
 109    -5.3189432069525e-05
 110    1.4283409758847e-06
 111    5.7747120362563e-07
 112    -3.5437002337524e-07
 113    -3.5816836342434e-07
 114    1.2463387761721e-06
 115    1.3277448462086e-06
 116    8.1600756074364e-06
 117    -6.665040195962e-05
 118    9.5429626278712e-07
 119    -1.0743419436977e-06
 120    -1.6089653283674e-06
 121    1.659835674628e-05
 122    -9.9356872158231e-06
 123    -7.4847942641586e-06
 124    1.5614782197757e-08
 125    7.3478923304216e-07
 126    -1.2220078633955e-07
 127    -5.1469744206639e-07
 128    6.1999937622736e-07
 129    -1.7588730919639e-08
 130    1.6224317720132e-05
 131    -8.234534248303e-05
 132    -5.4998677703277e-06
 133    -5.5728078191775e-07
 134    -1.1849721595414e-05
 135    5.5085194413044e-05
 136    -5.343866489554e-06
 137    0.00013815314968573
 138    -3.7780210129493e-06
 139    -2.6226203144784e-06
 140    -5.4852393908251e-07
 141    -6.4810931576668e-07
 142    -7.4739729890517e-07
 143    9.5876455479785e-07
 144    7.8950719859294e-06
 145    -3.0304657295417e-05
 146    -1.4367277804238e-06
 147    -6.1516918661676e-07
 148    -2.5444505051453e-06
 149    -1.3679220370597e-05
 150    7.1111804435598e-06
 151    2.2029315007461e-05
 152    2.094068341416e-06
 153    1.1172940685254e-06
 154    6.0227055105087e-07
 155    -1.2483011890622e-06
 156    1.5436652439216e-06
 157    -4.4505690799964e-07
 158    -2.7281584367431e-06
 159    8.6223293854248e-06
 160    -1.3251901338664e-06
 161    -2.7793541223005e-07
 162    3.0798976235911e-07
 163    1.1532099112103e-05
 164    -4.1686309216462e-06
 165    -5.4307094025191e-06
 166    -1.1581178121465e-06
 167    4.6693263509382e-07
 168    1.8627449239887e-07
 169    -1.1998106313931e-07
 170    -4.5648272030036e-07
 171    4.9830282313951e-08
 172    -2.6030826210043e-10
 173    1.0523393070947e-05
 174    1.5914362533292e-06
 175    3.1579172228066e-07
 176    -2.7282351616933e-06
 177    -6.5055247557673e-06
 178    -2.779392866094e-06
 179    -9.5159960421454e-07
 180    5.0970420571132e-09
 181    -8.1494539846882e-07
 182    -2.3159091474862e-07
 183    4.8956669348086e-07
 184    -5.7445839717211e-07
 185    4.7055473246272e-07
 186    7.1415955179675e-06
 187    -1.7477698415001e-05
 188    5.1666858399008e-07
 189    6.7374196273171e-08
 190    -2.0393963674524e-06
 191    -1.8706555723164e-06
 192    1.1809618783549e-06
 193     1.48014183333e-05
 194    -8.2797737496452e-07
 195    -2.3440568958717e-07
 196    -6.2878506037373e-07
 197    -8.5235256063882e-08
 198    1.1461703489597e-07
 199    1.8864266573712e-06
 200    2.0517939598947e-06
 201    5.5235948834241e-08
 202    -5.8060415931634e-06
 203    2.551164138323e-06
 204    -5.2348724080573e-07
 205    6.0231914644073e-07
 206    6.9686512279494e-06
 207    -1.0203883061424e-06
 208    1.2159871605787e-05
 209    -2.0835355849639e-06
 210    3.4772207575371e-06
 211    -1.6128263599344e-06
 212    -4.6032368152144e-06
 213    9.8698794308008e-08
 214    4.8101964679954e-06
 215    2.9437856810387e-06
 216    -1.3094536518956e-05
 217    -1.270812803897e-06
 218    -3.8459504806736e-06
 219    -8.5973563356948e-07
 220    -9.4077737786679e-07
 221    8.2060098946055e-06
 222    1.5493662198909e-05
 223    -0.00012571038802475
 224    -3.1591138715361e-06
 225    -3.041594234416e-06
 226    8.9567166954621e-06
 227    -3.6279083269308e-05
 228    -5.4168707129245e-05
 229    0.0002440799009287
 230    -3.9167056542027e-07
 231    9.8494246509572e-06
 232    4.4321875900695e-06
 233    -5.603840954513e-06
 234    -4.9865662045412e-06
 235    -5.7196803859909e-06
 236    3.8772143809767e-05
 237    0.00016873501281414
 238    1.0940930599781e-05
 239    1.1447801175812e-05
 240    -4.3496122192167e-05
 241    -1.7990396373871e-05
 242    -3.1890660317181e-05
 243    0.00015753836414955
 244    1.1569318113436e-06
 245    -1.3306567629499e-05
 246    -2.5602690556552e-06
 247    -6.1000696755776e-06
 248    -8.6995070934391e-07
 249    1.9428687259868e-06
 250    6.5845185043863e-06
 251    3.4547774429321e-05
 252    9.8153665501219e-05
 253    -0.00074580166308041
 254    -3.2413178046732e-05
 255    -1.2283047464541e-05
 256    1.9685272155947e-05
 257    -0.00050191614465918
 258    -0.00021699916394285
 259    0.00041770923452077
 260    -3.3744402837341e-06
 261    2.6483961389171e-05
 262    1.1375369896544e-05
 263    -1.0472343332665e-05
 264    -1.2447795513889e-05
 265    2.2722265987287e-05
 266    -3.2292592779141e-05
 267    5.9764318864858e-05
 268    -0.00019720102657948
 269    0.00019201635461227
 270    -0.00045750530344195
 271    -0.010373481033807
 272    -0.0025752038538142
 273    -0.0012727967664931
 274    0.0029494124010226
 275    -0.00054011844022949
 276    0.0005018756164343
 277    -0.0032803753720087
 278    0.0006711253285861
 279    -0.0010481332879635
 280    -0.00057684927833562