[Molden Format]
made by pyscf v[2.0.1]
[Atoms] (AU)
C   1   6     0.69100024066471     0.64692934207205    -3.48223131169301
H   2   1     2.68052439830868     1.13355088658700    -3.25784032593313
C   3   6    -0.36286361513219     0.85440132524594    -5.97030179418974
H   4   1    -2.35448549047279     0.36322488579172    -6.17995817793143
C   5   6     0.93697958957450     1.61209284601821    -8.05828437677121
H   6   1    -0.06960811584452     2.58702669474359    -9.56733307637730
C   7   6     3.59571274713804     1.19684402678434    -8.39738626626495
H   8   1     4.57899779978681     0.21871567749258    -6.86894337963000
H   9   1     1.55630230933075    -1.92953025305990    12.99630010416247
C   10   6     0.75233899775814    -2.21270439606481    11.10705728102219
H   11   1    -0.43433408177274    -3.90944857546550    11.22216085340412
C   12   6     2.86362581178706    -2.63237380607947     9.17926416456045
H   13   1     4.39038949912609    -1.24955421540245     9.49899813497433
H   14   1     3.74629220191363    -4.48798724300892     9.47414880959024
C   15   6     2.02478325613682    -2.42177285709634     6.44560829588644
C   16   6     3.88048732735477    -3.58795445234514     4.61402886975252
C   17   6    -0.18412382258602    -1.30464291234259     5.76021113872346
C   18   6    -2.10044360464350    -0.26837831858460     7.71610340967100
C   19   6    -3.08956938670431     2.35282328359417     6.88693925039594
C   20   6    -4.37372924086464    -2.09766595989678     7.93610724222001
C   21   6    -0.83850430601230     0.06372213486173    10.33002307638377
H   22   1     0.38411922151109     1.74281358582432    10.27380136542181
H   23   1    -2.30980003007874     0.45460143924521    11.73986301809809
H   24   1     4.58527064644668    -5.38706904487420     5.36778158031719
H   25   1     5.54944938085014    -2.37631462192748     4.35398898413318
H   26   1     3.06633019150423    -3.94118377050688     2.75255466040884
H   27   1    -4.17727778763735     2.26573369139522     5.12914900961283
H   28   1    -1.52662344944051     3.68001877445626     6.59540397144508
H   29   1    -4.32916174397830     3.13643051467482     8.35225460090378
H   30   1    -5.32329548508442    -2.36691813602939     6.11583672749896
H   31   1    -5.77989366602257    -1.33896741843465     9.25748940450990
H   32   1    -3.79310905208926    -3.96389819310853     8.61386170102686
C   33   6    -1.01100794811226    -1.06331657314144     3.11929490449947
C   34   6     0.37686231036534    -0.33275864505552     1.09165013605873
H   35   1    -3.01671213906703    -1.40297922279997     2.77827895090944
C   36   6    -0.64382707979370    -0.11591880174385    -1.42063131251064
H   37   1     2.35569259782137     0.17174499283897     1.33641070251401
H   38   1    -2.63317482980319    -0.60229203511219    -1.66119700387645
C   39   6     4.96665860975130     1.91437223239220   -10.44247655051683
C   40   6     7.67160233174465     1.40206885234173   -10.60935163126053
H   41   1     4.10375913642339     2.89528826049847   -12.03023490303406
O   42   8     9.01623610133373     1.99111078946158   -12.38862500825095
H   43   1     8.47573431044455     0.39495244048141    -8.94223819440966
[GTO]
1 0
 s    6 1.00
             3047.5249  0.0018347001629433
             457.36951    0.01403730124668
             103.94869   0.068842606114048
             29.210155    0.23218442062076
              9.286663    0.46794134155879
              3.163927    0.36231203217765
 s    3 1.00
             7.8682724   -0.11933240861517
             1.8812885   -0.16085421161283
             0.5442493     1.1434564825515
 s    1 1.00
             0.1687144                   1
 p    3 1.00
             7.8682724   0.068999095584993
             1.8812885    0.31642397975315
             0.5442493    0.74430825237435
 p    1 1.00
             0.1687144                   1
 d    1 1.00
                   0.8                   1

2 0
 s    3 1.00
             18.731137    0.03349459952309
             2.8253937    0.23472694665786
             0.6401217    0.81375731841339
 s    1 1.00
             0.1612778                   1

3 0
 s    6 1.00
             3047.5249  0.0018347001629433
             457.36951    0.01403730124668
             103.94869   0.068842606114048
             29.210155    0.23218442062076
              9.286663    0.46794134155879
              3.163927    0.36231203217765
 s    3 1.00
             7.8682724   -0.11933240861517
             1.8812885   -0.16085421161283
             0.5442493     1.1434564825515
 s    1 1.00
             0.1687144                   1
 p    3 1.00
             7.8682724   0.068999095584993
             1.8812885    0.31642397975315
             0.5442493    0.74430825237435
 p    1 1.00
             0.1687144                   1
 d    1 1.00
                   0.8                   1

4 0
 s    3 1.00
             18.731137    0.03349459952309
             2.8253937    0.23472694665786
             0.6401217    0.81375731841339
 s    1 1.00
             0.1612778                   1

5 0
 s    6 1.00
             3047.5249  0.0018347001629433
             457.36951    0.01403730124668
             103.94869   0.068842606114048
             29.210155    0.23218442062076
              9.286663    0.46794134155879
              3.163927    0.36231203217765
 s    3 1.00
             7.8682724   -0.11933240861517
             1.8812885   -0.16085421161283
             0.5442493     1.1434564825515
 s    1 1.00
             0.1687144                   1
 p    3 1.00
             7.8682724   0.068999095584993
             1.8812885    0.31642397975315
             0.5442493    0.74430825237435
 p    1 1.00
             0.1687144                   1
 d    1 1.00
                   0.8                   1

6 0
 s    3 1.00
             18.731137    0.03349459952309
             2.8253937    0.23472694665786
             0.6401217    0.81375731841339
 s    1 1.00
             0.1612778                   1

7 0
 s    6 1.00
             3047.5249  0.0018347001629433
             457.36951    0.01403730124668
             103.94869   0.068842606114048
             29.210155    0.23218442062076
              9.286663    0.46794134155879
              3.163927    0.36231203217765
 s    3 1.00
             7.8682724   -0.11933240861517
             1.8812885   -0.16085421161283
             0.5442493     1.1434564825515
 s    1 1.00
             0.1687144                   1
 p    3 1.00
             7.8682724   0.068999095584993
             1.8812885    0.31642397975315
             0.5442493    0.74430825237435
 p    1 1.00
             0.1687144                   1
 d    1 1.00
                   0.8                   1

8 0
 s    3 1.00
             18.731137    0.03349459952309
             2.8253937    0.23472694665786
             0.6401217    0.81375731841339
 s    1 1.00
             0.1612778                   1

9 0
 s    3 1.00
             18.731137    0.03349459952309
             2.8253937    0.23472694665786
             0.6401217    0.81375731841339
 s    1 1.00
             0.1612778                   1

10 0
 s    6 1.00
             3047.5249  0.0018347001629433
             457.36951    0.01403730124668
             103.94869   0.068842606114048
             29.210155    0.23218442062076
              9.286663    0.46794134155879
              3.163927    0.36231203217765
 s    3 1.00
             7.8682724   -0.11933240861517
             1.8812885   -0.16085421161283
             0.5442493     1.1434564825515
 s    1 1.00
             0.1687144                   1
 p    3 1.00
             7.8682724   0.068999095584993
             1.8812885    0.31642397975315
             0.5442493    0.74430825237435
 p    1 1.00
             0.1687144                   1
 d    1 1.00
                   0.8                   1

11 0
 s    3 1.00
             18.731137    0.03349459952309
             2.8253937    0.23472694665786
             0.6401217    0.81375731841339
 s    1 1.00
             0.1612778                   1

12 0
 s    6 1.00
             3047.5249  0.0018347001629433
             457.36951    0.01403730124668
             103.94869   0.068842606114048
             29.210155    0.23218442062076
              9.286663    0.46794134155879
              3.163927    0.36231203217765
 s    3 1.00
             7.8682724   -0.11933240861517
             1.8812885   -0.16085421161283
             0.5442493     1.1434564825515
 s    1 1.00
             0.1687144                   1
 p    3 1.00
             7.8682724   0.068999095584993
             1.8812885    0.31642397975315
             0.5442493    0.74430825237435
 p    1 1.00
             0.1687144                   1
 d    1 1.00
                   0.8                   1

13 0
 s    3 1.00
             18.731137    0.03349459952309
             2.8253937    0.23472694665786
             0.6401217    0.81375731841339
 s    1 1.00
             0.1612778                   1

14 0
 s    3 1.00
             18.731137    0.03349459952309
             2.8253937    0.23472694665786
             0.6401217    0.81375731841339
 s    1 1.00
             0.1612778                   1

15 0
 s    6 1.00
             3047.5249  0.0018347001629433
             457.36951    0.01403730124668
             103.94869   0.068842606114048
             29.210155    0.23218442062076
              9.286663    0.46794134155879
              3.163927    0.36231203217765
 s    3 1.00
             7.8682724   -0.11933240861517
             1.8812885   -0.16085421161283
             0.5442493     1.1434564825515
 s    1 1.00
             0.1687144                   1
 p    3 1.00
             7.8682724   0.068999095584993
             1.8812885    0.31642397975315
             0.5442493    0.74430825237435
 p    1 1.00
             0.1687144                   1
 d    1 1.00
                   0.8                   1

16 0
 s    6 1.00
             3047.5249  0.0018347001629433
             457.36951    0.01403730124668
             103.94869   0.068842606114048
             29.210155    0.23218442062076
              9.286663    0.46794134155879
              3.163927    0.36231203217765
 s    3 1.00
             7.8682724   -0.11933240861517
             1.8812885   -0.16085421161283
             0.5442493     1.1434564825515
 s    1 1.00
             0.1687144                   1
 p    3 1.00
             7.8682724   0.068999095584993
             1.8812885    0.31642397975315
             0.5442493    0.74430825237435
 p    1 1.00
             0.1687144                   1
 d    1 1.00
                   0.8                   1

17 0
 s    6 1.00
             3047.5249  0.0018347001629433
             457.36951    0.01403730124668
             103.94869   0.068842606114048
             29.210155    0.23218442062076
              9.286663    0.46794134155879
              3.163927    0.36231203217765
 s    3 1.00
             7.8682724   -0.11933240861517
             1.8812885   -0.16085421161283
             0.5442493     1.1434564825515
 s    1 1.00
             0.1687144                   1
 p    3 1.00
             7.8682724   0.068999095584993
             1.8812885    0.31642397975315
             0.5442493    0.74430825237435
 p    1 1.00
             0.1687144                   1
 d    1 1.00
                   0.8                   1

18 0
 s    6 1.00
             3047.5249  0.0018347001629433
             457.36951    0.01403730124668
             103.94869   0.068842606114048
             29.210155    0.23218442062076
              9.286663    0.46794134155879
              3.163927    0.36231203217765
 s    3 1.00
             7.8682724   -0.11933240861517
             1.8812885   -0.16085421161283
             0.5442493     1.1434564825515
 s    1 1.00
             0.1687144                   1
 p    3 1.00
             7.8682724   0.068999095584993
             1.8812885    0.31642397975315
             0.5442493    0.74430825237435
 p    1 1.00
             0.1687144                   1
 d    1 1.00
                   0.8                   1

19 0
 s    6 1.00
             3047.5249  0.0018347001629433
             457.36951    0.01403730124668
             103.94869   0.068842606114048
             29.210155    0.23218442062076
              9.286663    0.46794134155879
              3.163927    0.36231203217765
 s    3 1.00
             7.8682724   -0.11933240861517
             1.8812885   -0.16085421161283
             0.5442493     1.1434564825515
 s    1 1.00
             0.1687144                   1
 p    3 1.00
             7.8682724   0.068999095584993
             1.8812885    0.31642397975315
             0.5442493    0.74430825237435
 p    1 1.00
             0.1687144                   1
 d    1 1.00
                   0.8                   1

20 0
 s    6 1.00
             3047.5249  0.0018347001629433
             457.36951    0.01403730124668
             103.94869   0.068842606114048
             29.210155    0.23218442062076
              9.286663    0.46794134155879
              3.163927    0.36231203217765
 s    3 1.00
             7.8682724   -0.11933240861517
             1.8812885   -0.16085421161283
             0.5442493     1.1434564825515
 s    1 1.00
             0.1687144                   1
 p    3 1.00
             7.8682724   0.068999095584993
             1.8812885    0.31642397975315
             0.5442493    0.74430825237435
 p    1 1.00
             0.1687144                   1
 d    1 1.00
                   0.8                   1

21 0
 s    6 1.00
             3047.5249  0.0018347001629433
             457.36951    0.01403730124668
             103.94869   0.068842606114048
             29.210155    0.23218442062076
              9.286663    0.46794134155879
              3.163927    0.36231203217765
 s    3 1.00
             7.8682724   -0.11933240861517
             1.8812885   -0.16085421161283
             0.5442493     1.1434564825515
 s    1 1.00
             0.1687144                   1
 p    3 1.00
             7.8682724   0.068999095584993
             1.8812885    0.31642397975315
             0.5442493    0.74430825237435
 p    1 1.00
             0.1687144                   1
 d    1 1.00
                   0.8                   1

22 0
 s    3 1.00
             18.731137    0.03349459952309
             2.8253937    0.23472694665786
             0.6401217    0.81375731841339
 s    1 1.00
             0.1612778                   1

23 0
 s    3 1.00
             18.731137    0.03349459952309
             2.8253937    0.23472694665786
             0.6401217    0.81375731841339
 s    1 1.00
             0.1612778                   1

24 0
 s    3 1.00
             18.731137    0.03349459952309
             2.8253937    0.23472694665786
             0.6401217    0.81375731841339
 s    1 1.00
             0.1612778                   1

25 0
 s    3 1.00
             18.731137    0.03349459952309
             2.8253937    0.23472694665786
             0.6401217    0.81375731841339
 s    1 1.00
             0.1612778                   1

26 0
 s    3 1.00
             18.731137    0.03349459952309
             2.8253937    0.23472694665786
             0.6401217    0.81375731841339
 s    1 1.00
             0.1612778                   1

27 0
 s    3 1.00
             18.731137    0.03349459952309
             2.8253937    0.23472694665786
             0.6401217    0.81375731841339
 s    1 1.00
             0.1612778                   1

28 0
 s    3 1.00
             18.731137    0.03349459952309
             2.8253937    0.23472694665786
             0.6401217    0.81375731841339
 s    1 1.00
             0.1612778                   1

29 0
 s    3 1.00
             18.731137    0.03349459952309
             2.8253937    0.23472694665786
             0.6401217    0.81375731841339
 s    1 1.00
             0.1612778                   1

30 0
 s    3 1.00
             18.731137    0.03349459952309
             2.8253937    0.23472694665786
             0.6401217    0.81375731841339
 s    1 1.00
             0.1612778                   1

31 0
 s    3 1.00
             18.731137    0.03349459952309
             2.8253937    0.23472694665786
             0.6401217    0.81375731841339
 s    1 1.00
             0.1612778                   1

32 0
 s    3 1.00
             18.731137    0.03349459952309
             2.8253937    0.23472694665786
             0.6401217    0.81375731841339
 s    1 1.00
             0.1612778                   1

33 0
 s    6 1.00
             3047.5249  0.0018347001629433
             457.36951    0.01403730124668
             103.94869   0.068842606114048
             29.210155    0.23218442062076
              9.286663    0.46794134155879
              3.163927    0.36231203217765
 s    3 1.00
             7.8682724   -0.11933240861517
             1.8812885   -0.16085421161283
             0.5442493     1.1434564825515
 s    1 1.00
             0.1687144                   1
 p    3 1.00
             7.8682724   0.068999095584993
             1.8812885    0.31642397975315
             0.5442493    0.74430825237435
 p    1 1.00
             0.1687144                   1
 d    1 1.00
                   0.8                   1

34 0
 s    6 1.00
             3047.5249  0.0018347001629433
             457.36951    0.01403730124668
             103.94869   0.068842606114048
             29.210155    0.23218442062076
              9.286663    0.46794134155879
              3.163927    0.36231203217765
 s    3 1.00
             7.8682724   -0.11933240861517
             1.8812885   -0.16085421161283
             0.5442493     1.1434564825515
 s    1 1.00
             0.1687144                   1
 p    3 1.00
             7.8682724   0.068999095584993
             1.8812885    0.31642397975315
             0.5442493    0.74430825237435
 p    1 1.00
             0.1687144                   1
 d    1 1.00
                   0.8                   1

35 0
 s    3 1.00
             18.731137    0.03349459952309
             2.8253937    0.23472694665786
             0.6401217    0.81375731841339
 s    1 1.00
             0.1612778                   1

36 0
 s    6 1.00
             3047.5249  0.0018347001629433
             457.36951    0.01403730124668
             103.94869   0.068842606114048
             29.210155    0.23218442062076
              9.286663    0.46794134155879
              3.163927    0.36231203217765
 s    3 1.00
             7.8682724   -0.11933240861517
             1.8812885   -0.16085421161283
             0.5442493     1.1434564825515
 s    1 1.00
             0.1687144                   1
 p    3 1.00
             7.8682724   0.068999095584993
             1.8812885    0.31642397975315
             0.5442493    0.74430825237435
 p    1 1.00
             0.1687144                   1
 d    1 1.00
                   0.8                   1

37 0
 s    3 1.00
             18.731137    0.03349459952309
             2.8253937    0.23472694665786
             0.6401217    0.81375731841339
 s    1 1.00
             0.1612778                   1

38 0
 s    3 1.00
             18.731137    0.03349459952309
             2.8253937    0.23472694665786
             0.6401217    0.81375731841339
 s    1 1.00
             0.1612778                   1

39 0
 s    6 1.00
             3047.5249  0.0018347001629433
             457.36951    0.01403730124668
             103.94869   0.068842606114048
             29.210155    0.23218442062076
              9.286663    0.46794134155879
              3.163927    0.36231203217765
 s    3 1.00
             7.8682724   -0.11933240861517
             1.8812885   -0.16085421161283
             0.5442493     1.1434564825515
 s    1 1.00
             0.1687144                   1
 p    3 1.00
             7.8682724   0.068999095584993
             1.8812885    0.31642397975315
             0.5442493    0.74430825237435
 p    1 1.00
             0.1687144                   1
 d    1 1.00
                   0.8                   1

40 0
 s    6 1.00
             3047.5249  0.0018347001629433
             457.36951    0.01403730124668
             103.94869   0.068842606114048
             29.210155    0.23218442062076
              9.286663    0.46794134155879
              3.163927    0.36231203217765
 s    3 1.00
             7.8682724   -0.11933240861517
             1.8812885   -0.16085421161283
             0.5442493     1.1434564825515
 s    1 1.00
             0.1687144                   1
 p    3 1.00
             7.8682724   0.068999095584993
             1.8812885    0.31642397975315
             0.5442493    0.74430825237435
 p    1 1.00
             0.1687144                   1
 d    1 1.00
                   0.8                   1

41 0
 s    3 1.00
             18.731137    0.03349459952309
             2.8253937    0.23472694665786
             0.6401217    0.81375731841339
 s    1 1.00
             0.1612778                   1

42 0
 s    6 1.00
             5484.6717   0.001831099805527
             825.23495   0.013950098518422
             188.04696    0.06844509273075
               52.9645    0.23271427528445
              16.89757    0.47019295006289
             5.7996353    0.35852086192309
 s    3 1.00
             15.539616   -0.11077750382508
             3.5999336   -0.14802630511126
             1.0137618     1.1307670390447
 s    1 1.00
             0.2700058                   1
 p    3 1.00
             15.539616   0.070874299543311
             3.5999336    0.33975279781076
             1.0137618    0.72715859531445
 p    1 1.00
             0.2700058                   1
 d    1 1.00
                   0.8                   1

43 0
 s    3 1.00
             18.731137    0.03349459952309
             2.8253937    0.23472694665786
             0.6401217    0.81375731841339
 s    1 1.00
             0.1612778                   1

[5d]
[7f]
[9g]

[MO]
 Sym= A
 Ene=               0
 Spin= Alpha
 Occup=    1.00000
   1     0.001298642267231
   2    4.6358358155647e-05
   3    0.0011543517052635
   4    2.3464413561639e-05
   5    6.138396785131e-05
   6    -0.00015429140925974
   7    -0.00045915866244732
   8    -0.00065265052225132
   9    0.0016221191292999
  10    7.4387052227118e-05
  11    -7.5748108831259e-05
  12    -2.5009730658701e-05
  13    -9.5180009632629e-06
  14    2.1934181762201e-05
  15    9.5109574838512e-05
  16    4.7615425809691e-05
  17    -0.022384592297081
  18    -0.00044776335249964
  19    -0.0003264031881489
  20    0.00012550790691025
  21    -3.6441059687963e-06
  22    -9.53465877363e-05
  23    0.00013683500492033
  24    -0.00011277510143194
  25    0.00094596786577657
  26    -4.9795381076304e-05
  27    -3.9536409106657e-05
  28    0.00011728490829089
  29    -4.8182675368964e-05
  30    7.2663384192333e-05
  31    4.9199941823439e-05
  32    -5.8326910158906e-05
  33    -0.017281060760976
  34    0.00087819830129341
  35    -0.006754262391211
  36    0.0011322954602692
  37    -0.00015000404899937
  38    -0.00024589512982908
  39    -0.0037833313763185
  40    -0.00017337001189871
  41    0.0018926408205716
  42    -0.000644589691765
  43    -0.00020352759456064
  44    1.3284443310735e-05
  45    0.0011103707622941
  46    -0.00039338688006461
  47    0.00042976180749595
  48    0.00034814919392589
  49     -0.99482652731653
  50    -0.035631871808434
  51     0.028474011129219
  52    0.0004837738864048
  53    -0.00019931315896935
  54    0.00023566502969202
  55    -0.0015301188210837
  56     0.001699306610994
  57    -0.0025892586598061
  58    -0.00019516747033475
  59    0.0007356258539627
  60    0.00037699595211845
  61    -0.00057524262548215
  62    -8.1870252593392e-05
  63    0.0010565496877094
  64    -0.0041174501506831
  65    1.2871894542453e-06
  66    7.1025975674748e-07
  67    3.2853944681496e-07
  68    2.5834005231101e-06
  69    -8.3937422685491e-06
  70    -2.445314466429e-06
  71    2.4557153670726e-06
  72    -1.2341195701469e-07
  73    -4.3734309251251e-06
  74    -1.5496418711494e-06
  75    1.8679577558541e-06
  76    1.4863223709461e-07
  77    5.6904756767055e-07
  78    -5.4142930998715e-07
  79    -2.9845679953755e-07
  80    3.6104836339765e-07
  81    -3.8889590606605e-07
  82    8.9834055425916e-07
  83    -2.8677416412392e-07
  84    1.0787031354156e-07
  85    6.157210399566e-05
  86    -2.1781997863679e-06
  87    2.1025312672892e-06
  88    -5.3947528168448e-06
  89    -1.8971795313347e-05
  90    1.9854054603189e-05
  91    -1.3159434980125e-05
  92    -6.7711396316706e-07
  93    2.0485199347054e-06
  94    -1.6776053171751e-06
  95    2.5974380465321e-07
  96     7.62450570788e-07
  97    -9.2995224267712e-07
  98    1.9683671601443e-06
  99    -1.9352391990581e-06
 100    1.8313752416799e-06
 101    3.964103364016e-07
 102    5.0446320358881e-06
 103    -0.00012148716201672
 104    -6.836682904552e-06
 105    -6.1816972778996e-06
 106    6.4168551952637e-06
 107    0.00012004519475601
 108    -0.00010644782095303
 109    -0.00012716006563958
 110    1.491851325544e-06
 111    7.8667018039163e-07
 112    -3.1102762016327e-07
 113    -5.6795015265889e-08
 114    3.9680929952533e-06
 115    1.1067482481987e-06
 116    9.4866043565873e-06
 117    -0.00011865454343636
 118    3.6855460590181e-06
 119    -2.8078265400795e-06
 120    -3.2307717029646e-06
 121    3.0471522395324e-05
 122    -1.1343841298977e-05
 123    -4.4455193272116e-05
 124    -1.8108380718305e-07
 125    1.8309497150363e-06
 126    -1.5832187149622e-07
 127    -5.0094544657618e-07
 128    1.9017103642759e-06
 129    2.5858071174179e-06
 130    2.5299492539538e-05
 131    -0.00027407726957485
 132    -9.4491155348976e-06
 133    -9.8131182212749e-06
 134    -9.6201571426791e-06
 135    0.0001958068643548
 136    -2.3233159761383e-05
 137    0.00039061313448622
 138    -1.2411794647043e-05
 139    -5.930198514515e-06
 140    -2.7620244831498e-06
 141    -7.0353993131162e-07
 142    -1.3443488861946e-06
 143    2.7143808399458e-06
 144    1.7686790373393e-05
 145    -6.2632792117222e-05
 146    -1.2142411042252e-06
 147    2.4096269315518e-06
 148    -2.0457185481003e-06
 149    -5.0317505682866e-05
 150    2.0497919916427e-07
 151    2.5040645762927e-05
 152    5.207019493374e-06
 153    1.3532878632959e-06
 154    1.9961617627354e-06
 155    -3.0476477481937e-06
 156    4.0022912477987e-06
 157    -4.5476462390585e-07
 158    -4.5015120717217e-06
 159    1.5534018909981e-05
 160    -7.8496518532369e-07
 161    -1.4529572741113e-06
 162    2.4827518054106e-06
 163    2.8676423450655e-05
 164    -6.5335523734386e-06
 165    -2.0778948793162e-06
 166    -2.5272368376257e-06
 167    8.1199157555383e-07
 168    -2.0187317094547e-07
 169    4.4125981308963e-07
 170    -1.8911002595215e-06
 171    6.2452688954259e-08
 172    -2.4297560339426e-06
 173    5.592093061368e-06
 174    4.1809997157216e-07
 175    6.0777749751612e-07
 176    -2.9115351576499e-06
 177    -3.9847252852145e-06
 178    -1.3670821005458e-05
 179    -4.3845362980294e-06
 180    1.8404581063436e-07
 181    -1.5462743989427e-06
 182    -4.2871682669329e-07
 183    1.1106497303133e-06
 184    -1.1314245882105e-06
 185    1.3391718244192e-06
 186    1.6894262131819e-05
 187    -2.5420594950099e-05
 188    1.3271421001863e-06
 189    -1.1009552519501e-06
 190    -7.5161005312344e-06
 191    -1.2050954463132e-05
 192    7.5716348433355e-06
 193    2.6800247105454e-05
 194    -1.458217714901e-06
 195    -1.7507339607404e-07
 196    -2.0090863991324e-06
 197    -6.4334625593082e-08
 198    3.8880562384053e-07
 199    4.0606702506235e-06
 200    2.7853990770349e-06
 201    -1.5033397046035e-06
 202    -1.7462417790496e-05
 203    3.5922975450288e-06
 204    4.6799857291292e-06
 205    5.6476611415211e-07
 206    1.3620402423117e-05
 207    1.7287008505788e-06
 208    -1.1617736436169e-05
 209    -4.7330890255095e-06
 210    1.2166833126847e-05
 211    -3.3349305071217e-06
 212     -9.3472609947e-06
 213    6.2079509257633e-07
 214    7.6843608596111e-06
 215    3.2055389951581e-06
 216    -1.8401661559746e-05
 217    -1.3427058618749e-06
 218    1.0437289092409e-06
 219    -2.589297459246e-06
 220    -4.2921361762582e-06
 221    4.8381122451374e-06
 222    3.069079182313e-05
 223    4.9517615167846e-05
 224    -1.7849828881689e-05
 225    1.5685606882954e-05
 226    -1.1809608572322e-05
 227    2.7706505549192e-05
 228    -9.2557590474104e-05
 229    0.0006042080366233
 230    1.2977676451532e-06
 231    2.2153800632188e-05
 232    7.9234289593457e-06
 233    -9.3057931046384e-06
 234    -7.3235148453608e-06
 235    -1.4835432844236e-05
 236    -1.8570523753898e-05
 237    0.00060535585299017
 238    5.1131080401717e-06
 239    1.9705490171753e-05
 240    -2.7220636014514e-05
 241    -4.3554879620218e-05
 242    -1.2844915429989e-05
 243    -3.1362904063639e-05
 244    2.0022440627633e-05
 245    -2.0305995276137e-05
 246    -6.7149240274161e-06
 247    -6.15049057734e-06
 248    4.4005369225598e-06
 249    2.890118070909e-05
 250    8.0951976468492e-06
 251    -1.1183417153228e-07
 252    0.00015064952095221
 253    -0.0021216065257915
 254    4.6285734663906e-05
 255    -1.7143862538427e-05
 256    2.8406110139256e-05
 257    -0.00094796553502232
 258    -0.00033725101444757
 259    0.00083425372146902
 260    -4.5339513158124e-05
 261    5.7649944173302e-05
 262    3.2406111203619e-05
 263    -3.6306758243941e-05
 264    -2.470547324738e-05
 265    1.1641832410005e-05
 266    -9.649046871888e-05
 267    -2.7122139892255e-05
 268    -0.00023202608090291
 269    0.00019554180651382
 270    -0.00044104463034597
 271    -0.010507676505022
 272    -0.0015133387895714
 273    -0.001417861229366
 274    0.0035467346050192
 275    0.0030556373736274
 276    -7.8880008560294e-05
 277    -0.0012551522322221
 278    0.00068737093144652
 279    -0.0010289189185608
 280    -0.00053667276181082