[Molden Format]
made by pyscf v[2.0.1]
[Atoms] (AU)
C   1   6     0.69100024066471     0.64692934207205    -3.48223131169301
H   2   1     2.68052439830868     1.13355088658700    -3.25784032593313
C   3   6    -0.36286361513219     0.85440132524594    -5.97030179418974
H   4   1    -2.35448549047279     0.36322488579172    -6.17995817793143
C   5   6     0.93697958957450     1.61209284601821    -8.05828437677121
H   6   1     2.82520634269342     2.40231158819155    -7.83223822317356
C   7   6    -0.04591716574067     1.43050675384137   -10.57963800872440
H   8   1    -1.93966227025444     0.63380613673234   -10.77641154630544
H   9   1     1.55630230933075    -1.92953025305990    12.99630010416247
C   10   6     0.75233899775814    -2.21270439606481    11.10705728102219
H   11   1    -0.43433408177274    -3.90944857546550    11.22216085340412
C   12   6     2.86362581178706    -2.63237380607947     9.17926416456045
H   13   1     4.39038949912609    -1.24955421540245     9.49899813497433
H   14   1     3.74629220191363    -4.48798724300892     9.47414880959024
C   15   6     2.02478325613682    -2.42177285709634     6.44560829588644
C   16   6     3.88048732735477    -3.58795445234514     4.61402886975252
C   17   6    -0.18412382258602    -1.30464291234259     5.76021113872346
C   18   6    -2.10044360464350    -0.26837831858460     7.71610340967100
C   19   6    -3.08956938670431     2.35282328359417     6.88693925039594
C   20   6    -4.37372924086464    -2.09766595989678     7.93610724222001
C   21   6    -0.83850430601230     0.06372213486173    10.33002307638377
H   22   1     0.38411922151109     1.74281358582432    10.27380136542181
H   23   1    -2.30980003007874     0.45460143924521    11.73986301809809
H   24   1     4.58527064644668    -5.38706904487420     5.36778158031719
H   25   1     5.54944938085014    -2.37631462192748     4.35398898413318
H   26   1     3.06633019150423    -3.94118377050688     2.75255466040884
H   27   1    -4.17727778763735     2.26573369139522     5.12914900961283
H   28   1    -1.52662344944051     3.68001877445626     6.59540397144508
H   29   1    -4.32916174397830     3.13643051467482     8.35225460090378
H   30   1    -5.32329548508442    -2.36691813602939     6.11583672749896
H   31   1    -5.77989366602257    -1.33896741843465     9.25748940450990
H   32   1    -3.79310905208926    -3.96389819310853     8.61386170102686
C   33   6    -1.01100794811226    -1.06331657314144     3.11929490449947
C   34   6     0.37686231036534    -0.33275864505552     1.09165013605873
H   35   1    -3.01671213906703    -1.40297922279997     2.77827895090944
C   36   6    -0.64382707979370    -0.11591880174385    -1.42063131251064
H   37   1     2.35569259782137     0.17174499283897     1.33641070251401
H   38   1    -2.63317482980319    -0.60229203511219    -1.66119700387645
C   39   6     1.17709071185639     2.16235266520763   -12.71162929579923
C   40   6     0.01149368127442     1.89967079998079   -15.19747007607967
H   41   1     3.06674924318564     2.97042403350516   -12.64854490967844
O   42   8     1.00001917973751     2.51860460578581   -17.18758625638360
H   43   1    -1.92257659968242     1.06364005135718   -15.17290072571517
[GTO]
1 0
 s    6 1.00
             3047.5249  0.0018347001629433
             457.36951    0.01403730124668
             103.94869   0.068842606114048
             29.210155    0.23218442062076
              9.286663    0.46794134155879
              3.163927    0.36231203217765
 s    3 1.00
             7.8682724   -0.11933240861517
             1.8812885   -0.16085421161283
             0.5442493     1.1434564825515
 s    1 1.00
             0.1687144                   1
 p    3 1.00
             7.8682724   0.068999095584993
             1.8812885    0.31642397975315
             0.5442493    0.74430825237435
 p    1 1.00
             0.1687144                   1
 d    1 1.00
                   0.8                   1

2 0
 s    3 1.00
             18.731137    0.03349459952309
             2.8253937    0.23472694665786
             0.6401217    0.81375731841339
 s    1 1.00
             0.1612778                   1

3 0
 s    6 1.00
             3047.5249  0.0018347001629433
             457.36951    0.01403730124668
             103.94869   0.068842606114048
             29.210155    0.23218442062076
              9.286663    0.46794134155879
              3.163927    0.36231203217765
 s    3 1.00
             7.8682724   -0.11933240861517
             1.8812885   -0.16085421161283
             0.5442493     1.1434564825515
 s    1 1.00
             0.1687144                   1
 p    3 1.00
             7.8682724   0.068999095584993
             1.8812885    0.31642397975315
             0.5442493    0.74430825237435
 p    1 1.00
             0.1687144                   1
 d    1 1.00
                   0.8                   1

4 0
 s    3 1.00
             18.731137    0.03349459952309
             2.8253937    0.23472694665786
             0.6401217    0.81375731841339
 s    1 1.00
             0.1612778                   1

5 0
 s    6 1.00
             3047.5249  0.0018347001629433
             457.36951    0.01403730124668
             103.94869   0.068842606114048
             29.210155    0.23218442062076
              9.286663    0.46794134155879
              3.163927    0.36231203217765
 s    3 1.00
             7.8682724   -0.11933240861517
             1.8812885   -0.16085421161283
             0.5442493     1.1434564825515
 s    1 1.00
             0.1687144                   1
 p    3 1.00
             7.8682724   0.068999095584993
             1.8812885    0.31642397975315
             0.5442493    0.74430825237435
 p    1 1.00
             0.1687144                   1
 d    1 1.00
                   0.8                   1

6 0
 s    3 1.00
             18.731137    0.03349459952309
             2.8253937    0.23472694665786
             0.6401217    0.81375731841339
 s    1 1.00
             0.1612778                   1

7 0
 s    6 1.00
             3047.5249  0.0018347001629433
             457.36951    0.01403730124668
             103.94869   0.068842606114048
             29.210155    0.23218442062076
              9.286663    0.46794134155879
              3.163927    0.36231203217765
 s    3 1.00
             7.8682724   -0.11933240861517
             1.8812885   -0.16085421161283
             0.5442493     1.1434564825515
 s    1 1.00
             0.1687144                   1
 p    3 1.00
             7.8682724   0.068999095584993
             1.8812885    0.31642397975315
             0.5442493    0.74430825237435
 p    1 1.00
             0.1687144                   1
 d    1 1.00
                   0.8                   1

8 0
 s    3 1.00
             18.731137    0.03349459952309
             2.8253937    0.23472694665786
             0.6401217    0.81375731841339
 s    1 1.00
             0.1612778                   1

9 0
 s    3 1.00
             18.731137    0.03349459952309
             2.8253937    0.23472694665786
             0.6401217    0.81375731841339
 s    1 1.00
             0.1612778                   1

10 0
 s    6 1.00
             3047.5249  0.0018347001629433
             457.36951    0.01403730124668
             103.94869   0.068842606114048
             29.210155    0.23218442062076
              9.286663    0.46794134155879
              3.163927    0.36231203217765
 s    3 1.00
             7.8682724   -0.11933240861517
             1.8812885   -0.16085421161283
             0.5442493     1.1434564825515
 s    1 1.00
             0.1687144                   1
 p    3 1.00
             7.8682724   0.068999095584993
             1.8812885    0.31642397975315
             0.5442493    0.74430825237435
 p    1 1.00
             0.1687144                   1
 d    1 1.00
                   0.8                   1

11 0
 s    3 1.00
             18.731137    0.03349459952309
             2.8253937    0.23472694665786
             0.6401217    0.81375731841339
 s    1 1.00
             0.1612778                   1

12 0
 s    6 1.00
             3047.5249  0.0018347001629433
             457.36951    0.01403730124668
             103.94869   0.068842606114048
             29.210155    0.23218442062076
              9.286663    0.46794134155879
              3.163927    0.36231203217765
 s    3 1.00
             7.8682724   -0.11933240861517
             1.8812885   -0.16085421161283
             0.5442493     1.1434564825515
 s    1 1.00
             0.1687144                   1
 p    3 1.00
             7.8682724   0.068999095584993
             1.8812885    0.31642397975315
             0.5442493    0.74430825237435
 p    1 1.00
             0.1687144                   1
 d    1 1.00
                   0.8                   1

13 0
 s    3 1.00
             18.731137    0.03349459952309
             2.8253937    0.23472694665786
             0.6401217    0.81375731841339
 s    1 1.00
             0.1612778                   1

14 0
 s    3 1.00
             18.731137    0.03349459952309
             2.8253937    0.23472694665786
             0.6401217    0.81375731841339
 s    1 1.00
             0.1612778                   1

15 0
 s    6 1.00
             3047.5249  0.0018347001629433
             457.36951    0.01403730124668
             103.94869   0.068842606114048
             29.210155    0.23218442062076
              9.286663    0.46794134155879
              3.163927    0.36231203217765
 s    3 1.00
             7.8682724   -0.11933240861517
             1.8812885   -0.16085421161283
             0.5442493     1.1434564825515
 s    1 1.00
             0.1687144                   1
 p    3 1.00
             7.8682724   0.068999095584993
             1.8812885    0.31642397975315
             0.5442493    0.74430825237435
 p    1 1.00
             0.1687144                   1
 d    1 1.00
                   0.8                   1

16 0
 s    6 1.00
             3047.5249  0.0018347001629433
             457.36951    0.01403730124668
             103.94869   0.068842606114048
             29.210155    0.23218442062076
              9.286663    0.46794134155879
              3.163927    0.36231203217765
 s    3 1.00
             7.8682724   -0.11933240861517
             1.8812885   -0.16085421161283
             0.5442493     1.1434564825515
 s    1 1.00
             0.1687144                   1
 p    3 1.00
             7.8682724   0.068999095584993
             1.8812885    0.31642397975315
             0.5442493    0.74430825237435
 p    1 1.00
             0.1687144                   1
 d    1 1.00
                   0.8                   1

17 0
 s    6 1.00
             3047.5249  0.0018347001629433
             457.36951    0.01403730124668
             103.94869   0.068842606114048
             29.210155    0.23218442062076
              9.286663    0.46794134155879
              3.163927    0.36231203217765
 s    3 1.00
             7.8682724   -0.11933240861517
             1.8812885   -0.16085421161283
             0.5442493     1.1434564825515
 s    1 1.00
             0.1687144                   1
 p    3 1.00
             7.8682724   0.068999095584993
             1.8812885    0.31642397975315
             0.5442493    0.74430825237435
 p    1 1.00
             0.1687144                   1
 d    1 1.00
                   0.8                   1

18 0
 s    6 1.00
             3047.5249  0.0018347001629433
             457.36951    0.01403730124668
             103.94869   0.068842606114048
             29.210155    0.23218442062076
              9.286663    0.46794134155879
              3.163927    0.36231203217765
 s    3 1.00
             7.8682724   -0.11933240861517
             1.8812885   -0.16085421161283
             0.5442493     1.1434564825515
 s    1 1.00
             0.1687144                   1
 p    3 1.00
             7.8682724   0.068999095584993
             1.8812885    0.31642397975315
             0.5442493    0.74430825237435
 p    1 1.00
             0.1687144                   1
 d    1 1.00
                   0.8                   1

19 0
 s    6 1.00
             3047.5249  0.0018347001629433
             457.36951    0.01403730124668
             103.94869   0.068842606114048
             29.210155    0.23218442062076
              9.286663    0.46794134155879
              3.163927    0.36231203217765
 s    3 1.00
             7.8682724   -0.11933240861517
             1.8812885   -0.16085421161283
             0.5442493     1.1434564825515
 s    1 1.00
             0.1687144                   1
 p    3 1.00
             7.8682724   0.068999095584993
             1.8812885    0.31642397975315
             0.5442493    0.74430825237435
 p    1 1.00
             0.1687144                   1
 d    1 1.00
                   0.8                   1

20 0
 s    6 1.00
             3047.5249  0.0018347001629433
             457.36951    0.01403730124668
             103.94869   0.068842606114048
             29.210155    0.23218442062076
              9.286663    0.46794134155879
              3.163927    0.36231203217765
 s    3 1.00
             7.8682724   -0.11933240861517
             1.8812885   -0.16085421161283
             0.5442493     1.1434564825515
 s    1 1.00
             0.1687144                   1
 p    3 1.00
             7.8682724   0.068999095584993
             1.8812885    0.31642397975315
             0.5442493    0.74430825237435
 p    1 1.00
             0.1687144                   1
 d    1 1.00
                   0.8                   1

21 0
 s    6 1.00
             3047.5249  0.0018347001629433
             457.36951    0.01403730124668
             103.94869   0.068842606114048
             29.210155    0.23218442062076
              9.286663    0.46794134155879
              3.163927    0.36231203217765
 s    3 1.00
             7.8682724   -0.11933240861517
             1.8812885   -0.16085421161283
             0.5442493     1.1434564825515
 s    1 1.00
             0.1687144                   1
 p    3 1.00
             7.8682724   0.068999095584993
             1.8812885    0.31642397975315
             0.5442493    0.74430825237435
 p    1 1.00
             0.1687144                   1
 d    1 1.00
                   0.8                   1

22 0
 s    3 1.00
             18.731137    0.03349459952309
             2.8253937    0.23472694665786
             0.6401217    0.81375731841339
 s    1 1.00
             0.1612778                   1

23 0
 s    3 1.00
             18.731137    0.03349459952309
             2.8253937    0.23472694665786
             0.6401217    0.81375731841339
 s    1 1.00
             0.1612778                   1

24 0
 s    3 1.00
             18.731137    0.03349459952309
             2.8253937    0.23472694665786
             0.6401217    0.81375731841339
 s    1 1.00
             0.1612778                   1

25 0
 s    3 1.00
             18.731137    0.03349459952309
             2.8253937    0.23472694665786
             0.6401217    0.81375731841339
 s    1 1.00
             0.1612778                   1

26 0
 s    3 1.00
             18.731137    0.03349459952309
             2.8253937    0.23472694665786
             0.6401217    0.81375731841339
 s    1 1.00
             0.1612778                   1

27 0
 s    3 1.00
             18.731137    0.03349459952309
             2.8253937    0.23472694665786
             0.6401217    0.81375731841339
 s    1 1.00
             0.1612778                   1

28 0
 s    3 1.00
             18.731137    0.03349459952309
             2.8253937    0.23472694665786
             0.6401217    0.81375731841339
 s    1 1.00
             0.1612778                   1

29 0
 s    3 1.00
             18.731137    0.03349459952309
             2.8253937    0.23472694665786
             0.6401217    0.81375731841339
 s    1 1.00
             0.1612778                   1

30 0
 s    3 1.00
             18.731137    0.03349459952309
             2.8253937    0.23472694665786
             0.6401217    0.81375731841339
 s    1 1.00
             0.1612778                   1

31 0
 s    3 1.00
             18.731137    0.03349459952309
             2.8253937    0.23472694665786
             0.6401217    0.81375731841339
 s    1 1.00
             0.1612778                   1

32 0
 s    3 1.00
             18.731137    0.03349459952309
             2.8253937    0.23472694665786
             0.6401217    0.81375731841339
 s    1 1.00
             0.1612778                   1

33 0
 s    6 1.00
             3047.5249  0.0018347001629433
             457.36951    0.01403730124668
             103.94869   0.068842606114048
             29.210155    0.23218442062076
              9.286663    0.46794134155879
              3.163927    0.36231203217765
 s    3 1.00
             7.8682724   -0.11933240861517
             1.8812885   -0.16085421161283
             0.5442493     1.1434564825515
 s    1 1.00
             0.1687144                   1
 p    3 1.00
             7.8682724   0.068999095584993
             1.8812885    0.31642397975315
             0.5442493    0.74430825237435
 p    1 1.00
             0.1687144                   1
 d    1 1.00
                   0.8                   1

34 0
 s    6 1.00
             3047.5249  0.0018347001629433
             457.36951    0.01403730124668
             103.94869   0.068842606114048
             29.210155    0.23218442062076
              9.286663    0.46794134155879
              3.163927    0.36231203217765
 s    3 1.00
             7.8682724   -0.11933240861517
             1.8812885   -0.16085421161283
             0.5442493     1.1434564825515
 s    1 1.00
             0.1687144                   1
 p    3 1.00
             7.8682724   0.068999095584993
             1.8812885    0.31642397975315
             0.5442493    0.74430825237435
 p    1 1.00
             0.1687144                   1
 d    1 1.00
                   0.8                   1

35 0
 s    3 1.00
             18.731137    0.03349459952309
             2.8253937    0.23472694665786
             0.6401217    0.81375731841339
 s    1 1.00
             0.1612778                   1

36 0
 s    6 1.00
             3047.5249  0.0018347001629433
             457.36951    0.01403730124668
             103.94869   0.068842606114048
             29.210155    0.23218442062076
              9.286663    0.46794134155879
              3.163927    0.36231203217765
 s    3 1.00
             7.8682724   -0.11933240861517
             1.8812885   -0.16085421161283
             0.5442493     1.1434564825515
 s    1 1.00
             0.1687144                   1
 p    3 1.00
             7.8682724   0.068999095584993
             1.8812885    0.31642397975315
             0.5442493    0.74430825237435
 p    1 1.00
             0.1687144                   1
 d    1 1.00
                   0.8                   1

37 0
 s    3 1.00
             18.731137    0.03349459952309
             2.8253937    0.23472694665786
             0.6401217    0.81375731841339
 s    1 1.00
             0.1612778                   1

38 0
 s    3 1.00
             18.731137    0.03349459952309
             2.8253937    0.23472694665786
             0.6401217    0.81375731841339
 s    1 1.00
             0.1612778                   1

39 0
 s    6 1.00
             3047.5249  0.0018347001629433
             457.36951    0.01403730124668
             103.94869   0.068842606114048
             29.210155    0.23218442062076
              9.286663    0.46794134155879
              3.163927    0.36231203217765
 s    3 1.00
             7.8682724   -0.11933240861517
             1.8812885   -0.16085421161283
             0.5442493     1.1434564825515
 s    1 1.00
             0.1687144                   1
 p    3 1.00
             7.8682724   0.068999095584993
             1.8812885    0.31642397975315
             0.5442493    0.74430825237435
 p    1 1.00
             0.1687144                   1
 d    1 1.00
                   0.8                   1

40 0
 s    6 1.00
             3047.5249  0.0018347001629433
             457.36951    0.01403730124668
             103.94869   0.068842606114048
             29.210155    0.23218442062076
              9.286663    0.46794134155879
              3.163927    0.36231203217765
 s    3 1.00
             7.8682724   -0.11933240861517
             1.8812885   -0.16085421161283
             0.5442493     1.1434564825515
 s    1 1.00
             0.1687144                   1
 p    3 1.00
             7.8682724   0.068999095584993
             1.8812885    0.31642397975315
             0.5442493    0.74430825237435
 p    1 1.00
             0.1687144                   1
 d    1 1.00
                   0.8                   1

41 0
 s    3 1.00
             18.731137    0.03349459952309
             2.8253937    0.23472694665786
             0.6401217    0.81375731841339
 s    1 1.00
             0.1612778                   1

42 0
 s    6 1.00
             5484.6717   0.001831099805527
             825.23495   0.013950098518422
             188.04696    0.06844509273075
               52.9645    0.23271427528445
              16.89757    0.47019295006289
             5.7996353    0.35852086192309
 s    3 1.00
             15.539616   -0.11077750382508
             3.5999336   -0.14802630511126
             1.0137618     1.1307670390447
 s    1 1.00
             0.2700058                   1
 p    3 1.00
             15.539616   0.070874299543311
             3.5999336    0.33975279781076
             1.0137618    0.72715859531445
 p    1 1.00
             0.2700058                   1
 d    1 1.00
                   0.8                   1

43 0
 s    3 1.00
             18.731137    0.03349459952309
             2.8253937    0.23472694665786
             0.6401217    0.81375731841339
 s    1 1.00
             0.1612778                   1

[5d]
[7f]
[9g]

[MO]
 Sym= A
 Ene=               0
 Spin= Alpha
 Occup=    1.00000
   1    -0.002738279949858
   2    -4.3411756827501e-05
   3    -0.00050169768257567
   4    1.8600628256945e-05
   5    2.5407860629184e-05
   6    -1.6112612639552e-05
   7    -2.5285373498645e-05
   8    -0.00033796340857241
   9    0.0013331340262433
  10    -1.9153136103543e-05
  11    -4.4407649153541e-05
  12    -3.9348880933712e-06
  13    -1.4008806990802e-05
  14    1.4114808994606e-06
  15    6.6549409856355e-05
  16    -0.00011266922240881
  17    -0.0058910824642473
  18    0.00010128375301601
  19    -0.00031676781333121
  20    -6.5703309955306e-05
  21    3.5967672137744e-06
  22    -0.00020061034487131
  23    0.00059491505316004
  24    -8.836090432687e-05
  25    0.0013289186494256
  26    6.3287975790509e-05
  27    -7.9492634633214e-07
  28    -1.057443492859e-05
  29    -9.8716701373029e-05
  30    -9.9749612631288e-05
  31    0.00015469984298558
  32     0.000534979411651
  33    -0.015420489561203
  34    0.00099209033345397
  35    -0.0070842934032592
  36    -0.00033382373501424
  37    -3.5725817348589e-05
  38    -0.0011508769048443
  39    -0.00016707294776022
  40    -0.00042488585805906
  41    0.0039792868060882
  42    0.00098461965191696
  43    0.00085411573642879
  44    0.00018623211741126
  45    0.00020279283057056
  46    9.4581688046226e-05
  47    0.00042704234480177
  48    0.00057432591742501
  49     -0.99509338272408
  50     -0.03565548162153
  51     0.028445230874272
  52    -0.00045723089866138
  53    -0.00014866802332062
  54    -0.00033452733621718
  55    0.0031692281267454
  56    0.0013335027028914
  57    0.00030064476402025
  58    -0.00084995806399441
  59    0.00032281619517196
  60    0.00031434444083602
  61    -0.0002080209453612
  62    -0.00027379959702208
  63    0.0010546403315533
  64    -0.0041545328009384
  65    7.2917741089081e-07
  66    1.0521770077263e-06
  67    -5.1573271202164e-08
  68    7.6187779188005e-07
  69    -2.7570964654391e-06
  70    -4.5397483540707e-07
  71    8.7279699377127e-07
  72    -4.1962797034463e-08
  73    -2.2706743093996e-06
  74    -3.4603199935981e-06
  75    -1.299931444937e-06
  76    6.6066130174188e-08
  77    1.3342447936334e-07
  78    -1.3197758204683e-07
  79    -1.417315466681e-07
  80    1.3275911114566e-07
  81    -4.6850553102096e-07
  82    -9.5731381895774e-07
  83    -3.1841436598212e-07
  84    1.2025046459211e-06
  85    2.2790696196632e-05
  86    -1.4343627361009e-06
  87    3.5476837495317e-07
  88    -2.9302304499621e-06
  89    -5.9016479861545e-06
  90    1.0373082399055e-05
  91    -5.4115643881863e-06
  92    -3.981577449926e-07
  93    5.1666485304217e-07
  94    -5.1956671853006e-07
  95    1.1273399925884e-08
  96    3.5347926125772e-07
  97    -8.9246935255022e-07
  98    -1.6763470264796e-06
  99    -4.7114670282069e-07
 100    2.1454343443158e-06
 101    6.346287764172e-07
 102    -7.4362863764271e-07
 103    -1.4533550952756e-05
 104    5.7586620078912e-07
 105    -9.4650161069362e-07
 106    2.1159013083891e-06
 107    3.7549798756105e-05
 108    -3.4598984064782e-05
 109    -5.6340908557513e-05
 110    1.5504219144621e-06
 111    7.1314692036806e-07
 112    -3.922552663092e-07
 113    -1.1182708755626e-07
 114    1.0505808268385e-06
 115    1.3296965702484e-06
 116    8.2749271919523e-06
 117    -6.5429685579739e-05
 118    8.2162167420099e-07
 119    -4.4356941354673e-07
 120    -2.0269659322647e-06
 121    1.8142893751694e-05
 122    -1.3238488893321e-05
 123    -6.7559415396821e-06
 124    1.1378514233591e-07
 125    8.0702352309773e-07
 126    -2.5946815543492e-07
 127    -6.7041017818059e-07
 128    6.5611752702478e-07
 129    -1.418361815234e-08
 130    1.5815686336977e-05
 131    -7.9058174963806e-05
 132    -5.0619047523704e-06
 133    -1.4749005527042e-06
 134    -1.1866816659862e-05
 135    3.7384429175115e-05
 136    1.6591031303834e-06
 137     0.000134576059749
 138    -3.407614594165e-06
 139    -2.7231736075211e-06
 140    -2.2419038727779e-07
 141    -7.6042677978603e-07
 142    -5.30741148262e-07
 143    1.0367908497632e-06
 144    8.9047855703176e-06
 145    -4.0555884920637e-05
 146    -1.2527511744496e-06
 147    -3.4575567381385e-07
 148    -2.2393371736362e-06
 149    -1.673894258784e-05
 150    7.6485219314767e-06
 151    2.4349614619498e-05
 152    1.7924477304101e-06
 153    1.2679074812229e-06
 154    4.6397350856862e-07
 155    -1.2196269283997e-06
 156    1.5277163274715e-06
 157    -4.6617899864854e-07
 158    -2.4440912721852e-06
 159    9.266987578098e-06
 160    -1.1422518978128e-06
 161    -4.6936370960275e-07
 162    3.1864412927428e-07
 163    1.1338007179203e-05
 164    -4.5665748118763e-06
 165    -5.6026229104648e-06
 166    -1.1758673762926e-06
 167    6.074076313864e-07
 168    1.7936553315049e-07
 169    -1.4912393594089e-07
 170    -4.4254106492621e-07
 171    9.6337313225309e-08
 172    2.7304963346766e-07
 173    8.9366307680825e-06
 174    1.3809173946881e-06
 175    2.5697212445392e-07
 176    -2.5872896015559e-06
 177    -5.8994921658662e-06
 178    -2.6467182943755e-06
 179    -8.5489981883879e-07
 180    2.2845046271123e-09
 181    -7.3808257166041e-07
 182    -3.1579826463596e-07
 183    5.0114023014171e-07
 184    -4.9976647311907e-07
 185    3.9125210086296e-07
 186    6.3880148870458e-06
 187    -1.4470541125074e-05
 188    3.604805706905e-07
 189    8.1564816426216e-08
 190    -2.0903779946284e-06
 191    -8.6313449187042e-07
 192    1.084301800071e-06
 193    1.2662314177316e-05
 194    -6.3730364765121e-07
 195    -1.8764188061454e-07
 196    -5.9678143330405e-07
 197    -1.693593395089e-07
 198    1.2857977903384e-07
 199    1.5791718155841e-06
 200    1.5554976174645e-06
 201    8.7332336069046e-08
 202    -5.2640974070804e-06
 203    2.0811940782748e-06
 204    -2.5399555944844e-06
 205    1.0240939019118e-06
 206    6.8353868032253e-06
 207    -1.4457136109166e-07
 208    9.8197476284432e-06
 209    -2.0015748068501e-06
 210    3.5020423185467e-06
 211    -1.6382767788257e-06
 212    -4.3331521822956e-06
 213    6.1002973076953e-08
 214    4.3705990915139e-06
 215    2.6457621096985e-06
 216    -1.1250717102406e-05
 217    -1.0317249306656e-06
 218    -3.6485559391577e-06
 219    -7.9005354204537e-07
 220    -8.1815952385644e-07
 221    7.8482951657269e-06
 222    1.2846044156066e-05
 223    -0.00010736079384354
 224    -2.7431736458199e-06
 225    -2.7857821568371e-06
 226    9.1138820147155e-06
 227    -3.0865484420195e-05
 228    -5.2569440088905e-05
 229    0.00021983675434098
 230    -1.5307574231133e-07
 231    9.2469158273558e-06
 232    3.5715799265579e-06
 233    -5.370760170769e-06
 234    -4.5297618027118e-06
 235    -5.3581645967992e-06
 236    3.9649797242815e-05
 237    0.00011688878632481
 238    1.0622807653436e-05
 239    1.1465326397297e-05
 240    -4.1270270805355e-05
 241    -4.1953423509266e-06
 242    -3.6558685234985e-05
 243    0.00015940011249809
 244    3.3836484373994e-07
 245    -1.2756160949835e-05
 246    -7.2002757537212e-07
 247    -6.1489097946114e-06
 248    2.2275470540115e-07
 249    1.5817771470808e-06
 250    3.909476871229e-06
 251    3.3668142101808e-05
 252    9.3576648868594e-05
 253    -0.00065048688335941
 254    -3.2372362457682e-05
 255    -1.5354648830181e-05
 256    1.6229184743432e-05
 257    -0.00045480260103288
 258    -0.00016746156040921
 259    0.00041618074002861
 260    -3.0756205710713e-06
 261    2.6691667452495e-05
 262    8.1073619165696e-06
 263    -1.2127506435645e-05
 264    -8.7683298002044e-06
 265    2.1385772242331e-05
 266    -2.7762951040142e-05
 267    5.9799268980843e-05
 268    -0.00017622424631259
 269    0.00019214543639955
 270    -0.00045570173082235
 271    -0.010403345356369
 272    -0.0025417197877952
 273    -0.0013684796324063
 274    0.0029337241670056
 275    -0.00040699927559081
 276    0.00014749927110526
 277    -0.0033347862965845
 278    0.0006665762542982
 279    -0.0010453378286581
 280    -0.00059511809026501