[Molden Format]
made by pyscf v[2.0.1]
[Atoms] (AU)
C   1   6     0.69100024066471     0.64692934207205    -3.48223131169301
H   2   1     2.68052439830868     1.13355088658700    -3.25784032593313
C   3   6    -0.36286361513219     0.85440132524594    -5.97030179418974
H   4   1    -2.35448549047279     0.36322488579172    -6.17995817793143
C   5   6     0.93697958957450     1.61209284601821    -8.05828437677121
H   6   1     2.50035468987728     2.93484935641869    -7.84122146962088
C   7   6     0.36255105159660     0.76050131278393   -10.56848504450332
H   8   1    -1.20802221204617    -0.56532983436663   -10.75608465244450
H   9   1     1.55630230933075    -1.92953025305990    12.99630010416247
C   10   6     0.75233899775814    -2.21270439606481    11.10705728102219
H   11   1    -0.43433408177274    -3.90944857546550    11.22216085340412
C   12   6     2.86362581178706    -2.63237380607947     9.17926416456045
H   13   1     4.39038949912609    -1.24955421540245     9.49899813497433
H   14   1     3.74629220191363    -4.48798724300892     9.47414880959024
C   15   6     2.02478325613682    -2.42177285709634     6.44560829588644
C   16   6     3.88048732735477    -3.58795445234514     4.61402886975252
C   17   6    -0.18412382258602    -1.30464291234259     5.76021113872346
C   18   6    -2.10044360464350    -0.26837831858460     7.71610340967100
C   19   6    -3.08956938670431     2.35282328359417     6.88693925039594
C   20   6    -4.37372924086464    -2.09766595989678     7.93610724222001
C   21   6    -0.83850430601230     0.06372213486173    10.33002307638377
H   22   1     0.38411922151109     1.74281358582432    10.27380136542181
H   23   1    -2.30980003007874     0.45460143924521    11.73986301809809
H   24   1     4.58527064644668    -5.38706904487420     5.36778158031719
H   25   1     5.54944938085014    -2.37631462192748     4.35398898413318
H   26   1     3.06633019150423    -3.94118377050688     2.75255466040884
H   27   1    -4.17727778763735     2.26573369139522     5.12914900961283
H   28   1    -1.52662344944051     3.68001877445626     6.59540397144508
H   29   1    -4.32916174397830     3.13643051467482     8.35225460090378
H   30   1    -5.32329548508442    -2.36691813602939     6.11583672749896
H   31   1    -5.77989366602257    -1.33896741843465     9.25748940450990
H   32   1    -3.79310905208926    -3.96389819310853     8.61386170102686
C   33   6    -1.01100794811226    -1.06331657314144     3.11929490449947
C   34   6     0.37686231036534    -0.33275864505552     1.09165013605873
H   35   1    -3.01671213906703    -1.40297922279997     2.77827895090944
C   36   6    -0.64382707979370    -0.11591880174385    -1.42063131251064
H   37   1     2.35569259782137     0.17174499283897     1.33641070251401
H   38   1    -2.63317482980319    -0.60229203511219    -1.66119700387645
C   39   6     1.60144441070444     1.46482489722556   -12.70057441592292
C   40   6     0.86980516734608     0.48994136718256   -15.17470632539007
H   41   1     3.18180515535191     2.77908821383906   -12.64635086980665
O   42   8     1.89724046327418     1.04291297454121   -17.16453627851552
H   43   1    -0.75645459108880    -0.84958730954869   -15.14122439828819
[GTO]
1 0
 s    6 1.00
             3047.5249  0.0018347001629433
             457.36951    0.01403730124668
             103.94869   0.068842606114048
             29.210155    0.23218442062076
              9.286663    0.46794134155879
              3.163927    0.36231203217765
 s    3 1.00
             7.8682724   -0.11933240861517
             1.8812885   -0.16085421161283
             0.5442493     1.1434564825515
 s    1 1.00
             0.1687144                   1
 p    3 1.00
             7.8682724   0.068999095584993
             1.8812885    0.31642397975315
             0.5442493    0.74430825237435
 p    1 1.00
             0.1687144                   1
 d    1 1.00
                   0.8                   1

2 0
 s    3 1.00
             18.731137    0.03349459952309
             2.8253937    0.23472694665786
             0.6401217    0.81375731841339
 s    1 1.00
             0.1612778                   1

3 0
 s    6 1.00
             3047.5249  0.0018347001629433
             457.36951    0.01403730124668
             103.94869   0.068842606114048
             29.210155    0.23218442062076
              9.286663    0.46794134155879
              3.163927    0.36231203217765
 s    3 1.00
             7.8682724   -0.11933240861517
             1.8812885   -0.16085421161283
             0.5442493     1.1434564825515
 s    1 1.00
             0.1687144                   1
 p    3 1.00
             7.8682724   0.068999095584993
             1.8812885    0.31642397975315
             0.5442493    0.74430825237435
 p    1 1.00
             0.1687144                   1
 d    1 1.00
                   0.8                   1

4 0
 s    3 1.00
             18.731137    0.03349459952309
             2.8253937    0.23472694665786
             0.6401217    0.81375731841339
 s    1 1.00
             0.1612778                   1

5 0
 s    6 1.00
             3047.5249  0.0018347001629433
             457.36951    0.01403730124668
             103.94869   0.068842606114048
             29.210155    0.23218442062076
              9.286663    0.46794134155879
              3.163927    0.36231203217765
 s    3 1.00
             7.8682724   -0.11933240861517
             1.8812885   -0.16085421161283
             0.5442493     1.1434564825515
 s    1 1.00
             0.1687144                   1
 p    3 1.00
             7.8682724   0.068999095584993
             1.8812885    0.31642397975315
             0.5442493    0.74430825237435
 p    1 1.00
             0.1687144                   1
 d    1 1.00
                   0.8                   1

6 0
 s    3 1.00
             18.731137    0.03349459952309
             2.8253937    0.23472694665786
             0.6401217    0.81375731841339
 s    1 1.00
             0.1612778                   1

7 0
 s    6 1.00
             3047.5249  0.0018347001629433
             457.36951    0.01403730124668
             103.94869   0.068842606114048
             29.210155    0.23218442062076
              9.286663    0.46794134155879
              3.163927    0.36231203217765
 s    3 1.00
             7.8682724   -0.11933240861517
             1.8812885   -0.16085421161283
             0.5442493     1.1434564825515
 s    1 1.00
             0.1687144                   1
 p    3 1.00
             7.8682724   0.068999095584993
             1.8812885    0.31642397975315
             0.5442493    0.74430825237435
 p    1 1.00
             0.1687144                   1
 d    1 1.00
                   0.8                   1

8 0
 s    3 1.00
             18.731137    0.03349459952309
             2.8253937    0.23472694665786
             0.6401217    0.81375731841339
 s    1 1.00
             0.1612778                   1

9 0
 s    3 1.00
             18.731137    0.03349459952309
             2.8253937    0.23472694665786
             0.6401217    0.81375731841339
 s    1 1.00
             0.1612778                   1

10 0
 s    6 1.00
             3047.5249  0.0018347001629433
             457.36951    0.01403730124668
             103.94869   0.068842606114048
             29.210155    0.23218442062076
              9.286663    0.46794134155879
              3.163927    0.36231203217765
 s    3 1.00
             7.8682724   -0.11933240861517
             1.8812885   -0.16085421161283
             0.5442493     1.1434564825515
 s    1 1.00
             0.1687144                   1
 p    3 1.00
             7.8682724   0.068999095584993
             1.8812885    0.31642397975315
             0.5442493    0.74430825237435
 p    1 1.00
             0.1687144                   1
 d    1 1.00
                   0.8                   1

11 0
 s    3 1.00
             18.731137    0.03349459952309
             2.8253937    0.23472694665786
             0.6401217    0.81375731841339
 s    1 1.00
             0.1612778                   1

12 0
 s    6 1.00
             3047.5249  0.0018347001629433
             457.36951    0.01403730124668
             103.94869   0.068842606114048
             29.210155    0.23218442062076
              9.286663    0.46794134155879
              3.163927    0.36231203217765
 s    3 1.00
             7.8682724   -0.11933240861517
             1.8812885   -0.16085421161283
             0.5442493     1.1434564825515
 s    1 1.00
             0.1687144                   1
 p    3 1.00
             7.8682724   0.068999095584993
             1.8812885    0.31642397975315
             0.5442493    0.74430825237435
 p    1 1.00
             0.1687144                   1
 d    1 1.00
                   0.8                   1

13 0
 s    3 1.00
             18.731137    0.03349459952309
             2.8253937    0.23472694665786
             0.6401217    0.81375731841339
 s    1 1.00
             0.1612778                   1

14 0
 s    3 1.00
             18.731137    0.03349459952309
             2.8253937    0.23472694665786
             0.6401217    0.81375731841339
 s    1 1.00
             0.1612778                   1

15 0
 s    6 1.00
             3047.5249  0.0018347001629433
             457.36951    0.01403730124668
             103.94869   0.068842606114048
             29.210155    0.23218442062076
              9.286663    0.46794134155879
              3.163927    0.36231203217765
 s    3 1.00
             7.8682724   -0.11933240861517
             1.8812885   -0.16085421161283
             0.5442493     1.1434564825515
 s    1 1.00
             0.1687144                   1
 p    3 1.00
             7.8682724   0.068999095584993
             1.8812885    0.31642397975315
             0.5442493    0.74430825237435
 p    1 1.00
             0.1687144                   1
 d    1 1.00
                   0.8                   1

16 0
 s    6 1.00
             3047.5249  0.0018347001629433
             457.36951    0.01403730124668
             103.94869   0.068842606114048
             29.210155    0.23218442062076
              9.286663    0.46794134155879
              3.163927    0.36231203217765
 s    3 1.00
             7.8682724   -0.11933240861517
             1.8812885   -0.16085421161283
             0.5442493     1.1434564825515
 s    1 1.00
             0.1687144                   1
 p    3 1.00
             7.8682724   0.068999095584993
             1.8812885    0.31642397975315
             0.5442493    0.74430825237435
 p    1 1.00
             0.1687144                   1
 d    1 1.00
                   0.8                   1

17 0
 s    6 1.00
             3047.5249  0.0018347001629433
             457.36951    0.01403730124668
             103.94869   0.068842606114048
             29.210155    0.23218442062076
              9.286663    0.46794134155879
              3.163927    0.36231203217765
 s    3 1.00
             7.8682724   -0.11933240861517
             1.8812885   -0.16085421161283
             0.5442493     1.1434564825515
 s    1 1.00
             0.1687144                   1
 p    3 1.00
             7.8682724   0.068999095584993
             1.8812885    0.31642397975315
             0.5442493    0.74430825237435
 p    1 1.00
             0.1687144                   1
 d    1 1.00
                   0.8                   1

18 0
 s    6 1.00
             3047.5249  0.0018347001629433
             457.36951    0.01403730124668
             103.94869   0.068842606114048
             29.210155    0.23218442062076
              9.286663    0.46794134155879
              3.163927    0.36231203217765
 s    3 1.00
             7.8682724   -0.11933240861517
             1.8812885   -0.16085421161283
             0.5442493     1.1434564825515
 s    1 1.00
             0.1687144                   1
 p    3 1.00
             7.8682724   0.068999095584993
             1.8812885    0.31642397975315
             0.5442493    0.74430825237435
 p    1 1.00
             0.1687144                   1
 d    1 1.00
                   0.8                   1

19 0
 s    6 1.00
             3047.5249  0.0018347001629433
             457.36951    0.01403730124668
             103.94869   0.068842606114048
             29.210155    0.23218442062076
              9.286663    0.46794134155879
              3.163927    0.36231203217765
 s    3 1.00
             7.8682724   -0.11933240861517
             1.8812885   -0.16085421161283
             0.5442493     1.1434564825515
 s    1 1.00
             0.1687144                   1
 p    3 1.00
             7.8682724   0.068999095584993
             1.8812885    0.31642397975315
             0.5442493    0.74430825237435
 p    1 1.00
             0.1687144                   1
 d    1 1.00
                   0.8                   1

20 0
 s    6 1.00
             3047.5249  0.0018347001629433
             457.36951    0.01403730124668
             103.94869   0.068842606114048
             29.210155    0.23218442062076
              9.286663    0.46794134155879
              3.163927    0.36231203217765
 s    3 1.00
             7.8682724   -0.11933240861517
             1.8812885   -0.16085421161283
             0.5442493     1.1434564825515
 s    1 1.00
             0.1687144                   1
 p    3 1.00
             7.8682724   0.068999095584993
             1.8812885    0.31642397975315
             0.5442493    0.74430825237435
 p    1 1.00
             0.1687144                   1
 d    1 1.00
                   0.8                   1

21 0
 s    6 1.00
             3047.5249  0.0018347001629433
             457.36951    0.01403730124668
             103.94869   0.068842606114048
             29.210155    0.23218442062076
              9.286663    0.46794134155879
              3.163927    0.36231203217765
 s    3 1.00
             7.8682724   -0.11933240861517
             1.8812885   -0.16085421161283
             0.5442493     1.1434564825515
 s    1 1.00
             0.1687144                   1
 p    3 1.00
             7.8682724   0.068999095584993
             1.8812885    0.31642397975315
             0.5442493    0.74430825237435
 p    1 1.00
             0.1687144                   1
 d    1 1.00
                   0.8                   1

22 0
 s    3 1.00
             18.731137    0.03349459952309
             2.8253937    0.23472694665786
             0.6401217    0.81375731841339
 s    1 1.00
             0.1612778                   1

23 0
 s    3 1.00
             18.731137    0.03349459952309
             2.8253937    0.23472694665786
             0.6401217    0.81375731841339
 s    1 1.00
             0.1612778                   1

24 0
 s    3 1.00
             18.731137    0.03349459952309
             2.8253937    0.23472694665786
             0.6401217    0.81375731841339
 s    1 1.00
             0.1612778                   1

25 0
 s    3 1.00
             18.731137    0.03349459952309
             2.8253937    0.23472694665786
             0.6401217    0.81375731841339
 s    1 1.00
             0.1612778                   1

26 0
 s    3 1.00
             18.731137    0.03349459952309
             2.8253937    0.23472694665786
             0.6401217    0.81375731841339
 s    1 1.00
             0.1612778                   1

27 0
 s    3 1.00
             18.731137    0.03349459952309
             2.8253937    0.23472694665786
             0.6401217    0.81375731841339
 s    1 1.00
             0.1612778                   1

28 0
 s    3 1.00
             18.731137    0.03349459952309
             2.8253937    0.23472694665786
             0.6401217    0.81375731841339
 s    1 1.00
             0.1612778                   1

29 0
 s    3 1.00
             18.731137    0.03349459952309
             2.8253937    0.23472694665786
             0.6401217    0.81375731841339
 s    1 1.00
             0.1612778                   1

30 0
 s    3 1.00
             18.731137    0.03349459952309
             2.8253937    0.23472694665786
             0.6401217    0.81375731841339
 s    1 1.00
             0.1612778                   1

31 0
 s    3 1.00
             18.731137    0.03349459952309
             2.8253937    0.23472694665786
             0.6401217    0.81375731841339
 s    1 1.00
             0.1612778                   1

32 0
 s    3 1.00
             18.731137    0.03349459952309
             2.8253937    0.23472694665786
             0.6401217    0.81375731841339
 s    1 1.00
             0.1612778                   1

33 0
 s    6 1.00
             3047.5249  0.0018347001629433
             457.36951    0.01403730124668
             103.94869   0.068842606114048
             29.210155    0.23218442062076
              9.286663    0.46794134155879
              3.163927    0.36231203217765
 s    3 1.00
             7.8682724   -0.11933240861517
             1.8812885   -0.16085421161283
             0.5442493     1.1434564825515
 s    1 1.00
             0.1687144                   1
 p    3 1.00
             7.8682724   0.068999095584993
             1.8812885    0.31642397975315
             0.5442493    0.74430825237435
 p    1 1.00
             0.1687144                   1
 d    1 1.00
                   0.8                   1

34 0
 s    6 1.00
             3047.5249  0.0018347001629433
             457.36951    0.01403730124668
             103.94869   0.068842606114048
             29.210155    0.23218442062076
              9.286663    0.46794134155879
              3.163927    0.36231203217765
 s    3 1.00
             7.8682724   -0.11933240861517
             1.8812885   -0.16085421161283
             0.5442493     1.1434564825515
 s    1 1.00
             0.1687144                   1
 p    3 1.00
             7.8682724   0.068999095584993
             1.8812885    0.31642397975315
             0.5442493    0.74430825237435
 p    1 1.00
             0.1687144                   1
 d    1 1.00
                   0.8                   1

35 0
 s    3 1.00
             18.731137    0.03349459952309
             2.8253937    0.23472694665786
             0.6401217    0.81375731841339
 s    1 1.00
             0.1612778                   1

36 0
 s    6 1.00
             3047.5249  0.0018347001629433
             457.36951    0.01403730124668
             103.94869   0.068842606114048
             29.210155    0.23218442062076
              9.286663    0.46794134155879
              3.163927    0.36231203217765
 s    3 1.00
             7.8682724   -0.11933240861517
             1.8812885   -0.16085421161283
             0.5442493     1.1434564825515
 s    1 1.00
             0.1687144                   1
 p    3 1.00
             7.8682724   0.068999095584993
             1.8812885    0.31642397975315
             0.5442493    0.74430825237435
 p    1 1.00
             0.1687144                   1
 d    1 1.00
                   0.8                   1

37 0
 s    3 1.00
             18.731137    0.03349459952309
             2.8253937    0.23472694665786
             0.6401217    0.81375731841339
 s    1 1.00
             0.1612778                   1

38 0
 s    3 1.00
             18.731137    0.03349459952309
             2.8253937    0.23472694665786
             0.6401217    0.81375731841339
 s    1 1.00
             0.1612778                   1

39 0
 s    6 1.00
             3047.5249  0.0018347001629433
             457.36951    0.01403730124668
             103.94869   0.068842606114048
             29.210155    0.23218442062076
              9.286663    0.46794134155879
              3.163927    0.36231203217765
 s    3 1.00
             7.8682724   -0.11933240861517
             1.8812885   -0.16085421161283
             0.5442493     1.1434564825515
 s    1 1.00
             0.1687144                   1
 p    3 1.00
             7.8682724   0.068999095584993
             1.8812885    0.31642397975315
             0.5442493    0.74430825237435
 p    1 1.00
             0.1687144                   1
 d    1 1.00
                   0.8                   1

40 0
 s    6 1.00
             3047.5249  0.0018347001629433
             457.36951    0.01403730124668
             103.94869   0.068842606114048
             29.210155    0.23218442062076
              9.286663    0.46794134155879
              3.163927    0.36231203217765
 s    3 1.00
             7.8682724   -0.11933240861517
             1.8812885   -0.16085421161283
             0.5442493     1.1434564825515
 s    1 1.00
             0.1687144                   1
 p    3 1.00
             7.8682724   0.068999095584993
             1.8812885    0.31642397975315
             0.5442493    0.74430825237435
 p    1 1.00
             0.1687144                   1
 d    1 1.00
                   0.8                   1

41 0
 s    3 1.00
             18.731137    0.03349459952309
             2.8253937    0.23472694665786
             0.6401217    0.81375731841339
 s    1 1.00
             0.1612778                   1

42 0
 s    6 1.00
             5484.6717   0.001831099805527
             825.23495   0.013950098518422
             188.04696    0.06844509273075
               52.9645    0.23271427528445
              16.89757    0.47019295006289
             5.7996353    0.35852086192309
 s    3 1.00
             15.539616   -0.11077750382508
             3.5999336   -0.14802630511126
             1.0137618     1.1307670390447
 s    1 1.00
             0.2700058                   1
 p    3 1.00
             15.539616   0.070874299543311
             3.5999336    0.33975279781076
             1.0137618    0.72715859531445
 p    1 1.00
             0.2700058                   1
 d    1 1.00
                   0.8                   1

43 0
 s    3 1.00
             18.731137    0.03349459952309
             2.8253937    0.23472694665786
             0.6401217    0.81375731841339
 s    1 1.00
             0.1612778                   1

[5d]
[7f]
[9g]

[MO]
 Sym= A
 Ene=               0
 Spin= Alpha
 Occup=    1.00000
   1    0.0031245397042308
   2    5.6805355925164e-05
   3    0.00034203974954188
   4    9.3165768141004e-06
   5    -3.6222360357006e-05
   6    1.928986887176e-05
   7    -0.00016640601006879
   8     0.000217525659515
   9    -0.00057808576139243
  10    -6.2955542781216e-06
  11    1.2147066898309e-05
  12    6.6108431652164e-06
  13    8.6692235999174e-06
  14    4.8245223004286e-06
  15    -2.8161368808236e-05
  16    0.00014016067829586
  17     0.022518781572195
  18    0.00042600566419864
  19    0.00066969390701146
  20    -8.9877275549236e-06
  21    6.4451169378616e-06
  22    0.00018357321297059
  23    0.00021748099427161
  24    0.00028636667141051
  25    -0.0011125331335192
  26    -2.7256919171549e-05
  27    -1.3793261430961e-05
  28    1.8457680424022e-05
  29    3.8995162316661e-05
  30    0.00013787631779985
  31    -0.00012304474991976
  32    -2.9319840732353e-05
  33     0.016754309643576
  34    -0.00095444869743965
  35    0.0065779767661462
  36    0.00018420172918381
  37    0.0003368338494971
  38    0.0011049225855752
  39    0.00051316757089283
  40    -0.00023450169331132
  41    -0.004203178768244
  42    -0.0009959203470561
  43    -0.0005035775404465
  44    -0.00071589878687166
  45    4.9745038282662e-05
  46    -0.00021960589312077
  47    -0.00042444473050146
  48    -0.00042854193869548
  49       0.9948304253281
  50     0.035614109037906
  51    -0.028493752732844
  52    0.00038639396047226
  53    0.00030600847218414
  54    0.00031529272611395
  55    -0.0027408487591896
  56    -0.002273238193918
  57    -0.00010083324106783
  58    0.00084604364333469
  59    -0.00044696398549605
  60    -9.5914127681894e-05
  61    0.00011224352261338
  62    0.00032418477380296
  63    -0.0010639237630044
  64    0.0040880961260162
  65    -6.5677044593018e-07
  66    -2.0392806230704e-06
  67    1.1163595715485e-07
  68    2.4501203310776e-07
  69    9.2337231381105e-07
  70    1.6906589141567e-07
  71    -4.7603196860633e-07
  72    -3.5108511429383e-07
  73    1.7739180792936e-06
  74    3.3580717864643e-06
  75    2.5007914696525e-06
  76    -1.7440424704445e-07
  77    -1.153890941189e-07
  78    2.5679071784844e-08
  79    3.2579612770354e-08
  80    -1.4333262174951e-07
  81    4.3513155092958e-07
  82    1.2012502224419e-06
  83    1.7963894965757e-07
  84    -2.1208630768894e-06
  85    -1.6664582089163e-05
  86    9.3167500154518e-07
  87    -6.0122852811721e-07
  88    2.6133698732424e-06
  89    2.2900941296321e-06
  90    -5.9163283793529e-06
  91    5.7673581697082e-06
  92    4.2254299262501e-07
  93    -2.6937118912209e-07
  94    7.5433731436366e-08
  95    1.1227764422529e-07
  96    -3.759188150434e-07
  97    6.1438743684637e-08
  98    9.020486691426e-07
  99    7.0500247933767e-07
 100    -1.2438667178025e-06
 101    -2.4872214933718e-07
 102    2.9024425431921e-06
 103    -3.3522361824616e-05
 104    3.4187974074618e-07
 105    1.5194615314136e-06
 106    -1.1620309662607e-06
 107    -1.5723013102868e-05
 108    1.6209547347507e-05
 109    5.6942458076229e-05
 110    -1.8734685893708e-06
 111    -1.0857552851043e-06
 112    5.319383771456e-07
 113    -2.2514220294904e-07
 114    -2.9810551400429e-07
 115    -1.3150780072927e-06
 116    -8.8065436519952e-06
 117    5.8101980161292e-05
 118    -2.846595345398e-07
 119    -1.5873473947671e-06
 120    3.3370505065736e-06
 121    -2.0665748303018e-05
 122    2.2262745893801e-05
 123    4.5290185169052e-07
 124    -3.4812043017969e-07
 125    -7.1386230749508e-07
 126    6.8206379970873e-07
 127    9.1101670983598e-07
 128    -5.764840621989e-07
 129    1.401604382722e-07
 130    -1.4372414707906e-05
 131    4.8526709805943e-05
 132    3.0998562431727e-06
 133    3.351394525119e-06
 134    1.2609045438524e-05
 135    2.2037152621081e-05
 136    -1.2645490357895e-05
 137    -0.0001035553421325
 138    2.1456557962715e-06
 139    2.3024620517239e-06
 140    -9.1966591549778e-07
 141    9.911102456927e-07
 142    -2.4862826758072e-07
 143    -1.1581122319459e-06
 144    -8.609136965033e-06
 145    6.0695325684262e-05
 146    1.1512229117211e-06
 147    -1.1742349620318e-07
 148    -3.2484022217229e-07
 149    2.2242762382485e-05
 150    -1.8124552508532e-05
 151    -2.0065536783389e-05
 152    -9.3070850589299e-07
 153    -1.4436166671821e-06
 154    3.1885660112216e-07
 155    1.109945609268e-06
 156    -1.0145467829561e-06
 157    2.6563637355505e-07
 158    1.5497153663814e-07
 159    -8.7601591860157e-08
 160    4.8012361392237e-07
 161    6.1029707772558e-07
 162    9.0805969735827e-09
 163    -6.7351076772624e-06
 164    1.3706681735139e-06
 165    4.2688549030831e-06
 166    7.7418598870521e-07
 167    -6.4212653648646e-07
 168    -1.8580854318792e-07
 169    5.6758136653333e-08
 170    1.4802435627988e-07
 171    -2.4524040328012e-07
 172    -9.3331849023403e-07
 173    -4.3482189140161e-06
 174    -4.1153912311398e-07
 175    8.8174821981458e-08
 176    1.8002361945192e-06
 177    -3.7115493445062e-07
 178    7.1288078223643e-07
 179    -1.7044528379013e-06
 180    1.2307371569768e-07
 181    2.0102623704725e-07
 182    4.1182563820082e-07
 183    -6.5416708283978e-07
 184    1.6421931917314e-09
 185    6.0042374915566e-09
 186    -3.1853341887006e-06
 187    6.5068002822992e-07
 188    2.7842108659103e-07
 189    -1.3113794563399e-08
 190    2.3462170414721e-06
 191    -6.6904985400211e-07
 192    1.5108706712643e-06
 193    -4.3946147539061e-06
 194    1.4205302859333e-07
 195    -1.3396603035338e-07
 196    1.0058759257148e-07
 197    3.8529112953986e-07
 198    -2.2329714287207e-07
 199    -5.4222492587215e-07
 200    -7.2638410785067e-07
 201    1.3007327480851e-07
 202    3.8448388962729e-06
 203    -4.0537422194127e-07
 204    9.0033219088429e-06
 205    -2.9494146015124e-06
 206    -5.6818048331464e-06
 207    -1.6393974406349e-06
 208    -8.2092135299646e-06
 209    9.4608134246228e-07
 210    -3.5395138149495e-06
 211    9.628578766774e-07
 212    2.1744782531865e-06
 213    -2.7348207608033e-08
 214    -1.9195253947213e-06
 215    -9.1399093305556e-07
 216    -9.9721332870193e-07
 217    2.3123739879694e-07
 218    2.4662769606703e-06
 219    3.7608664730234e-07
 220    1.0772946249261e-06
 221    -6.7307469597588e-06
 222    3.8048051034119e-06
 223    4.8803478306334e-06
 224    1.1041199039688e-06
 225    2.1589407743455e-06
 226    -1.2773162427444e-05
 227    1.8650173369774e-05
 228    2.9963926856875e-05
 229    -8.60577319041e-05
 230    -1.8757916291129e-06
 231    -4.9780778406391e-06
 232    1.007803666363e-07
 233    3.5180265085785e-06
 234    2.3857940788069e-06
 235    4.7170240569779e-06
 236    -5.0954606219188e-05
 237    0.00018691601407963
 238    -1.193484610663e-05
 239    -1.3760448705354e-05
 240    3.3652457487909e-05
 241    -6.6430194051889e-05
 242    3.3609276776423e-05
 243    -0.00018636719826085
 244    6.7117120644565e-06
 245    8.9890464597126e-06
 246    -4.1942140538183e-06
 247    5.2644510380845e-06
 248    -1.392711543097e-06
 249    1.953063117097e-06
 250    1.6531331087171e-05
 251    -3.2371078794107e-05
 252    -6.9852983760259e-05
 253    7.511673032881e-05
 254    2.7806426325601e-05
 255    1.513816717419e-05
 256    4.249652774453e-07
 257    0.00012318279874336
 258    2.4910058454152e-05
 259    -0.00037829092250792
 260    -4.526005288736e-06
 261    -2.0620149758025e-05
 262    1.9590313812146e-07
 263    1.2691194620588e-05
 264    2.3155411875604e-06
 265    -1.8304119787867e-05
 266    5.6103745942988e-06
 267    -5.5132364697934e-05
 268    5.1588359915568e-05
 269    -0.00019244592733428
 270    0.0004412975969274
 271     0.010611557209041
 272    0.0024318943176456
 273    0.0015436033533924
 274    -0.0029251904296426
 275    -4.9216474511194e-05
 276    0.00044734503085414
 277    0.0033485350243954
 278    -0.00066509450646879
 279    0.0010229295019153
 280    0.00062659650883549
 281    -0.00019186182882344