[Molden Format]
made by pyscf v[2.0.1]
[Atoms] (AU)
C   1   6     0.69100024066471     0.64692934207205    -3.48223131169301
H   2   1     2.68052439830868     1.13355088658700    -3.25784032593313
C   3   6    -0.36286361513219     0.85440132524594    -5.97030179418974
H   4   1    -2.35448549047279     0.36322488579172    -6.17995817793143
C   5   6     0.93697958957450     1.61209284601821    -8.05828437677121
H   6   1     1.79023114573091     3.48620134168797    -8.08322278856913
C   7   6     1.25568723688000     0.06665493916240   -10.26426053014808
H   8   1     0.39118722523993    -1.80671768770582   -10.21099750517578
H   9   1     1.55630230933075    -1.92953025305990    12.99630010416247
C   10   6     0.75233899775814    -2.21270439606481    11.10705728102219
H   11   1    -0.43433408177274    -3.90944857546550    11.22216085340412
C   12   6     2.86362581178706    -2.63237380607947     9.17926416456045
H   13   1     4.39038949912609    -1.24955421540245     9.49899813497433
H   14   1     3.74629220191363    -4.48798724300892     9.47414880959024
C   15   6     2.02478325613682    -2.42177285709634     6.44560829588644
C   16   6     3.88048732735477    -3.58795445234514     4.61402886975252
C   17   6    -0.18412382258602    -1.30464291234259     5.76021113872346
C   18   6    -2.10044360464350    -0.26837831858460     7.71610340967100
C   19   6    -3.08956938670431     2.35282328359417     6.88693925039594
C   20   6    -4.37372924086464    -2.09766595989678     7.93610724222001
C   21   6    -0.83850430601230     0.06372213486173    10.33002307638377
H   22   1     0.38411922151109     1.74281358582432    10.27380136542181
H   23   1    -2.30980003007874     0.45460143924521    11.73986301809809
H   24   1     4.58527064644668    -5.38706904487420     5.36778158031719
H   25   1     5.54944938085014    -2.37631462192748     4.35398898413318
H   26   1     3.06633019150423    -3.94118377050688     2.75255466040884
H   27   1    -4.17727778763735     2.26573369139522     5.12914900961283
H   28   1    -1.52662344944051     3.68001877445626     6.59540397144508
H   29   1    -4.32916174397830     3.13643051467482     8.35225460090378
H   30   1    -5.32329548508442    -2.36691813602939     6.11583672749896
H   31   1    -5.77989366602257    -1.33896741843465     9.25748940450990
H   32   1    -3.79310905208926    -3.96389819310853     8.61386170102686
C   33   6    -1.01100794811226    -1.06331657314144     3.11929490449947
C   34   6     0.37686231036534    -0.33275864505552     1.09165013605873
H   35   1    -3.01671213906703    -1.40297922279997     2.77827895090944
C   36   6    -0.64382707979370    -0.11591880174385    -1.42063131251064
H   37   1     2.35569259782137     0.17174499283897     1.33641070251401
H   38   1    -2.63317482980319    -0.60229203511219    -1.66119700387645
C   39   6     2.53016326718275     0.74184279311179   -12.38477126217512
C   40   6     2.74761784180424    -0.97075180884473   -14.53576076061004
H   41   1     3.43489191747297     2.57981441042514   -12.56110828288274
O   42   8     3.86136937293188    -0.48701494751058   -16.49697984673750
H   43   1     1.79359090776017    -2.83108880557309   -14.27278208139205
[GTO]
1 0
 s    6 1.00
             3047.5249  0.0018347001629433
             457.36951    0.01403730124668
             103.94869   0.068842606114048
             29.210155    0.23218442062076
              9.286663    0.46794134155879
              3.163927    0.36231203217765
 s    3 1.00
             7.8682724   -0.11933240861517
             1.8812885   -0.16085421161283
             0.5442493     1.1434564825515
 s    1 1.00
             0.1687144                   1
 p    3 1.00
             7.8682724   0.068999095584993
             1.8812885    0.31642397975315
             0.5442493    0.74430825237435
 p    1 1.00
             0.1687144                   1
 d    1 1.00
                   0.8                   1

2 0
 s    3 1.00
             18.731137    0.03349459952309
             2.8253937    0.23472694665786
             0.6401217    0.81375731841339
 s    1 1.00
             0.1612778                   1

3 0
 s    6 1.00
             3047.5249  0.0018347001629433
             457.36951    0.01403730124668
             103.94869   0.068842606114048
             29.210155    0.23218442062076
              9.286663    0.46794134155879
              3.163927    0.36231203217765
 s    3 1.00
             7.8682724   -0.11933240861517
             1.8812885   -0.16085421161283
             0.5442493     1.1434564825515
 s    1 1.00
             0.1687144                   1
 p    3 1.00
             7.8682724   0.068999095584993
             1.8812885    0.31642397975315
             0.5442493    0.74430825237435
 p    1 1.00
             0.1687144                   1
 d    1 1.00
                   0.8                   1

4 0
 s    3 1.00
             18.731137    0.03349459952309
             2.8253937    0.23472694665786
             0.6401217    0.81375731841339
 s    1 1.00
             0.1612778                   1

5 0
 s    6 1.00
             3047.5249  0.0018347001629433
             457.36951    0.01403730124668
             103.94869   0.068842606114048
             29.210155    0.23218442062076
              9.286663    0.46794134155879
              3.163927    0.36231203217765
 s    3 1.00
             7.8682724   -0.11933240861517
             1.8812885   -0.16085421161283
             0.5442493     1.1434564825515
 s    1 1.00
             0.1687144                   1
 p    3 1.00
             7.8682724   0.068999095584993
             1.8812885    0.31642397975315
             0.5442493    0.74430825237435
 p    1 1.00
             0.1687144                   1
 d    1 1.00
                   0.8                   1

6 0
 s    3 1.00
             18.731137    0.03349459952309
             2.8253937    0.23472694665786
             0.6401217    0.81375731841339
 s    1 1.00
             0.1612778                   1

7 0
 s    6 1.00
             3047.5249  0.0018347001629433
             457.36951    0.01403730124668
             103.94869   0.068842606114048
             29.210155    0.23218442062076
              9.286663    0.46794134155879
              3.163927    0.36231203217765
 s    3 1.00
             7.8682724   -0.11933240861517
             1.8812885   -0.16085421161283
             0.5442493     1.1434564825515
 s    1 1.00
             0.1687144                   1
 p    3 1.00
             7.8682724   0.068999095584993
             1.8812885    0.31642397975315
             0.5442493    0.74430825237435
 p    1 1.00
             0.1687144                   1
 d    1 1.00
                   0.8                   1

8 0
 s    3 1.00
             18.731137    0.03349459952309
             2.8253937    0.23472694665786
             0.6401217    0.81375731841339
 s    1 1.00
             0.1612778                   1

9 0
 s    3 1.00
             18.731137    0.03349459952309
             2.8253937    0.23472694665786
             0.6401217    0.81375731841339
 s    1 1.00
             0.1612778                   1

10 0
 s    6 1.00
             3047.5249  0.0018347001629433
             457.36951    0.01403730124668
             103.94869   0.068842606114048
             29.210155    0.23218442062076
              9.286663    0.46794134155879
              3.163927    0.36231203217765
 s    3 1.00
             7.8682724   -0.11933240861517
             1.8812885   -0.16085421161283
             0.5442493     1.1434564825515
 s    1 1.00
             0.1687144                   1
 p    3 1.00
             7.8682724   0.068999095584993
             1.8812885    0.31642397975315
             0.5442493    0.74430825237435
 p    1 1.00
             0.1687144                   1
 d    1 1.00
                   0.8                   1

11 0
 s    3 1.00
             18.731137    0.03349459952309
             2.8253937    0.23472694665786
             0.6401217    0.81375731841339
 s    1 1.00
             0.1612778                   1

12 0
 s    6 1.00
             3047.5249  0.0018347001629433
             457.36951    0.01403730124668
             103.94869   0.068842606114048
             29.210155    0.23218442062076
              9.286663    0.46794134155879
              3.163927    0.36231203217765
 s    3 1.00
             7.8682724   -0.11933240861517
             1.8812885   -0.16085421161283
             0.5442493     1.1434564825515
 s    1 1.00
             0.1687144                   1
 p    3 1.00
             7.8682724   0.068999095584993
             1.8812885    0.31642397975315
             0.5442493    0.74430825237435
 p    1 1.00
             0.1687144                   1
 d    1 1.00
                   0.8                   1

13 0
 s    3 1.00
             18.731137    0.03349459952309
             2.8253937    0.23472694665786
             0.6401217    0.81375731841339
 s    1 1.00
             0.1612778                   1

14 0
 s    3 1.00
             18.731137    0.03349459952309
             2.8253937    0.23472694665786
             0.6401217    0.81375731841339
 s    1 1.00
             0.1612778                   1

15 0
 s    6 1.00
             3047.5249  0.0018347001629433
             457.36951    0.01403730124668
             103.94869   0.068842606114048
             29.210155    0.23218442062076
              9.286663    0.46794134155879
              3.163927    0.36231203217765
 s    3 1.00
             7.8682724   -0.11933240861517
             1.8812885   -0.16085421161283
             0.5442493     1.1434564825515
 s    1 1.00
             0.1687144                   1
 p    3 1.00
             7.8682724   0.068999095584993
             1.8812885    0.31642397975315
             0.5442493    0.74430825237435
 p    1 1.00
             0.1687144                   1
 d    1 1.00
                   0.8                   1

16 0
 s    6 1.00
             3047.5249  0.0018347001629433
             457.36951    0.01403730124668
             103.94869   0.068842606114048
             29.210155    0.23218442062076
              9.286663    0.46794134155879
              3.163927    0.36231203217765
 s    3 1.00
             7.8682724   -0.11933240861517
             1.8812885   -0.16085421161283
             0.5442493     1.1434564825515
 s    1 1.00
             0.1687144                   1
 p    3 1.00
             7.8682724   0.068999095584993
             1.8812885    0.31642397975315
             0.5442493    0.74430825237435
 p    1 1.00
             0.1687144                   1
 d    1 1.00
                   0.8                   1

17 0
 s    6 1.00
             3047.5249  0.0018347001629433
             457.36951    0.01403730124668
             103.94869   0.068842606114048
             29.210155    0.23218442062076
              9.286663    0.46794134155879
              3.163927    0.36231203217765
 s    3 1.00
             7.8682724   -0.11933240861517
             1.8812885   -0.16085421161283
             0.5442493     1.1434564825515
 s    1 1.00
             0.1687144                   1
 p    3 1.00
             7.8682724   0.068999095584993
             1.8812885    0.31642397975315
             0.5442493    0.74430825237435
 p    1 1.00
             0.1687144                   1
 d    1 1.00
                   0.8                   1

18 0
 s    6 1.00
             3047.5249  0.0018347001629433
             457.36951    0.01403730124668
             103.94869   0.068842606114048
             29.210155    0.23218442062076
              9.286663    0.46794134155879
              3.163927    0.36231203217765
 s    3 1.00
             7.8682724   -0.11933240861517
             1.8812885   -0.16085421161283
             0.5442493     1.1434564825515
 s    1 1.00
             0.1687144                   1
 p    3 1.00
             7.8682724   0.068999095584993
             1.8812885    0.31642397975315
             0.5442493    0.74430825237435
 p    1 1.00
             0.1687144                   1
 d    1 1.00
                   0.8                   1

19 0
 s    6 1.00
             3047.5249  0.0018347001629433
             457.36951    0.01403730124668
             103.94869   0.068842606114048
             29.210155    0.23218442062076
              9.286663    0.46794134155879
              3.163927    0.36231203217765
 s    3 1.00
             7.8682724   -0.11933240861517
             1.8812885   -0.16085421161283
             0.5442493     1.1434564825515
 s    1 1.00
             0.1687144                   1
 p    3 1.00
             7.8682724   0.068999095584993
             1.8812885    0.31642397975315
             0.5442493    0.74430825237435
 p    1 1.00
             0.1687144                   1
 d    1 1.00
                   0.8                   1

20 0
 s    6 1.00
             3047.5249  0.0018347001629433
             457.36951    0.01403730124668
             103.94869   0.068842606114048
             29.210155    0.23218442062076
              9.286663    0.46794134155879
              3.163927    0.36231203217765
 s    3 1.00
             7.8682724   -0.11933240861517
             1.8812885   -0.16085421161283
             0.5442493     1.1434564825515
 s    1 1.00
             0.1687144                   1
 p    3 1.00
             7.8682724   0.068999095584993
             1.8812885    0.31642397975315
             0.5442493    0.74430825237435
 p    1 1.00
             0.1687144                   1
 d    1 1.00
                   0.8                   1

21 0
 s    6 1.00
             3047.5249  0.0018347001629433
             457.36951    0.01403730124668
             103.94869   0.068842606114048
             29.210155    0.23218442062076
              9.286663    0.46794134155879
              3.163927    0.36231203217765
 s    3 1.00
             7.8682724   -0.11933240861517
             1.8812885   -0.16085421161283
             0.5442493     1.1434564825515
 s    1 1.00
             0.1687144                   1
 p    3 1.00
             7.8682724   0.068999095584993
             1.8812885    0.31642397975315
             0.5442493    0.74430825237435
 p    1 1.00
             0.1687144                   1
 d    1 1.00
                   0.8                   1

22 0
 s    3 1.00
             18.731137    0.03349459952309
             2.8253937    0.23472694665786
             0.6401217    0.81375731841339
 s    1 1.00
             0.1612778                   1

23 0
 s    3 1.00
             18.731137    0.03349459952309
             2.8253937    0.23472694665786
             0.6401217    0.81375731841339
 s    1 1.00
             0.1612778                   1

24 0
 s    3 1.00
             18.731137    0.03349459952309
             2.8253937    0.23472694665786
             0.6401217    0.81375731841339
 s    1 1.00
             0.1612778                   1

25 0
 s    3 1.00
             18.731137    0.03349459952309
             2.8253937    0.23472694665786
             0.6401217    0.81375731841339
 s    1 1.00
             0.1612778                   1

26 0
 s    3 1.00
             18.731137    0.03349459952309
             2.8253937    0.23472694665786
             0.6401217    0.81375731841339
 s    1 1.00
             0.1612778                   1

27 0
 s    3 1.00
             18.731137    0.03349459952309
             2.8253937    0.23472694665786
             0.6401217    0.81375731841339
 s    1 1.00
             0.1612778                   1

28 0
 s    3 1.00
             18.731137    0.03349459952309
             2.8253937    0.23472694665786
             0.6401217    0.81375731841339
 s    1 1.00
             0.1612778                   1

29 0
 s    3 1.00
             18.731137    0.03349459952309
             2.8253937    0.23472694665786
             0.6401217    0.81375731841339
 s    1 1.00
             0.1612778                   1

30 0
 s    3 1.00
             18.731137    0.03349459952309
             2.8253937    0.23472694665786
             0.6401217    0.81375731841339
 s    1 1.00
             0.1612778                   1

31 0
 s    3 1.00
             18.731137    0.03349459952309
             2.8253937    0.23472694665786
             0.6401217    0.81375731841339
 s    1 1.00
             0.1612778                   1

32 0
 s    3 1.00
             18.731137    0.03349459952309
             2.8253937    0.23472694665786
             0.6401217    0.81375731841339
 s    1 1.00
             0.1612778                   1

33 0
 s    6 1.00
             3047.5249  0.0018347001629433
             457.36951    0.01403730124668
             103.94869   0.068842606114048
             29.210155    0.23218442062076
              9.286663    0.46794134155879
              3.163927    0.36231203217765
 s    3 1.00
             7.8682724   -0.11933240861517
             1.8812885   -0.16085421161283
             0.5442493     1.1434564825515
 s    1 1.00
             0.1687144                   1
 p    3 1.00
             7.8682724   0.068999095584993
             1.8812885    0.31642397975315
             0.5442493    0.74430825237435
 p    1 1.00
             0.1687144                   1
 d    1 1.00
                   0.8                   1

34 0
 s    6 1.00
             3047.5249  0.0018347001629433
             457.36951    0.01403730124668
             103.94869   0.068842606114048
             29.210155    0.23218442062076
              9.286663    0.46794134155879
              3.163927    0.36231203217765
 s    3 1.00
             7.8682724   -0.11933240861517
             1.8812885   -0.16085421161283
             0.5442493     1.1434564825515
 s    1 1.00
             0.1687144                   1
 p    3 1.00
             7.8682724   0.068999095584993
             1.8812885    0.31642397975315
             0.5442493    0.74430825237435
 p    1 1.00
             0.1687144                   1
 d    1 1.00
                   0.8                   1

35 0
 s    3 1.00
             18.731137    0.03349459952309
             2.8253937    0.23472694665786
             0.6401217    0.81375731841339
 s    1 1.00
             0.1612778                   1

36 0
 s    6 1.00
             3047.5249  0.0018347001629433
             457.36951    0.01403730124668
             103.94869   0.068842606114048
             29.210155    0.23218442062076
              9.286663    0.46794134155879
              3.163927    0.36231203217765
 s    3 1.00
             7.8682724   -0.11933240861517
             1.8812885   -0.16085421161283
             0.5442493     1.1434564825515
 s    1 1.00
             0.1687144                   1
 p    3 1.00
             7.8682724   0.068999095584993
             1.8812885    0.31642397975315
             0.5442493    0.74430825237435
 p    1 1.00
             0.1687144                   1
 d    1 1.00
                   0.8                   1

37 0
 s    3 1.00
             18.731137    0.03349459952309
             2.8253937    0.23472694665786
             0.6401217    0.81375731841339
 s    1 1.00
             0.1612778                   1

38 0
 s    3 1.00
             18.731137    0.03349459952309
             2.8253937    0.23472694665786
             0.6401217    0.81375731841339
 s    1 1.00
             0.1612778                   1

39 0
 s    6 1.00
             3047.5249  0.0018347001629433
             457.36951    0.01403730124668
             103.94869   0.068842606114048
             29.210155    0.23218442062076
              9.286663    0.46794134155879
              3.163927    0.36231203217765
 s    3 1.00
             7.8682724   -0.11933240861517
             1.8812885   -0.16085421161283
             0.5442493     1.1434564825515
 s    1 1.00
             0.1687144                   1
 p    3 1.00
             7.8682724   0.068999095584993
             1.8812885    0.31642397975315
             0.5442493    0.74430825237435
 p    1 1.00
             0.1687144                   1
 d    1 1.00
                   0.8                   1

40 0
 s    6 1.00
             3047.5249  0.0018347001629433
             457.36951    0.01403730124668
             103.94869   0.068842606114048
             29.210155    0.23218442062076
              9.286663    0.46794134155879
              3.163927    0.36231203217765
 s    3 1.00
             7.8682724   -0.11933240861517
             1.8812885   -0.16085421161283
             0.5442493     1.1434564825515
 s    1 1.00
             0.1687144                   1
 p    3 1.00
             7.8682724   0.068999095584993
             1.8812885    0.31642397975315
             0.5442493    0.74430825237435
 p    1 1.00
             0.1687144                   1
 d    1 1.00
                   0.8                   1

41 0
 s    3 1.00
             18.731137    0.03349459952309
             2.8253937    0.23472694665786
             0.6401217    0.81375731841339
 s    1 1.00
             0.1612778                   1

42 0
 s    6 1.00
             5484.6717   0.001831099805527
             825.23495   0.013950098518422
             188.04696    0.06844509273075
               52.9645    0.23271427528445
              16.89757    0.47019295006289
             5.7996353    0.35852086192309
 s    3 1.00
             15.539616   -0.11077750382508
             3.5999336   -0.14802630511126
             1.0137618     1.1307670390447
 s    1 1.00
             0.2700058                   1
 p    3 1.00
             15.539616   0.070874299543311
             3.5999336    0.33975279781076
             1.0137618    0.72715859531445
 p    1 1.00
             0.2700058                   1
 d    1 1.00
                   0.8                   1

43 0
 s    3 1.00
             18.731137    0.03349459952309
             2.8253937    0.23472694665786
             0.6401217    0.81375731841339
 s    1 1.00
             0.1612778                   1

[5d]
[7f]
[9g]

[MO]
 Sym= A
 Ene=               0
 Spin= Alpha
 Occup=    1.00000
   1    1.6785547499659e-06
   2    -1.9388435358611e-05
   3    0.00011822032554748
   4    2.9873075938678e-07
   5    1.493383034086e-05
   6    1.6348355861584e-05
   7    -7.3589478704163e-05
   8    -7.7962574628756e-05
   9    -6.8979837591904e-05
  10    -4.3975371395692e-06
  11    3.1408727411568e-06
  12    3.1786312468182e-06
  13    8.7542530015856e-06
  14    -4.9492935370632e-06
  15    -1.0547093292757e-06
  16    2.9959412534297e-05
  17    -5.5863895445849e-07
  18    0.00010207103289361
  19    0.00077346902655337
  20    4.2396145877834e-05
  21    -9.6047991147342e-06
  22    -7.6353060440791e-05
  23    0.00019406963648203
  24    -8.2984768187632e-07
  25    -0.00069079790156439
  26    2.6017048330474e-05
  27    -2.0365360039044e-05
  28    -7.686008723412e-06
  29    3.7875243016808e-05
  30    -2.3043827614047e-05
  31    -2.4163201782199e-06
  32    5.877129769026e-06
  33    7.5564637793954e-05
  34    0.00026031573286315
  35    -0.0044599672224553
  36    -6.0403741976834e-05
  37    6.5838455969134e-05
  38    0.00022002597551158
  39    0.0004081288374438
  40    0.0017473968781526
  41    0.00095679697617386
  42    -8.1233278170793e-05
  43    6.1426348355086e-05
  44    -9.3135980701415e-05
  45    3.8333214125941e-05
  46    -1.145782672687e-05
  47    -1.0433820832134e-05
  48    -0.00025814485764034
  49    -5.3687346052047e-05
  50    0.00030732296639742
  51    0.0036349290721874
  52    9.8998448611204e-05
  53    -0.00029854076220541
  54    -0.00052808129326969
  55    -0.00031128735623601
  56    0.0022405159944772
  57      0.00283471492275
  58    4.0649894014132e-05
  59    7.4893110858654e-05
  60    0.00016843817059021
  61    -1.2852310826006e-05
  62    -0.00010484271354909
  63    0.00039651156417876
  64    0.00013714281006877
  65    -1.6842921827877e-07
  66    -6.5238197944823e-07
  67    -1.1044641687538e-08
  68    -1.4072379849399e-07
  69    2.4988978739719e-06
  70    4.7956734102492e-08
  71    -7.4253236430444e-08
  72    -4.2022777010623e-08
  73    -3.4764562406857e-07
  74    9.3333821903761e-07
  75    7.7098447162815e-07
  76    -7.6091970983984e-08
  77    -1.0556324267058e-07
  78    1.4290414152373e-08
  79    4.5041593985855e-08
  80    -7.9601883678832e-08
  81    6.8579847047775e-09
  82    -1.1244585303804e-07
  83    -3.8182545107056e-08
  84    -2.8656081181522e-07
  85    -5.2555155927329e-06
  86    2.3873062570892e-07
  87    1.6115202213984e-07
  88    3.3530135784694e-07
  89    1.4728539594073e-06
  90    -1.8332993845888e-06
  91    1.1659801446745e-06
  92    1.274562558104e-07
  93    -1.0430501548376e-07
  94    2.6911843008036e-08
  95    5.0317861957793e-08
  96    -9.5282541451546e-08
  97    1.1175275828002e-07
  98    3.3977749356403e-07
  99    -1.2796356017522e-08
 100    -4.4418445887029e-07
 101    3.2138577158372e-08
 102    -8.0128068158386e-07
 103    2.0402017284889e-07
 104    3.1346207080386e-07
 105    -3.5405874445366e-07
 106    2.1953983568231e-07
 107    -6.814101473886e-06
 108    5.1437844455113e-06
 109    1.5298134886441e-05
 110    -4.73986386493e-07
 111    -5.0066410503261e-07
 112    2.4384331182242e-07
 113    6.044763055034e-07
 114    -7.5779009234334e-09
 115    -4.3108350123514e-07
 116    -3.9572131704469e-06
 117    2.522730776042e-05
 118    -3.7044333104546e-07
 119    6.4028247955058e-07
 120    5.9640181442504e-07
 121    -4.7258354039468e-06
 122    4.1614559582604e-07
 123    -3.410158416865e-06
 124    -9.0258969320874e-08
 125    1.2529027193471e-07
 126    -5.7034518520709e-08
 127    -7.2410914439479e-08
 128    -1.1657572740872e-07
 129    -5.7970958909077e-07
 130    -6.6821112134319e-06
 131    1.5371368033183e-05
 132    -9.9141787818024e-07
 133    -1.7385661732788e-06
 134    3.4418625640098e-06
 135    9.5615616991345e-07
 136    3.8156690716453e-06
 137    -3.6903554659865e-05
 138    1.3071351400786e-06
 139    5.3607784214113e-07
 140    -2.1335148728188e-07
 141    3.0027445241484e-07
 142    -1.3803291654229e-07
 143    -1.4568497355325e-07
 144    -4.9428642502184e-07
 145    1.0558313389098e-05
 146    5.095685246638e-07
 147    9.5215459862095e-07
 148    -9.1923101511852e-07
 149    6.2519999666467e-06
 150    -1.3045565004745e-05
 151    4.6707429469357e-06
 152    -5.8493868206554e-07
 153    -1.5124320369039e-07
 154    3.5530189625629e-07
 155    4.5445476476816e-07
 156    -1.2208181364967e-07
 157    -1.3238256737388e-07
 158    -4.4899132085513e-07
 159    9.1485095172069e-06
 160    5.4357427135281e-07
 161    -5.1057022424116e-07
 162    3.0108038257115e-07
 163    -1.1762468868265e-06
 164    -3.2317506754457e-06
 165    1.2999637682468e-08
 166    -6.2485526930718e-08
 167    1.3259311933299e-07
 168    -6.661086098196e-08
 169    -1.8071514163626e-07
 170    -6.2051642127079e-08
 171    4.0868574706269e-08
 172    -3.1248287410662e-07
 173    -2.9177932792223e-06
 174    -5.4470785760542e-07
 175    -5.998024495948e-08
 176    2.5901474189534e-07
 177    -2.6783224241783e-06
 178    -3.9004333103825e-07
 179    -2.9089960467896e-06
 180    1.9470449877085e-07
 181    -1.5625167185484e-07
 182    -8.4754733057314e-08
 183    -3.8175038080765e-07
 184    -9.7473090468655e-08
 185    -5.2699975881941e-08
 186    -8.6959667283266e-07
 187    -3.1600271417649e-06
 188    5.9489700763951e-08
 189    1.0285329339202e-07
 190    6.7791431542451e-07
 191    2.1957552072223e-06
 192    3.0719168378517e-06
 193    -1.810464874754e-06
 194    2.2380430306914e-07
 195    -1.8335623063893e-07
 196    -2.8279399435672e-07
 197    8.3715366822378e-08
 198    -1.1479882173857e-07
 199    -2.6657243293883e-07
 200    -1.5815282314006e-06
 201    1.9543486903552e-07
 202    2.0511968024782e-06
 203    -1.1410301719371e-06
 204    -8.6642219337958e-07
 205    -7.6699986641223e-07
 206    -1.7115045519831e-06
 207    1.8407558992692e-06
 208    -1.5407686076137e-05
 209    1.2269942868137e-07
 210    -2.6687279403279e-06
 211    -2.5414806942404e-07
 212    1.0986888487025e-06
 213    -2.6789810750898e-07
 214    -9.6581033360735e-07
 215    1.1294824935181e-07
 216    -3.1491283073333e-06
 217    1.9710445128697e-07
 218    9.3167142989269e-07
 219    -6.4395072013078e-08
 220    1.1654574575973e-06
 221    -2.8277227139887e-08
 222    -1.5504053521081e-06
 223    -3.7800283384454e-05
 224    -1.1726218504849e-06
 225    -3.7940685418182e-08
 226    1.3745914302414e-06
 227    1.0070579440277e-05
 228    4.7974293022825e-06
 229    -2.4684016266085e-06
 230    -1.8976025388585e-06
 231    -5.1505234858322e-07
 232    -4.8553462834622e-07
 233    4.1426176761425e-07
 234    1.6575306011511e-06
 235    -2.3048802090957e-06
 236    -1.9183726392231e-05
 237    0.00017112664695857
 238    -4.9211449841455e-07
 239    5.6367629290411e-06
 240    5.9043757421754e-07
 241    -5.6170751027055e-05
 242    -1.9642302848258e-05
 243    -9.8088072854438e-05
 244    6.5531397275693e-06
 245    4.0853867193936e-06
 246    1.3266444733677e-06
 247    1.7585374681376e-06
 248    3.0192019988987e-06
 249    5.9856591532687e-07
 250    1.2740146734395e-05
 251    -1.2642921654101e-06
 252    -4.3345938504821e-06
 253    -0.00010734907457552
 254    9.2963019638295e-06
 255    -1.2150837745582e-05
 256    8.8874040921759e-06
 257    -4.4575944597183e-05
 258    8.4181162218558e-05
 259    -0.00015969468796272
 260    -4.5984226505517e-06
 261    -6.2666118648216e-06
 262    -4.1743338498299e-06
 263    1.9805105868707e-06
 264    6.9752833855628e-06
 265    -3.0910508707715e-06
 266    1.9769748536015e-05
 267    -1.0897063292468e-05
 268    1.5902196502833e-05
 269    -6.7934557529945e-05
 270    2.9461748431765e-05
 271     0.003060178325669
 272    -0.00017331678349543
 273    -0.00021743638838169
 274    0.00011107199410364
 275     0.001806360651203
 276    0.00063608065252071
 277    -0.0033729099489269
 278    0.00030768886229339
 279    -0.00015296031574153