[Molden Format]
made by pyscf v[2.0.1]
[Atoms] (AU)
C   1   6     0.69100024066471     0.64692934207205    -3.48223131169301
H   2   1     2.68052439830868     1.13355088658700    -3.25784032593313
C   3   6    -0.36286361513219     0.85440132524594    -5.97030179418974
H   4   1    -2.35448549047279     0.36322488579172    -6.17995817793143
C   5   6     0.93697958957450     1.61209284601821    -8.05828437677121
H   6   1     0.14022243979667     3.08603065646166    -9.25562650474843
C   7   6     3.33155915073320     0.56926267114995    -8.78956929307971
H   8   1     4.10661901770469    -0.90506612570738    -7.57081623325171
H   9   1     1.55630230933075    -1.92953025305990    12.99630010416247
C   10   6     0.75233899775814    -2.21270439606481    11.10705728102219
H   11   1    -0.43433408177274    -3.90944857546550    11.22216085340412
C   12   6     2.86362581178706    -2.63237380607947     9.17926416456045
H   13   1     4.39038949912609    -1.24955421540245     9.49899813497433
H   14   1     3.74629220191363    -4.48798724300892     9.47414880959024
C   15   6     2.02478325613682    -2.42177285709634     6.44560829588644
C   16   6     3.88048732735477    -3.58795445234514     4.61402886975252
C   17   6    -0.18412382258602    -1.30464291234259     5.76021113872346
C   18   6    -2.10044360464350    -0.26837831858460     7.71610340967100
C   19   6    -3.08956938670431     2.35282328359417     6.88693925039594
C   20   6    -4.37372924086464    -2.09766595989678     7.93610724222001
C   21   6    -0.83850430601230     0.06372213486173    10.33002307638377
H   22   1     0.38411922151109     1.74281358582432    10.27380136542181
H   23   1    -2.30980003007874     0.45460143924521    11.73986301809809
H   24   1     4.58527064644668    -5.38706904487420     5.36778158031719
H   25   1     5.54944938085014    -2.37631462192748     4.35398898413318
H   26   1     3.06633019150423    -3.94118377050688     2.75255466040884
H   27   1    -4.17727778763735     2.26573369139522     5.12914900961283
H   28   1    -1.52662344944051     3.68001877445626     6.59540397144508
H   29   1    -4.32916174397830     3.13643051467482     8.35225460090378
H   30   1    -5.32329548508442    -2.36691813602939     6.11583672749896
H   31   1    -5.77989366602257    -1.33896741843465     9.25748940450990
H   32   1    -3.79310905208926    -3.96389819310853     8.61386170102686
C   33   6    -1.01100794811226    -1.06331657314144     3.11929490449947
C   34   6     0.37686231036534    -0.33275864505552     1.09165013605873
H   35   1    -3.01671213906703    -1.40297922279997     2.77827895090944
C   36   6    -0.64382707979370    -0.11591880174385    -1.42063131251064
H   37   1     2.35569259782137     0.17174499283897     1.33641070251401
H   38   1    -2.63317482980319    -0.60229203511219    -1.66119700387645
C   39   6     4.69106502259275     1.26188352336463   -10.85081981009206
C   40   6     7.11506387067225     0.08270412537969   -11.43459041306820
H   41   1     4.02727424636240     2.71762167762249   -12.14232148362751
O   42   8     8.43283181269616     0.61123359193353   -13.25254761350674
H   43   1     7.72125158488297    -1.39686243822724   -10.06214800755086
[GTO]
1 0
 s    6 1.00
             3047.5249  0.0018347001629433
             457.36951    0.01403730124668
             103.94869   0.068842606114048
             29.210155    0.23218442062076
              9.286663    0.46794134155879
              3.163927    0.36231203217765
 s    3 1.00
             7.8682724   -0.11933240861517
             1.8812885   -0.16085421161283
             0.5442493     1.1434564825515
 s    1 1.00
             0.1687144                   1
 p    3 1.00
             7.8682724   0.068999095584993
             1.8812885    0.31642397975315
             0.5442493    0.74430825237435
 p    1 1.00
             0.1687144                   1
 d    1 1.00
                   0.8                   1

2 0
 s    3 1.00
             18.731137    0.03349459952309
             2.8253937    0.23472694665786
             0.6401217    0.81375731841339
 s    1 1.00
             0.1612778                   1

3 0
 s    6 1.00
             3047.5249  0.0018347001629433
             457.36951    0.01403730124668
             103.94869   0.068842606114048
             29.210155    0.23218442062076
              9.286663    0.46794134155879
              3.163927    0.36231203217765
 s    3 1.00
             7.8682724   -0.11933240861517
             1.8812885   -0.16085421161283
             0.5442493     1.1434564825515
 s    1 1.00
             0.1687144                   1
 p    3 1.00
             7.8682724   0.068999095584993
             1.8812885    0.31642397975315
             0.5442493    0.74430825237435
 p    1 1.00
             0.1687144                   1
 d    1 1.00
                   0.8                   1

4 0
 s    3 1.00
             18.731137    0.03349459952309
             2.8253937    0.23472694665786
             0.6401217    0.81375731841339
 s    1 1.00
             0.1612778                   1

5 0
 s    6 1.00
             3047.5249  0.0018347001629433
             457.36951    0.01403730124668
             103.94869   0.068842606114048
             29.210155    0.23218442062076
              9.286663    0.46794134155879
              3.163927    0.36231203217765
 s    3 1.00
             7.8682724   -0.11933240861517
             1.8812885   -0.16085421161283
             0.5442493     1.1434564825515
 s    1 1.00
             0.1687144                   1
 p    3 1.00
             7.8682724   0.068999095584993
             1.8812885    0.31642397975315
             0.5442493    0.74430825237435
 p    1 1.00
             0.1687144                   1
 d    1 1.00
                   0.8                   1

6 0
 s    3 1.00
             18.731137    0.03349459952309
             2.8253937    0.23472694665786
             0.6401217    0.81375731841339
 s    1 1.00
             0.1612778                   1

7 0
 s    6 1.00
             3047.5249  0.0018347001629433
             457.36951    0.01403730124668
             103.94869   0.068842606114048
             29.210155    0.23218442062076
              9.286663    0.46794134155879
              3.163927    0.36231203217765
 s    3 1.00
             7.8682724   -0.11933240861517
             1.8812885   -0.16085421161283
             0.5442493     1.1434564825515
 s    1 1.00
             0.1687144                   1
 p    3 1.00
             7.8682724   0.068999095584993
             1.8812885    0.31642397975315
             0.5442493    0.74430825237435
 p    1 1.00
             0.1687144                   1
 d    1 1.00
                   0.8                   1

8 0
 s    3 1.00
             18.731137    0.03349459952309
             2.8253937    0.23472694665786
             0.6401217    0.81375731841339
 s    1 1.00
             0.1612778                   1

9 0
 s    3 1.00
             18.731137    0.03349459952309
             2.8253937    0.23472694665786
             0.6401217    0.81375731841339
 s    1 1.00
             0.1612778                   1

10 0
 s    6 1.00
             3047.5249  0.0018347001629433
             457.36951    0.01403730124668
             103.94869   0.068842606114048
             29.210155    0.23218442062076
              9.286663    0.46794134155879
              3.163927    0.36231203217765
 s    3 1.00
             7.8682724   -0.11933240861517
             1.8812885   -0.16085421161283
             0.5442493     1.1434564825515
 s    1 1.00
             0.1687144                   1
 p    3 1.00
             7.8682724   0.068999095584993
             1.8812885    0.31642397975315
             0.5442493    0.74430825237435
 p    1 1.00
             0.1687144                   1
 d    1 1.00
                   0.8                   1

11 0
 s    3 1.00
             18.731137    0.03349459952309
             2.8253937    0.23472694665786
             0.6401217    0.81375731841339
 s    1 1.00
             0.1612778                   1

12 0
 s    6 1.00
             3047.5249  0.0018347001629433
             457.36951    0.01403730124668
             103.94869   0.068842606114048
             29.210155    0.23218442062076
              9.286663    0.46794134155879
              3.163927    0.36231203217765
 s    3 1.00
             7.8682724   -0.11933240861517
             1.8812885   -0.16085421161283
             0.5442493     1.1434564825515
 s    1 1.00
             0.1687144                   1
 p    3 1.00
             7.8682724   0.068999095584993
             1.8812885    0.31642397975315
             0.5442493    0.74430825237435
 p    1 1.00
             0.1687144                   1
 d    1 1.00
                   0.8                   1

13 0
 s    3 1.00
             18.731137    0.03349459952309
             2.8253937    0.23472694665786
             0.6401217    0.81375731841339
 s    1 1.00
             0.1612778                   1

14 0
 s    3 1.00
             18.731137    0.03349459952309
             2.8253937    0.23472694665786
             0.6401217    0.81375731841339
 s    1 1.00
             0.1612778                   1

15 0
 s    6 1.00
             3047.5249  0.0018347001629433
             457.36951    0.01403730124668
             103.94869   0.068842606114048
             29.210155    0.23218442062076
              9.286663    0.46794134155879
              3.163927    0.36231203217765
 s    3 1.00
             7.8682724   -0.11933240861517
             1.8812885   -0.16085421161283
             0.5442493     1.1434564825515
 s    1 1.00
             0.1687144                   1
 p    3 1.00
             7.8682724   0.068999095584993
             1.8812885    0.31642397975315
             0.5442493    0.74430825237435
 p    1 1.00
             0.1687144                   1
 d    1 1.00
                   0.8                   1

16 0
 s    6 1.00
             3047.5249  0.0018347001629433
             457.36951    0.01403730124668
             103.94869   0.068842606114048
             29.210155    0.23218442062076
              9.286663    0.46794134155879
              3.163927    0.36231203217765
 s    3 1.00
             7.8682724   -0.11933240861517
             1.8812885   -0.16085421161283
             0.5442493     1.1434564825515
 s    1 1.00
             0.1687144                   1
 p    3 1.00
             7.8682724   0.068999095584993
             1.8812885    0.31642397975315
             0.5442493    0.74430825237435
 p    1 1.00
             0.1687144                   1
 d    1 1.00
                   0.8                   1

17 0
 s    6 1.00
             3047.5249  0.0018347001629433
             457.36951    0.01403730124668
             103.94869   0.068842606114048
             29.210155    0.23218442062076
              9.286663    0.46794134155879
              3.163927    0.36231203217765
 s    3 1.00
             7.8682724   -0.11933240861517
             1.8812885   -0.16085421161283
             0.5442493     1.1434564825515
 s    1 1.00
             0.1687144                   1
 p    3 1.00
             7.8682724   0.068999095584993
             1.8812885    0.31642397975315
             0.5442493    0.74430825237435
 p    1 1.00
             0.1687144                   1
 d    1 1.00
                   0.8                   1

18 0
 s    6 1.00
             3047.5249  0.0018347001629433
             457.36951    0.01403730124668
             103.94869   0.068842606114048
             29.210155    0.23218442062076
              9.286663    0.46794134155879
              3.163927    0.36231203217765
 s    3 1.00
             7.8682724   -0.11933240861517
             1.8812885   -0.16085421161283
             0.5442493     1.1434564825515
 s    1 1.00
             0.1687144                   1
 p    3 1.00
             7.8682724   0.068999095584993
             1.8812885    0.31642397975315
             0.5442493    0.74430825237435
 p    1 1.00
             0.1687144                   1
 d    1 1.00
                   0.8                   1

19 0
 s    6 1.00
             3047.5249  0.0018347001629433
             457.36951    0.01403730124668
             103.94869   0.068842606114048
             29.210155    0.23218442062076
              9.286663    0.46794134155879
              3.163927    0.36231203217765
 s    3 1.00
             7.8682724   -0.11933240861517
             1.8812885   -0.16085421161283
             0.5442493     1.1434564825515
 s    1 1.00
             0.1687144                   1
 p    3 1.00
             7.8682724   0.068999095584993
             1.8812885    0.31642397975315
             0.5442493    0.74430825237435
 p    1 1.00
             0.1687144                   1
 d    1 1.00
                   0.8                   1

20 0
 s    6 1.00
             3047.5249  0.0018347001629433
             457.36951    0.01403730124668
             103.94869   0.068842606114048
             29.210155    0.23218442062076
              9.286663    0.46794134155879
              3.163927    0.36231203217765
 s    3 1.00
             7.8682724   -0.11933240861517
             1.8812885   -0.16085421161283
             0.5442493     1.1434564825515
 s    1 1.00
             0.1687144                   1
 p    3 1.00
             7.8682724   0.068999095584993
             1.8812885    0.31642397975315
             0.5442493    0.74430825237435
 p    1 1.00
             0.1687144                   1
 d    1 1.00
                   0.8                   1

21 0
 s    6 1.00
             3047.5249  0.0018347001629433
             457.36951    0.01403730124668
             103.94869   0.068842606114048
             29.210155    0.23218442062076
              9.286663    0.46794134155879
              3.163927    0.36231203217765
 s    3 1.00
             7.8682724   -0.11933240861517
             1.8812885   -0.16085421161283
             0.5442493     1.1434564825515
 s    1 1.00
             0.1687144                   1
 p    3 1.00
             7.8682724   0.068999095584993
             1.8812885    0.31642397975315
             0.5442493    0.74430825237435
 p    1 1.00
             0.1687144                   1
 d    1 1.00
                   0.8                   1

22 0
 s    3 1.00
             18.731137    0.03349459952309
             2.8253937    0.23472694665786
             0.6401217    0.81375731841339
 s    1 1.00
             0.1612778                   1

23 0
 s    3 1.00
             18.731137    0.03349459952309
             2.8253937    0.23472694665786
             0.6401217    0.81375731841339
 s    1 1.00
             0.1612778                   1

24 0
 s    3 1.00
             18.731137    0.03349459952309
             2.8253937    0.23472694665786
             0.6401217    0.81375731841339
 s    1 1.00
             0.1612778                   1

25 0
 s    3 1.00
             18.731137    0.03349459952309
             2.8253937    0.23472694665786
             0.6401217    0.81375731841339
 s    1 1.00
             0.1612778                   1

26 0
 s    3 1.00
             18.731137    0.03349459952309
             2.8253937    0.23472694665786
             0.6401217    0.81375731841339
 s    1 1.00
             0.1612778                   1

27 0
 s    3 1.00
             18.731137    0.03349459952309
             2.8253937    0.23472694665786
             0.6401217    0.81375731841339
 s    1 1.00
             0.1612778                   1

28 0
 s    3 1.00
             18.731137    0.03349459952309
             2.8253937    0.23472694665786
             0.6401217    0.81375731841339
 s    1 1.00
             0.1612778                   1

29 0
 s    3 1.00
             18.731137    0.03349459952309
             2.8253937    0.23472694665786
             0.6401217    0.81375731841339
 s    1 1.00
             0.1612778                   1

30 0
 s    3 1.00
             18.731137    0.03349459952309
             2.8253937    0.23472694665786
             0.6401217    0.81375731841339
 s    1 1.00
             0.1612778                   1

31 0
 s    3 1.00
             18.731137    0.03349459952309
             2.8253937    0.23472694665786
             0.6401217    0.81375731841339
 s    1 1.00
             0.1612778                   1

32 0
 s    3 1.00
             18.731137    0.03349459952309
             2.8253937    0.23472694665786
             0.6401217    0.81375731841339
 s    1 1.00
             0.1612778                   1

33 0
 s    6 1.00
             3047.5249  0.0018347001629433
             457.36951    0.01403730124668
             103.94869   0.068842606114048
             29.210155    0.23218442062076
              9.286663    0.46794134155879
              3.163927    0.36231203217765
 s    3 1.00
             7.8682724   -0.11933240861517
             1.8812885   -0.16085421161283
             0.5442493     1.1434564825515
 s    1 1.00
             0.1687144                   1
 p    3 1.00
             7.8682724   0.068999095584993
             1.8812885    0.31642397975315
             0.5442493    0.74430825237435
 p    1 1.00
             0.1687144                   1
 d    1 1.00
                   0.8                   1

34 0
 s    6 1.00
             3047.5249  0.0018347001629433
             457.36951    0.01403730124668
             103.94869   0.068842606114048
             29.210155    0.23218442062076
              9.286663    0.46794134155879
              3.163927    0.36231203217765
 s    3 1.00
             7.8682724   -0.11933240861517
             1.8812885   -0.16085421161283
             0.5442493     1.1434564825515
 s    1 1.00
             0.1687144                   1
 p    3 1.00
             7.8682724   0.068999095584993
             1.8812885    0.31642397975315
             0.5442493    0.74430825237435
 p    1 1.00
             0.1687144                   1
 d    1 1.00
                   0.8                   1

35 0
 s    3 1.00
             18.731137    0.03349459952309
             2.8253937    0.23472694665786
             0.6401217    0.81375731841339
 s    1 1.00
             0.1612778                   1

36 0
 s    6 1.00
             3047.5249  0.0018347001629433
             457.36951    0.01403730124668
             103.94869   0.068842606114048
             29.210155    0.23218442062076
              9.286663    0.46794134155879
              3.163927    0.36231203217765
 s    3 1.00
             7.8682724   -0.11933240861517
             1.8812885   -0.16085421161283
             0.5442493     1.1434564825515
 s    1 1.00
             0.1687144                   1
 p    3 1.00
             7.8682724   0.068999095584993
             1.8812885    0.31642397975315
             0.5442493    0.74430825237435
 p    1 1.00
             0.1687144                   1
 d    1 1.00
                   0.8                   1

37 0
 s    3 1.00
             18.731137    0.03349459952309
             2.8253937    0.23472694665786
             0.6401217    0.81375731841339
 s    1 1.00
             0.1612778                   1

38 0
 s    3 1.00
             18.731137    0.03349459952309
             2.8253937    0.23472694665786
             0.6401217    0.81375731841339
 s    1 1.00
             0.1612778                   1

39 0
 s    6 1.00
             3047.5249  0.0018347001629433
             457.36951    0.01403730124668
             103.94869   0.068842606114048
             29.210155    0.23218442062076
              9.286663    0.46794134155879
              3.163927    0.36231203217765
 s    3 1.00
             7.8682724   -0.11933240861517
             1.8812885   -0.16085421161283
             0.5442493     1.1434564825515
 s    1 1.00
             0.1687144                   1
 p    3 1.00
             7.8682724   0.068999095584993
             1.8812885    0.31642397975315
             0.5442493    0.74430825237435
 p    1 1.00
             0.1687144                   1
 d    1 1.00
                   0.8                   1

40 0
 s    6 1.00
             3047.5249  0.0018347001629433
             457.36951    0.01403730124668
             103.94869   0.068842606114048
             29.210155    0.23218442062076
              9.286663    0.46794134155879
              3.163927    0.36231203217765
 s    3 1.00
             7.8682724   -0.11933240861517
             1.8812885   -0.16085421161283
             0.5442493     1.1434564825515
 s    1 1.00
             0.1687144                   1
 p    3 1.00
             7.8682724   0.068999095584993
             1.8812885    0.31642397975315
             0.5442493    0.74430825237435
 p    1 1.00
             0.1687144                   1
 d    1 1.00
                   0.8                   1

41 0
 s    3 1.00
             18.731137    0.03349459952309
             2.8253937    0.23472694665786
             0.6401217    0.81375731841339
 s    1 1.00
             0.1612778                   1

42 0
 s    6 1.00
             5484.6717   0.001831099805527
             825.23495   0.013950098518422
             188.04696    0.06844509273075
               52.9645    0.23271427528445
              16.89757    0.47019295006289
             5.7996353    0.35852086192309
 s    3 1.00
             15.539616   -0.11077750382508
             3.5999336   -0.14802630511126
             1.0137618     1.1307670390447
 s    1 1.00
             0.2700058                   1
 p    3 1.00
             15.539616   0.070874299543311
             3.5999336    0.33975279781076
             1.0137618    0.72715859531445
 p    1 1.00
             0.2700058                   1
 d    1 1.00
                   0.8                   1

43 0
 s    3 1.00
             18.731137    0.03349459952309
             2.8253937    0.23472694665786
             0.6401217    0.81375731841339
 s    1 1.00
             0.1612778                   1

[5d]
[7f]
[9g]

[MO]
 Sym= A
 Ene=               0
 Spin= Alpha
 Occup=    1.00000
   1    3.9599465921378e-06
   2    4.0288011144129e-05
   3    -0.00058593444264103
   4    1.459895850139e-05
   5    -2.8375574227536e-05
   6    -5.3506008193462e-06
   7    6.9974300613502e-05
   8    0.00012138596399662
   9    0.0002138042418872
  10    -1.459874805082e-05
  11    -8.3133529052045e-06
  12    -5.6764646569935e-06
  13    5.5096938038303e-06
  14    -4.8803802698361e-06
  15    2.7844300201393e-06
  16    1.2928874466873e-05
  17    -8.0475111352044e-06
  18    3.6626752278517e-05
  19    0.0012003392080119
  20    5.0164929965704e-05
  21     1.42534798871e-05
  22    -6.9953298331135e-05
  23    0.00073813276779939
  24    -8.2106399904899e-05
  25    -0.00011955691087968
  26    3.0431139677061e-05
  27    -2.4093371688742e-05
  28    1.7000069310515e-05
  29    2.6845395055424e-05
  30    2.3136542695824e-05
  31    4.488789951833e-06
  32    0.00012268501894509
  33    7.7421356351153e-05
  34    0.00027104732893479
  35    -0.0045433661753397
  36    -0.00019920944482146
  37    2.7398427134476e-05
  38    0.00011612176262313
  39    -0.001712055418703
  40    0.0013811917699843
  41    -0.00042096874388002
  42    2.2524884795282e-05
  43    8.6399434053072e-05
  44    1.2092377662163e-05
  45    -7.7616664468064e-05
  46    8.5484760509339e-05
  47    -2.0075528888381e-05
  48    -0.00030914203919711
  49    -5.4854802490086e-05
  50    0.00030258168337433
  51    0.0037901114818178
  52    0.0005419804339271
  53    -0.00019717211424398
  54    -0.0002108729092478
  55    -0.0032850367094879
  56    0.0016247626294686
  57    0.00080944815050274
  58    -0.00012486342782957
  59    6.201768790501e-06
  60    0.00014074282701445
  61    8.1174434356284e-05
  62    -8.0519293570846e-05
  63    0.00039235097531161
  64    0.0001817939759987
  65    3.6110859106208e-08
  66    -7.4636576848216e-07
  67    -8.5571773321149e-09
  68    6.0082181999211e-09
  69    1.7613999827993e-06
  70    -7.4307938011222e-08
  71    1.1810979487433e-07
  72    1.0264235676337e-07
  73    -6.9444103265439e-07
  74    -1.1632680283356e-07
  75     1.71076731583e-07
  76    -1.5987703928468e-07
  77    -1.5463053102847e-07
  78    -1.8151085823259e-08
  79    -4.13604035987e-08
  80    -1.5831356300051e-07
  81    -3.5151983428098e-08
  82    -6.767988938761e-07
  83    -1.3720720354783e-07
  84    -1.2516294383713e-06
  85    -1.1715814204927e-05
  86    5.5093562788713e-07
  87    -4.679856712729e-07
  88    5.3646746117213e-07
  89    8.4301730799258e-07
  90    1.6019563574116e-06
  91    4.6873832617833e-06
  92    1.815052643497e-07
  93    -1.0097393233051e-07
  94    -7.121159215611e-08
  95    2.3756256302151e-07
  96    -1.9467192836617e-07
  97    -2.664465644389e-07
  98    -9.9000958660118e-07
  99    6.2505029769412e-07
 100    8.7768071645124e-07
 101    3.9751939266874e-07
 102    1.2924815772871e-06
 103    -3.2068596873734e-05
 104     1.92578862655e-06
 105    2.6565595020879e-07
 106    -1.7588461292169e-07
 107    -2.6305251857475e-06
 108    3.6698974844561e-06
 109    4.1441802987797e-05
 110    -6.1535037118319e-07
 111    -1.0530207895275e-06
 112    4.387114321712e-07
 113    -4.634050510957e-08
 114    9.8102466732155e-08
 115    -4.109730538257e-07
 116    -3.7052313050233e-06
 117    3.0535776053125e-05
 118    -5.1130665176665e-07
 119    -7.0968135923443e-08
 120    1.2095916718936e-06
 121    -1.1413328127789e-05
 122    9.2050582334997e-06
 123    2.1556584252265e-06
 124    -4.0613293088594e-07
 125    -2.1462617400727e-07
 126    4.8153468910335e-07
 127    4.1204299088828e-07
 128    -4.3576654716173e-07
 129    -1.0490649620754e-06
 130    -7.5883221129474e-06
 131    5.8576830975801e-05
 132    -1.8829523602672e-06
 133    8.3376349315952e-07
 134    2.9126732766375e-06
 135    2.6734271291735e-05
 136    -1.4073409102103e-05
 137    -8.6966094583641e-05
 138    2.603316182865e-06
 139    1.4028577078206e-06
 140    -7.7514911579208e-07
 141    4.4802505210901e-07
 142    -1.0275959335037e-06
 143    -7.7549177649515e-07
 144    -5.2854348311306e-06
 145    5.0118046103211e-05
 146    -2.8366470554686e-08
 147    -1.1776740758563e-07
 148    -1.8657195457543e-06
 149    2.5534882521204e-05
 150    -1.4313244292589e-05
 151    9.108173086432e-07
 152    -4.0890118060131e-07
 153    -4.0915714886065e-07
 154    5.6607576736451e-07
 155    7.3166094331398e-07
 156    -7.2822355990799e-07
 157    -1.9530361805492e-07
 158    -1.2074961273846e-06
 159    8.7157269055214e-06
 160    5.4568371998715e-08
 161    -1.0328313183318e-07
 162    -1.5122099667242e-07
 163    -3.5302500613671e-06
 164    -2.9319963647726e-06
 165    -7.9839944392154e-07
 166    2.1302229433713e-07
 167    -3.2032212928942e-07
 168    5.3749787831737e-08
 169    -3.4509967044711e-07
 170    2.403630528944e-07
 171    2.5963225092959e-08
 172    -1.2384307394477e-07
 173    3.1340949264724e-07
 174    -3.6298633180265e-08
 175    -1.8757334813963e-07
 176    -2.5194049150403e-07
 177    -5.4234096105572e-06
 178    2.0678410413637e-06
 179    -1.4583307176995e-06
 180    1.0601720071936e-07
 181    -4.4057855414566e-07
 182    1.8513621592532e-07
 183    -6.2769176342563e-07
 184    -2.5312889961027e-07
 185    7.1281016598152e-08
 186    -2.8295986607714e-07
 187    -1.3518880725651e-05
 188    3.8373906532151e-07
 189    2.2912750497341e-07
 190    1.552122349491e-06
 191    2.6186770888582e-06
 192    2.7524974059654e-06
 193    3.393989010666e-06
 194    -2.2688756319601e-07
 195    -4.1432870739696e-07
 196    -1.542563460746e-07
 197    3.5820318243012e-07
 198    -2.9153644240594e-07
 199    2.3158309780673e-07
 200    -8.8863621748219e-07
 201    3.1364716115156e-07
 202    2.7233910798248e-06
 203    -3.4121255691546e-07
 204    2.5625765860936e-06
 205    -1.484056028954e-06
 206    -1.4791101733054e-06
 207    -1.205208556778e-06
 208    -2.7705116219593e-06
 209    2.2525760710146e-07
 210    -4.641982704162e-06
 211    3.0122345013114e-08
 212    1.0832141685327e-06
 213    -5.7917640935827e-07
 214    -3.6863213001971e-07
 215    9.2556997386193e-07
 216    -5.5148830405656e-06
 217    -2.9256789831623e-07
 218    -7.1035382213202e-07
 219    2.246164122219e-07
 220    2.0935953758878e-06
 221    1.3571440373648e-06
 222    6.5492316418845e-06
 223    -0.0001716001483912
 224    6.3240047812074e-07
 225    -5.8811028482464e-06
 226    4.7217384645321e-06
 227    -5.1154071229399e-05
 228    -3.8467404085121e-07
 229    -3.1530401675817e-06
 230    -3.6675306793036e-06
 231    -5.210717320741e-07
 232    1.6203365477564e-06
 233    -2.3414458126087e-08
 234    4.8367747532144e-07
 235    -1.9124428856841e-06
 236    -1.2675206558027e-05
 237    0.00022402477687404
 238    2.0797177631788e-06
 239    6.7735509471636e-06
 240    -4.5681569546385e-06
 241    -0.00010315514497553
 242    -2.7695333978051e-05
 243    -3.5279509564392e-06
 244    3.372731590395e-06
 245    1.3320560624513e-06
 246    -3.2940213566461e-06
 247    2.0050534649755e-06
 248    -4.6684671512265e-07
 249    -3.2719666132312e-06
 250    6.9560011095564e-06
 251    -2.2802015929829e-06
 252    -1.9414759980037e-05
 253    5.8385551058092e-05
 254    1.1985627603423e-06
 255    3.3267529011482e-06
 256    1.416161941817e-05
 257    -1.1904061622786e-05
 258    7.8737369891139e-06
 259    -0.0002611032153257
 260    2.3468518653609e-06
 261    -9.7736682330286e-06
 262    8.4869809601102e-07
 263    7.244685622095e-06
 264    -3.1734853040232e-06
 265    5.9540560579391e-06
 266    1.6388228200779e-05
 267    -1.3631446352304e-05
 268    -1.3360016366159e-05
 269    -6.7877885959446e-05
 270     2.89317455733e-05
 271    0.0030545331947634
 272    1.3652598008909e-05
 273    -0.00017133977990086
 274    0.00024276070618921
 275    0.0023921001295764
 276    0.00073046033435287
 277    -0.0029863267223669
 278    1.2328968559469e-05
 279    -0.00030290059015496
 280    0.00014739113700505