[Molden Format]
made by pyscf v[2.0.1]
[Atoms] (AU)
C   1   6     0.69100024066471     0.64692934207205    -3.48223131169301
H   2   1     2.68052439830868     1.13355088658700    -3.25784032593313
C   3   6    -0.36286361513219     0.85440132524594    -5.97030179418974
H   4   1    -2.35448549047279     0.36322488579172    -6.17995817793143
C   5   6     0.93697958957450     1.61209284601821    -8.05828437677121
H   6   1     2.28684852848462     3.15852966115860    -7.89296704602693
C   7   6     0.63106041134958     0.47904579632082   -10.50346361691732
H   8   1    -0.72718870892227    -1.06897620367389   -10.63951300078030
H   9   1     1.55630230933075    -1.92953025305990    12.99630010416247
C   10   6     0.75233899775814    -2.21270439606481    11.10705728102219
H   11   1    -0.43433408177274    -3.90944857546550    11.22216085340412
C   12   6     2.86362581178706    -2.63237380607947     9.17926416456045
H   13   1     4.39038949912609    -1.24955421540245     9.49899813497433
H   14   1     3.74629220191363    -4.48798724300892     9.47414880959024
C   15   6     2.02478325613682    -2.42177285709634     6.44560829588644
C   16   6     3.88048732735477    -3.58795445234514     4.61402886975252
C   17   6    -0.18412382258602    -1.30464291234259     5.76021113872346
C   18   6    -2.10044360464350    -0.26837831858460     7.71610340967100
C   19   6    -3.08956938670431     2.35282328359417     6.88693925039594
C   20   6    -4.37372924086464    -2.09766595989678     7.93610724222001
C   21   6    -0.83850430601230     0.06372213486173    10.33002307638377
H   22   1     0.38411922151109     1.74281358582432    10.27380136542181
H   23   1    -2.30980003007874     0.45460143924521    11.73986301809809
H   24   1     4.58527064644668    -5.38706904487420     5.36778158031719
H   25   1     5.54944938085014    -2.37631462192748     4.35398898413318
H   26   1     3.06633019150423    -3.94118377050688     2.75255466040884
H   27   1    -4.17727778763735     2.26573369139522     5.12914900961283
H   28   1    -1.52662344944051     3.68001877445626     6.59540397144508
H   29   1    -4.32916174397830     3.13643051467482     8.35225460090378
H   30   1    -5.32329548508442    -2.36691813602939     6.11583672749896
H   31   1    -5.77989366602257    -1.33896741843465     9.25748940450990
H   32   1    -3.79310905208926    -3.96389819310853     8.61386170102686
C   33   6    -1.01100794811226    -1.06331657314144     3.11929490449947
C   34   6     0.37686231036534    -0.33275864505552     1.09165013605873
H   35   1    -3.01671213906703    -1.40297922279997     2.77827895090944
C   36   6    -0.64382707979370    -0.11591880174385    -1.42063131251064
H   37   1     2.35569259782137     0.17174499283897     1.33641070251401
H   38   1    -2.63317482980319    -0.60229203511219    -1.66119700387645
C   39   6     1.88057107480096     1.17167710004378   -12.63318625924474
C   40   6     1.43424299107759    -0.10242214041261   -15.03828188134704
H   41   1     3.25774949416826     2.69847908646217   -12.62832443574420
O   42   8     2.48751113017790     0.42264932688836   -17.02215443525925
H   43   1     0.01015752982003    -1.65333508727432   -14.95564685399208
[GTO]
1 0
 s    6 1.00
             3047.5249  0.0018347001629433
             457.36951    0.01403730124668
             103.94869   0.068842606114048
             29.210155    0.23218442062076
              9.286663    0.46794134155879
              3.163927    0.36231203217765
 s    3 1.00
             7.8682724   -0.11933240861517
             1.8812885   -0.16085421161283
             0.5442493     1.1434564825515
 s    1 1.00
             0.1687144                   1
 p    3 1.00
             7.8682724   0.068999095584993
             1.8812885    0.31642397975315
             0.5442493    0.74430825237435
 p    1 1.00
             0.1687144                   1
 d    1 1.00
                   0.8                   1

2 0
 s    3 1.00
             18.731137    0.03349459952309
             2.8253937    0.23472694665786
             0.6401217    0.81375731841339
 s    1 1.00
             0.1612778                   1

3 0
 s    6 1.00
             3047.5249  0.0018347001629433
             457.36951    0.01403730124668
             103.94869   0.068842606114048
             29.210155    0.23218442062076
              9.286663    0.46794134155879
              3.163927    0.36231203217765
 s    3 1.00
             7.8682724   -0.11933240861517
             1.8812885   -0.16085421161283
             0.5442493     1.1434564825515
 s    1 1.00
             0.1687144                   1
 p    3 1.00
             7.8682724   0.068999095584993
             1.8812885    0.31642397975315
             0.5442493    0.74430825237435
 p    1 1.00
             0.1687144                   1
 d    1 1.00
                   0.8                   1

4 0
 s    3 1.00
             18.731137    0.03349459952309
             2.8253937    0.23472694665786
             0.6401217    0.81375731841339
 s    1 1.00
             0.1612778                   1

5 0
 s    6 1.00
             3047.5249  0.0018347001629433
             457.36951    0.01403730124668
             103.94869   0.068842606114048
             29.210155    0.23218442062076
              9.286663    0.46794134155879
              3.163927    0.36231203217765
 s    3 1.00
             7.8682724   -0.11933240861517
             1.8812885   -0.16085421161283
             0.5442493     1.1434564825515
 s    1 1.00
             0.1687144                   1
 p    3 1.00
             7.8682724   0.068999095584993
             1.8812885    0.31642397975315
             0.5442493    0.74430825237435
 p    1 1.00
             0.1687144                   1
 d    1 1.00
                   0.8                   1

6 0
 s    3 1.00
             18.731137    0.03349459952309
             2.8253937    0.23472694665786
             0.6401217    0.81375731841339
 s    1 1.00
             0.1612778                   1

7 0
 s    6 1.00
             3047.5249  0.0018347001629433
             457.36951    0.01403730124668
             103.94869   0.068842606114048
             29.210155    0.23218442062076
              9.286663    0.46794134155879
              3.163927    0.36231203217765
 s    3 1.00
             7.8682724   -0.11933240861517
             1.8812885   -0.16085421161283
             0.5442493     1.1434564825515
 s    1 1.00
             0.1687144                   1
 p    3 1.00
             7.8682724   0.068999095584993
             1.8812885    0.31642397975315
             0.5442493    0.74430825237435
 p    1 1.00
             0.1687144                   1
 d    1 1.00
                   0.8                   1

8 0
 s    3 1.00
             18.731137    0.03349459952309
             2.8253937    0.23472694665786
             0.6401217    0.81375731841339
 s    1 1.00
             0.1612778                   1

9 0
 s    3 1.00
             18.731137    0.03349459952309
             2.8253937    0.23472694665786
             0.6401217    0.81375731841339
 s    1 1.00
             0.1612778                   1

10 0
 s    6 1.00
             3047.5249  0.0018347001629433
             457.36951    0.01403730124668
             103.94869   0.068842606114048
             29.210155    0.23218442062076
              9.286663    0.46794134155879
              3.163927    0.36231203217765
 s    3 1.00
             7.8682724   -0.11933240861517
             1.8812885   -0.16085421161283
             0.5442493     1.1434564825515
 s    1 1.00
             0.1687144                   1
 p    3 1.00
             7.8682724   0.068999095584993
             1.8812885    0.31642397975315
             0.5442493    0.74430825237435
 p    1 1.00
             0.1687144                   1
 d    1 1.00
                   0.8                   1

11 0
 s    3 1.00
             18.731137    0.03349459952309
             2.8253937    0.23472694665786
             0.6401217    0.81375731841339
 s    1 1.00
             0.1612778                   1

12 0
 s    6 1.00
             3047.5249  0.0018347001629433
             457.36951    0.01403730124668
             103.94869   0.068842606114048
             29.210155    0.23218442062076
              9.286663    0.46794134155879
              3.163927    0.36231203217765
 s    3 1.00
             7.8682724   -0.11933240861517
             1.8812885   -0.16085421161283
             0.5442493     1.1434564825515
 s    1 1.00
             0.1687144                   1
 p    3 1.00
             7.8682724   0.068999095584993
             1.8812885    0.31642397975315
             0.5442493    0.74430825237435
 p    1 1.00
             0.1687144                   1
 d    1 1.00
                   0.8                   1

13 0
 s    3 1.00
             18.731137    0.03349459952309
             2.8253937    0.23472694665786
             0.6401217    0.81375731841339
 s    1 1.00
             0.1612778                   1

14 0
 s    3 1.00
             18.731137    0.03349459952309
             2.8253937    0.23472694665786
             0.6401217    0.81375731841339
 s    1 1.00
             0.1612778                   1

15 0
 s    6 1.00
             3047.5249  0.0018347001629433
             457.36951    0.01403730124668
             103.94869   0.068842606114048
             29.210155    0.23218442062076
              9.286663    0.46794134155879
              3.163927    0.36231203217765
 s    3 1.00
             7.8682724   -0.11933240861517
             1.8812885   -0.16085421161283
             0.5442493     1.1434564825515
 s    1 1.00
             0.1687144                   1
 p    3 1.00
             7.8682724   0.068999095584993
             1.8812885    0.31642397975315
             0.5442493    0.74430825237435
 p    1 1.00
             0.1687144                   1
 d    1 1.00
                   0.8                   1

16 0
 s    6 1.00
             3047.5249  0.0018347001629433
             457.36951    0.01403730124668
             103.94869   0.068842606114048
             29.210155    0.23218442062076
              9.286663    0.46794134155879
              3.163927    0.36231203217765
 s    3 1.00
             7.8682724   -0.11933240861517
             1.8812885   -0.16085421161283
             0.5442493     1.1434564825515
 s    1 1.00
             0.1687144                   1
 p    3 1.00
             7.8682724   0.068999095584993
             1.8812885    0.31642397975315
             0.5442493    0.74430825237435
 p    1 1.00
             0.1687144                   1
 d    1 1.00
                   0.8                   1

17 0
 s    6 1.00
             3047.5249  0.0018347001629433
             457.36951    0.01403730124668
             103.94869   0.068842606114048
             29.210155    0.23218442062076
              9.286663    0.46794134155879
              3.163927    0.36231203217765
 s    3 1.00
             7.8682724   -0.11933240861517
             1.8812885   -0.16085421161283
             0.5442493     1.1434564825515
 s    1 1.00
             0.1687144                   1
 p    3 1.00
             7.8682724   0.068999095584993
             1.8812885    0.31642397975315
             0.5442493    0.74430825237435
 p    1 1.00
             0.1687144                   1
 d    1 1.00
                   0.8                   1

18 0
 s    6 1.00
             3047.5249  0.0018347001629433
             457.36951    0.01403730124668
             103.94869   0.068842606114048
             29.210155    0.23218442062076
              9.286663    0.46794134155879
              3.163927    0.36231203217765
 s    3 1.00
             7.8682724   -0.11933240861517
             1.8812885   -0.16085421161283
             0.5442493     1.1434564825515
 s    1 1.00
             0.1687144                   1
 p    3 1.00
             7.8682724   0.068999095584993
             1.8812885    0.31642397975315
             0.5442493    0.74430825237435
 p    1 1.00
             0.1687144                   1
 d    1 1.00
                   0.8                   1

19 0
 s    6 1.00
             3047.5249  0.0018347001629433
             457.36951    0.01403730124668
             103.94869   0.068842606114048
             29.210155    0.23218442062076
              9.286663    0.46794134155879
              3.163927    0.36231203217765
 s    3 1.00
             7.8682724   -0.11933240861517
             1.8812885   -0.16085421161283
             0.5442493     1.1434564825515
 s    1 1.00
             0.1687144                   1
 p    3 1.00
             7.8682724   0.068999095584993
             1.8812885    0.31642397975315
             0.5442493    0.74430825237435
 p    1 1.00
             0.1687144                   1
 d    1 1.00
                   0.8                   1

20 0
 s    6 1.00
             3047.5249  0.0018347001629433
             457.36951    0.01403730124668
             103.94869   0.068842606114048
             29.210155    0.23218442062076
              9.286663    0.46794134155879
              3.163927    0.36231203217765
 s    3 1.00
             7.8682724   -0.11933240861517
             1.8812885   -0.16085421161283
             0.5442493     1.1434564825515
 s    1 1.00
             0.1687144                   1
 p    3 1.00
             7.8682724   0.068999095584993
             1.8812885    0.31642397975315
             0.5442493    0.74430825237435
 p    1 1.00
             0.1687144                   1
 d    1 1.00
                   0.8                   1

21 0
 s    6 1.00
             3047.5249  0.0018347001629433
             457.36951    0.01403730124668
             103.94869   0.068842606114048
             29.210155    0.23218442062076
              9.286663    0.46794134155879
              3.163927    0.36231203217765
 s    3 1.00
             7.8682724   -0.11933240861517
             1.8812885   -0.16085421161283
             0.5442493     1.1434564825515
 s    1 1.00
             0.1687144                   1
 p    3 1.00
             7.8682724   0.068999095584993
             1.8812885    0.31642397975315
             0.5442493    0.74430825237435
 p    1 1.00
             0.1687144                   1
 d    1 1.00
                   0.8                   1

22 0
 s    3 1.00
             18.731137    0.03349459952309
             2.8253937    0.23472694665786
             0.6401217    0.81375731841339
 s    1 1.00
             0.1612778                   1

23 0
 s    3 1.00
             18.731137    0.03349459952309
             2.8253937    0.23472694665786
             0.6401217    0.81375731841339
 s    1 1.00
             0.1612778                   1

24 0
 s    3 1.00
             18.731137    0.03349459952309
             2.8253937    0.23472694665786
             0.6401217    0.81375731841339
 s    1 1.00
             0.1612778                   1

25 0
 s    3 1.00
             18.731137    0.03349459952309
             2.8253937    0.23472694665786
             0.6401217    0.81375731841339
 s    1 1.00
             0.1612778                   1

26 0
 s    3 1.00
             18.731137    0.03349459952309
             2.8253937    0.23472694665786
             0.6401217    0.81375731841339
 s    1 1.00
             0.1612778                   1

27 0
 s    3 1.00
             18.731137    0.03349459952309
             2.8253937    0.23472694665786
             0.6401217    0.81375731841339
 s    1 1.00
             0.1612778                   1

28 0
 s    3 1.00
             18.731137    0.03349459952309
             2.8253937    0.23472694665786
             0.6401217    0.81375731841339
 s    1 1.00
             0.1612778                   1

29 0
 s    3 1.00
             18.731137    0.03349459952309
             2.8253937    0.23472694665786
             0.6401217    0.81375731841339
 s    1 1.00
             0.1612778                   1

30 0
 s    3 1.00
             18.731137    0.03349459952309
             2.8253937    0.23472694665786
             0.6401217    0.81375731841339
 s    1 1.00
             0.1612778                   1

31 0
 s    3 1.00
             18.731137    0.03349459952309
             2.8253937    0.23472694665786
             0.6401217    0.81375731841339
 s    1 1.00
             0.1612778                   1

32 0
 s    3 1.00
             18.731137    0.03349459952309
             2.8253937    0.23472694665786
             0.6401217    0.81375731841339
 s    1 1.00
             0.1612778                   1

33 0
 s    6 1.00
             3047.5249  0.0018347001629433
             457.36951    0.01403730124668
             103.94869   0.068842606114048
             29.210155    0.23218442062076
              9.286663    0.46794134155879
              3.163927    0.36231203217765
 s    3 1.00
             7.8682724   -0.11933240861517
             1.8812885   -0.16085421161283
             0.5442493     1.1434564825515
 s    1 1.00
             0.1687144                   1
 p    3 1.00
             7.8682724   0.068999095584993
             1.8812885    0.31642397975315
             0.5442493    0.74430825237435
 p    1 1.00
             0.1687144                   1
 d    1 1.00
                   0.8                   1

34 0
 s    6 1.00
             3047.5249  0.0018347001629433
             457.36951    0.01403730124668
             103.94869   0.068842606114048
             29.210155    0.23218442062076
              9.286663    0.46794134155879
              3.163927    0.36231203217765
 s    3 1.00
             7.8682724   -0.11933240861517
             1.8812885   -0.16085421161283
             0.5442493     1.1434564825515
 s    1 1.00
             0.1687144                   1
 p    3 1.00
             7.8682724   0.068999095584993
             1.8812885    0.31642397975315
             0.5442493    0.74430825237435
 p    1 1.00
             0.1687144                   1
 d    1 1.00
                   0.8                   1

35 0
 s    3 1.00
             18.731137    0.03349459952309
             2.8253937    0.23472694665786
             0.6401217    0.81375731841339
 s    1 1.00
             0.1612778                   1

36 0
 s    6 1.00
             3047.5249  0.0018347001629433
             457.36951    0.01403730124668
             103.94869   0.068842606114048
             29.210155    0.23218442062076
              9.286663    0.46794134155879
              3.163927    0.36231203217765
 s    3 1.00
             7.8682724   -0.11933240861517
             1.8812885   -0.16085421161283
             0.5442493     1.1434564825515
 s    1 1.00
             0.1687144                   1
 p    3 1.00
             7.8682724   0.068999095584993
             1.8812885    0.31642397975315
             0.5442493    0.74430825237435
 p    1 1.00
             0.1687144                   1
 d    1 1.00
                   0.8                   1

37 0
 s    3 1.00
             18.731137    0.03349459952309
             2.8253937    0.23472694665786
             0.6401217    0.81375731841339
 s    1 1.00
             0.1612778                   1

38 0
 s    3 1.00
             18.731137    0.03349459952309
             2.8253937    0.23472694665786
             0.6401217    0.81375731841339
 s    1 1.00
             0.1612778                   1

39 0
 s    6 1.00
             3047.5249  0.0018347001629433
             457.36951    0.01403730124668
             103.94869   0.068842606114048
             29.210155    0.23218442062076
              9.286663    0.46794134155879
              3.163927    0.36231203217765
 s    3 1.00
             7.8682724   -0.11933240861517
             1.8812885   -0.16085421161283
             0.5442493     1.1434564825515
 s    1 1.00
             0.1687144                   1
 p    3 1.00
             7.8682724   0.068999095584993
             1.8812885    0.31642397975315
             0.5442493    0.74430825237435
 p    1 1.00
             0.1687144                   1
 d    1 1.00
                   0.8                   1

40 0
 s    6 1.00
             3047.5249  0.0018347001629433
             457.36951    0.01403730124668
             103.94869   0.068842606114048
             29.210155    0.23218442062076
              9.286663    0.46794134155879
              3.163927    0.36231203217765
 s    3 1.00
             7.8682724   -0.11933240861517
             1.8812885   -0.16085421161283
             0.5442493     1.1434564825515
 s    1 1.00
             0.1687144                   1
 p    3 1.00
             7.8682724   0.068999095584993
             1.8812885    0.31642397975315
             0.5442493    0.74430825237435
 p    1 1.00
             0.1687144                   1
 d    1 1.00
                   0.8                   1

41 0
 s    3 1.00
             18.731137    0.03349459952309
             2.8253937    0.23472694665786
             0.6401217    0.81375731841339
 s    1 1.00
             0.1612778                   1

42 0
 s    6 1.00
             5484.6717   0.001831099805527
             825.23495   0.013950098518422
             188.04696    0.06844509273075
               52.9645    0.23271427528445
              16.89757    0.47019295006289
             5.7996353    0.35852086192309
 s    3 1.00
             15.539616   -0.11077750382508
             3.5999336   -0.14802630511126
             1.0137618     1.1307670390447
 s    1 1.00
             0.2700058                   1
 p    3 1.00
             15.539616   0.070874299543311
             3.5999336    0.33975279781076
             1.0137618    0.72715859531445
 p    1 1.00
             0.2700058                   1
 d    1 1.00
                   0.8                   1

43 0
 s    3 1.00
             18.731137    0.03349459952309
             2.8253937    0.23472694665786
             0.6401217    0.81375731841339
 s    1 1.00
             0.1612778                   1

[5d]
[7f]
[9g]

[MO]
 Sym= A
 Ene=               0
 Spin= Alpha
 Occup=    1.00000
   1    -5.2007970749504e-06
   2    -2.9555776654489e-06
   3    -0.00011493260837992
   4    -7.498180220035e-06
   5    -2.648738539879e-05
   6    -2.5914420470926e-07
   7    0.00015929829907342
   8    0.00019731614619337
   9    -0.00036113962179312
  10    1.1395033589248e-05
  11    1.1987963683602e-05
  12    -9.7987687721442e-07
  13    -2.3054106235588e-06
  14    2.227796946301e-06
  15    -2.018131104446e-05
  16    -3.2126184415088e-05
  17    8.9747497765633e-06
  18    -1.964217540223e-05
  19    -0.0013260945222396
  20    -3.0810462478986e-05
  21    7.4637696931931e-06
  22    7.2925652264357e-05
  23    -0.0003012720836557
  24    -8.1889894060598e-05
  25    0.00070335675082241
  26    -3.7343300865059e-05
  27    1.9252158467898e-05
  28    1.7238765317441e-05
  29    -2.8416684444816e-05
  30    2.9154384304592e-05
  31    -2.7072071103969e-07
  32    3.063506956799e-05
  33    -7.805012670208e-05
  34    -0.00026477220398683
  35    0.0047862190452599
  36    3.0114689711639e-05
  37    -4.1397157311233e-05
  38    -0.00021293547453475
  39    -0.0010562014087795
  40    -0.0014671682520043
  41    -0.0012050225412922
  42    0.00012445056886705
  43    -1.3648649803323e-05
  44    8.0350461485197e-05
  45    -1.5211775245608e-05
  46    4.2412408007122e-05
  47    2.0623588055345e-05
  48    0.00027847577567918
  49    5.6132366043572e-05
  50    -0.0002934445686861
  51    -0.0038262178412186
  52    2.6495869832673e-05
  53    0.00021552053295735
  54    0.00057259630976533
  55    -0.00056602223288677
  56    -0.0017387060539679
  57    -0.0032653795880766
  58    -7.8031803932361e-05
  59    -0.00011201122687251
  60    -0.00014340484672523
  61    3.2889484592621e-05
  62    9.2396080856544e-05
  63    -0.00039529522004601
  64    -0.00014781586832606
  65    4.217782203071e-08
  66    1.0907599242473e-06
  67    -4.8680628599417e-08
  68    -4.7023737487134e-07
  69    -1.5652043854107e-06
  70    3.1226461305068e-07
  71    -3.5236301122661e-07
  72    1.9629732961201e-07
  73    1.1540683927478e-06
  74    -2.4492269633016e-07
  75    -1.5144610134195e-06
  76    1.3850884412451e-07
  77    8.7008714353336e-08
  78    5.1738209325818e-08
  79    1.7831209692952e-08
  80    7.2042074278969e-08
  81    6.3183120707518e-08
  82    3.6002784559452e-07
  83    1.2415159992029e-07
  84    8.8036076184888e-07
  85    -2.026818778069e-06
  86    6.9721972254451e-08
  87    -9.7521834529907e-08
  88    1.4898771846331e-07
  89    1.343952135892e-06
  90    -2.5161262649059e-06
  91    -2.3462201009496e-07
  92    -1.0195918188511e-07
  93    -1.5777022379565e-07
  94    3.7039541615817e-07
  95    -1.5021855474617e-07
  96    3.5214807916579e-08
  97    4.7823427109425e-07
  98    -1.470950160934e-08
  99    -8.0465585381452e-08
 100    -3.7499237775999e-07
 101    -2.4048161672731e-07
 102    -4.6373703884954e-07
 103    3.1604101589526e-05
 104    -3.8095298518921e-07
 105    3.7628548111994e-07
 106    -1.1351535256245e-06
 107    -1.0541461365588e-05
 108    1.2083343081944e-05
 109    -7.6829068252944e-06
 110    5.0344067682445e-07
 111    7.1330364407775e-07
 112    -3.2679289992389e-07
 113    -6.1410783183047e-07
 114    -6.8379260507802e-07
 115    3.7545100656974e-07
 116    3.7109724182811e-06
 117    -1.5306013419877e-05
 118    9.5714617643219e-09
 119    2.4450624447112e-07
 120    -8.0701444682378e-07
 121    3.2740101300944e-06
 122    -3.7709098931547e-06
 123    9.2829509160854e-06
 124    2.523048522113e-07
 125    -3.6271995376822e-07
 126    -2.0152158256514e-07
 127    3.6000718065043e-08
 128    -5.4761230567598e-08
 129    3.8761104191218e-07
 130    4.7114467779387e-06
 131    1.4556360992186e-05
 132    2.7073721605162e-06
 133    1.774897868104e-06
 134    -3.3906701654692e-06
 135    -4.5601025775142e-05
 136    2.7177992120683e-07
 137    1.0829699285717e-06
 138    -1.6012554107101e-07
 139    2.3375021585565e-07
 140    1.1685855914465e-06
 141    -2.7060646988527e-07
 142    7.6596596283141e-07
 143    -2.326532179941e-09
 144    -1.1693004859416e-06
 145    -1.6492184881754e-05
 146    -4.276038571355e-07
 147    -1.1120791703043e-06
 148    2.5345176090995e-06
 149    -6.5319024554782e-06
 150    2.2026564857055e-05
 151    -1.0769791567597e-05
 152    -8.2601182035058e-08
 153    9.8043578370508e-08
 154    -1.020889072871e-06
 155    -2.6346381916573e-07
 156    -4.2432287150984e-07
 157    3.3793279237822e-07
 158    2.3943478538094e-06
 159    -1.8207122164099e-05
 160    -1.5475589511101e-07
 161    6.6793229594725e-07
 162    -6.5515028631496e-07
 163    -4.0839458715893e-06
 164    6.9465637025468e-06
 165    8.5975190557127e-07
 166    5.2463698006754e-07
 167    -2.5121645120794e-07
 168    1.264729085715e-07
 169    2.8372177158055e-07
 170    3.9449342082829e-07
 171    -1.1628644033492e-09
 172    2.4478976761926e-07
 173    3.2691876072059e-06
 174    2.0935458845567e-07
 175    -8.6969959222799e-08
 176    4.8026186699484e-07
 177    6.2968455071647e-06
 178    2.021254065807e-06
 179    3.8849314465333e-06
 180    -2.4416571673084e-07
 181    6.5850151527388e-07
 182    8.7902454590982e-08
 183    4.8366766623346e-07
 184    4.8038864357713e-07
 185    -2.6368241326941e-07
 186    -2.0273498863273e-06
 187    1.2951842001832e-05
 188    -4.8454040591692e-07
 189    -7.8880870315508e-08
 190    -3.2949316287144e-07
 191    -1.4805352791019e-06
 192    -5.7722798211807e-06
 193    -4.4123937533868e-06
 194    9.0113641188562e-08
 195    4.162480513574e-07
 196    7.9887696007043e-07
 197    -2.1012902888168e-07
 198    1.9339323223343e-07
 199    -5.6897944947157e-07
 200    1.5304232642383e-06
 201    -2.7665571339158e-07
 202    -3.6919424663696e-07
 203    2.8549352356783e-07
 204    -1.8195321595263e-06
 205    1.516835947653e-06
 206    9.6740548239921e-07
 207    -1.393035320634e-06
 208    1.6049045518206e-05
 209    9.6273295097357e-07
 210    1.3302346897068e-06
 211    9.8576462355922e-07
 212    8.7100208403379e-07
 213    3.2524195371484e-07
 214    -9.4936836591859e-07
 215    -1.1626609199042e-06
 216    8.7064627178967e-06
 217    1.8745907494006e-07
 218    -4.5014558648036e-07
 219    3.7512292313564e-07
 220    -1.5383139298015e-06
 221    -1.3887437499424e-06
 222    -8.2176560893767e-06
 223    0.00011647848030403
 224    3.3621509624767e-06
 225    -6.3238276135398e-07
 226    -3.1660330293727e-07
 227    9.5222214767233e-06
 228    1.9557301606743e-05
 229    -0.00011289542392514
 230    3.3463404338708e-06
 231    -3.6293917547975e-06
 232    -2.2205714458541e-06
 233    1.1971287654086e-06
 234    4.8632780393048e-08
 235    4.2060741062823e-06
 236    2.8068599843575e-05
 237    -0.00038881280019171
 238    -1.5478812981515e-06
 239    -5.9744109924593e-06
 240    6.9542441408207e-06
 241    0.0001206755761945
 242    3.5690421427554e-05
 243    9.6056368437681e-05
 244    -1.1949569871257e-05
 245    -6.4787901957943e-07
 246    1.2231845232065e-06
 247    -1.3316399097974e-06
 248    -3.5201505989395e-06
 249    -5.171955497886e-06
 250    -1.5062801943866e-05
 251    -2.575004943663e-06
 252    -2.0857344029306e-05
 253    0.00051200068919906
 254    -1.2043151057538e-05
 255    1.3273707794016e-05
 256    -1.7419359619122e-05
 257    0.0002252928502471
 258    -2.671283709134e-05
 259    0.00011323722548131
 260    1.1122438317741e-05
 261    3.6858932896022e-07
 262    1.4794591960519e-07
 263    2.4737927791197e-06
 264    -4.1039092938958e-06
 265    -1.3611121938508e-06
 266    -1.2668209873977e-05
 267    1.6363728801212e-05
 268    1.9224422473714e-05
 269    6.7459427099048e-05
 270    -3.2204026622343e-05
 271    -0.0030470089305902
 272    0.00021333760404873
 273    0.00018213986034392
 274    -9.877414033509e-05
 275    -0.0016570184076024
 276    -0.00071327117411563
 277     0.003476420709953
 278    -0.00034530275234683
 279    0.00011468258532539
 280    -1.7918669210543e-05