[Molden Format]
made by pyscf v[2.0.1]
[Atoms] (AU)
C   1   6     0.69100024066471     0.64692934207205    -3.48223131169301
H   2   1     2.68052439830868     1.13355088658700    -3.25784032593313
C   3   6    -0.36286361513219     0.85440132524594    -5.97030179418974
H   4   1    -2.35448549047279     0.36322488579172    -6.17995817793143
C   5   6     0.93697958957450     1.61209284601821    -8.05828437677121
H   6   1     1.11826626333964     3.62551264984471    -8.45099117670825
C   7   6     2.10097243920823    -0.10888483292738    -9.80174075747215
H   8   1     1.90436861547379    -2.12023320363586    -9.38275759847606
H   9   1     1.55630230933075    -1.92953025305990    12.99630010416247
C   10   6     0.75233899775814    -2.21270439606481    11.10705728102219
H   11   1    -0.43433408177274    -3.90944857546550    11.22216085340412
C   12   6     2.86362581178706    -2.63237380607947     9.17926416456045
H   13   1     4.39038949912609    -1.24955421540245     9.49899813497433
H   14   1     3.74629220191363    -4.48798724300892     9.47414880959024
C   15   6     2.02478325613682    -2.42177285709634     6.44560829588644
C   16   6     3.88048732735477    -3.58795445234514     4.61402886975252
C   17   6    -0.18412382258602    -1.30464291234259     5.76021113872346
C   18   6    -2.10044360464350    -0.26837831858460     7.71610340967100
C   19   6    -3.08956938670431     2.35282328359417     6.88693925039594
C   20   6    -4.37372924086464    -2.09766595989678     7.93610724222001
C   21   6    -0.83850430601230     0.06372213486173    10.33002307638377
H   22   1     0.38411922151109     1.74281358582432    10.27380136542181
H   23   1    -2.30980003007874     0.45460143924521    11.73986301809809
H   24   1     4.58527064644668    -5.38706904487420     5.36778158031719
H   25   1     5.54944938085014    -2.37631462192748     4.35398898413318
H   26   1     3.06633019150423    -3.94118377050688     2.75255466040884
H   27   1    -4.17727778763735     2.26573369139522     5.12914900961283
H   28   1    -1.52662344944051     3.68001877445626     6.59540397144508
H   29   1    -4.32916174397830     3.13643051467482     8.35225460090378
H   30   1    -5.32329548508442    -2.36691813602939     6.11583672749896
H   31   1    -5.77989366602257    -1.33896741843465     9.25748940450990
H   32   1    -3.79310905208926    -3.96389819310853     8.61386170102686
C   33   6    -1.01100794811226    -1.06331657314144     3.11929490449947
C   34   6     0.37686231036534    -0.33275864505552     1.09165013605873
H   35   1    -3.01671213906703    -1.40297922279997     2.77827895090944
C   36   6    -0.64382707979370    -0.11591880174385    -1.42063131251064
H   37   1     2.35569259782137     0.17174499283897     1.33641070251401
H   38   1    -2.63317482980319    -0.60229203511219    -1.66119700387645
C   39   6     3.40965399787931     0.55809653308114   -11.90393532262733
C   40   6     4.52549279160481    -1.34135539088305   -13.56345596406470
H   41   1     3.67536210453709     2.52791097593625   -12.43024189111277
O   42   8     5.72170846290986    -0.87635365493868   -15.48013684009233
H   43   1     4.20717735374393    -3.33265649371778   -12.95224886476863
[GTO]
1 0
 s    6 1.00
             3047.5249  0.0018347001629433
             457.36951    0.01403730124668
             103.94869   0.068842606114048
             29.210155    0.23218442062076
              9.286663    0.46794134155879
              3.163927    0.36231203217765
 s    3 1.00
             7.8682724   -0.11933240861517
             1.8812885   -0.16085421161283
             0.5442493     1.1434564825515
 s    1 1.00
             0.1687144                   1
 p    3 1.00
             7.8682724   0.068999095584993
             1.8812885    0.31642397975315
             0.5442493    0.74430825237435
 p    1 1.00
             0.1687144                   1
 d    1 1.00
                   0.8                   1

2 0
 s    3 1.00
             18.731137    0.03349459952309
             2.8253937    0.23472694665786
             0.6401217    0.81375731841339
 s    1 1.00
             0.1612778                   1

3 0
 s    6 1.00
             3047.5249  0.0018347001629433
             457.36951    0.01403730124668
             103.94869   0.068842606114048
             29.210155    0.23218442062076
              9.286663    0.46794134155879
              3.163927    0.36231203217765
 s    3 1.00
             7.8682724   -0.11933240861517
             1.8812885   -0.16085421161283
             0.5442493     1.1434564825515
 s    1 1.00
             0.1687144                   1
 p    3 1.00
             7.8682724   0.068999095584993
             1.8812885    0.31642397975315
             0.5442493    0.74430825237435
 p    1 1.00
             0.1687144                   1
 d    1 1.00
                   0.8                   1

4 0
 s    3 1.00
             18.731137    0.03349459952309
             2.8253937    0.23472694665786
             0.6401217    0.81375731841339
 s    1 1.00
             0.1612778                   1

5 0
 s    6 1.00
             3047.5249  0.0018347001629433
             457.36951    0.01403730124668
             103.94869   0.068842606114048
             29.210155    0.23218442062076
              9.286663    0.46794134155879
              3.163927    0.36231203217765
 s    3 1.00
             7.8682724   -0.11933240861517
             1.8812885   -0.16085421161283
             0.5442493     1.1434564825515
 s    1 1.00
             0.1687144                   1
 p    3 1.00
             7.8682724   0.068999095584993
             1.8812885    0.31642397975315
             0.5442493    0.74430825237435
 p    1 1.00
             0.1687144                   1
 d    1 1.00
                   0.8                   1

6 0
 s    3 1.00
             18.731137    0.03349459952309
             2.8253937    0.23472694665786
             0.6401217    0.81375731841339
 s    1 1.00
             0.1612778                   1

7 0
 s    6 1.00
             3047.5249  0.0018347001629433
             457.36951    0.01403730124668
             103.94869   0.068842606114048
             29.210155    0.23218442062076
              9.286663    0.46794134155879
              3.163927    0.36231203217765
 s    3 1.00
             7.8682724   -0.11933240861517
             1.8812885   -0.16085421161283
             0.5442493     1.1434564825515
 s    1 1.00
             0.1687144                   1
 p    3 1.00
             7.8682724   0.068999095584993
             1.8812885    0.31642397975315
             0.5442493    0.74430825237435
 p    1 1.00
             0.1687144                   1
 d    1 1.00
                   0.8                   1

8 0
 s    3 1.00
             18.731137    0.03349459952309
             2.8253937    0.23472694665786
             0.6401217    0.81375731841339
 s    1 1.00
             0.1612778                   1

9 0
 s    3 1.00
             18.731137    0.03349459952309
             2.8253937    0.23472694665786
             0.6401217    0.81375731841339
 s    1 1.00
             0.1612778                   1

10 0
 s    6 1.00
             3047.5249  0.0018347001629433
             457.36951    0.01403730124668
             103.94869   0.068842606114048
             29.210155    0.23218442062076
              9.286663    0.46794134155879
              3.163927    0.36231203217765
 s    3 1.00
             7.8682724   -0.11933240861517
             1.8812885   -0.16085421161283
             0.5442493     1.1434564825515
 s    1 1.00
             0.1687144                   1
 p    3 1.00
             7.8682724   0.068999095584993
             1.8812885    0.31642397975315
             0.5442493    0.74430825237435
 p    1 1.00
             0.1687144                   1
 d    1 1.00
                   0.8                   1

11 0
 s    3 1.00
             18.731137    0.03349459952309
             2.8253937    0.23472694665786
             0.6401217    0.81375731841339
 s    1 1.00
             0.1612778                   1

12 0
 s    6 1.00
             3047.5249  0.0018347001629433
             457.36951    0.01403730124668
             103.94869   0.068842606114048
             29.210155    0.23218442062076
              9.286663    0.46794134155879
              3.163927    0.36231203217765
 s    3 1.00
             7.8682724   -0.11933240861517
             1.8812885   -0.16085421161283
             0.5442493     1.1434564825515
 s    1 1.00
             0.1687144                   1
 p    3 1.00
             7.8682724   0.068999095584993
             1.8812885    0.31642397975315
             0.5442493    0.74430825237435
 p    1 1.00
             0.1687144                   1
 d    1 1.00
                   0.8                   1

13 0
 s    3 1.00
             18.731137    0.03349459952309
             2.8253937    0.23472694665786
             0.6401217    0.81375731841339
 s    1 1.00
             0.1612778                   1

14 0
 s    3 1.00
             18.731137    0.03349459952309
             2.8253937    0.23472694665786
             0.6401217    0.81375731841339
 s    1 1.00
             0.1612778                   1

15 0
 s    6 1.00
             3047.5249  0.0018347001629433
             457.36951    0.01403730124668
             103.94869   0.068842606114048
             29.210155    0.23218442062076
              9.286663    0.46794134155879
              3.163927    0.36231203217765
 s    3 1.00
             7.8682724   -0.11933240861517
             1.8812885   -0.16085421161283
             0.5442493     1.1434564825515
 s    1 1.00
             0.1687144                   1
 p    3 1.00
             7.8682724   0.068999095584993
             1.8812885    0.31642397975315
             0.5442493    0.74430825237435
 p    1 1.00
             0.1687144                   1
 d    1 1.00
                   0.8                   1

16 0
 s    6 1.00
             3047.5249  0.0018347001629433
             457.36951    0.01403730124668
             103.94869   0.068842606114048
             29.210155    0.23218442062076
              9.286663    0.46794134155879
              3.163927    0.36231203217765
 s    3 1.00
             7.8682724   -0.11933240861517
             1.8812885   -0.16085421161283
             0.5442493     1.1434564825515
 s    1 1.00
             0.1687144                   1
 p    3 1.00
             7.8682724   0.068999095584993
             1.8812885    0.31642397975315
             0.5442493    0.74430825237435
 p    1 1.00
             0.1687144                   1
 d    1 1.00
                   0.8                   1

17 0
 s    6 1.00
             3047.5249  0.0018347001629433
             457.36951    0.01403730124668
             103.94869   0.068842606114048
             29.210155    0.23218442062076
              9.286663    0.46794134155879
              3.163927    0.36231203217765
 s    3 1.00
             7.8682724   -0.11933240861517
             1.8812885   -0.16085421161283
             0.5442493     1.1434564825515
 s    1 1.00
             0.1687144                   1
 p    3 1.00
             7.8682724   0.068999095584993
             1.8812885    0.31642397975315
             0.5442493    0.74430825237435
 p    1 1.00
             0.1687144                   1
 d    1 1.00
                   0.8                   1

18 0
 s    6 1.00
             3047.5249  0.0018347001629433
             457.36951    0.01403730124668
             103.94869   0.068842606114048
             29.210155    0.23218442062076
              9.286663    0.46794134155879
              3.163927    0.36231203217765
 s    3 1.00
             7.8682724   -0.11933240861517
             1.8812885   -0.16085421161283
             0.5442493     1.1434564825515
 s    1 1.00
             0.1687144                   1
 p    3 1.00
             7.8682724   0.068999095584993
             1.8812885    0.31642397975315
             0.5442493    0.74430825237435
 p    1 1.00
             0.1687144                   1
 d    1 1.00
                   0.8                   1

19 0
 s    6 1.00
             3047.5249  0.0018347001629433
             457.36951    0.01403730124668
             103.94869   0.068842606114048
             29.210155    0.23218442062076
              9.286663    0.46794134155879
              3.163927    0.36231203217765
 s    3 1.00
             7.8682724   -0.11933240861517
             1.8812885   -0.16085421161283
             0.5442493     1.1434564825515
 s    1 1.00
             0.1687144                   1
 p    3 1.00
             7.8682724   0.068999095584993
             1.8812885    0.31642397975315
             0.5442493    0.74430825237435
 p    1 1.00
             0.1687144                   1
 d    1 1.00
                   0.8                   1

20 0
 s    6 1.00
             3047.5249  0.0018347001629433
             457.36951    0.01403730124668
             103.94869   0.068842606114048
             29.210155    0.23218442062076
              9.286663    0.46794134155879
              3.163927    0.36231203217765
 s    3 1.00
             7.8682724   -0.11933240861517
             1.8812885   -0.16085421161283
             0.5442493     1.1434564825515
 s    1 1.00
             0.1687144                   1
 p    3 1.00
             7.8682724   0.068999095584993
             1.8812885    0.31642397975315
             0.5442493    0.74430825237435
 p    1 1.00
             0.1687144                   1
 d    1 1.00
                   0.8                   1

21 0
 s    6 1.00
             3047.5249  0.0018347001629433
             457.36951    0.01403730124668
             103.94869   0.068842606114048
             29.210155    0.23218442062076
              9.286663    0.46794134155879
              3.163927    0.36231203217765
 s    3 1.00
             7.8682724   -0.11933240861517
             1.8812885   -0.16085421161283
             0.5442493     1.1434564825515
 s    1 1.00
             0.1687144                   1
 p    3 1.00
             7.8682724   0.068999095584993
             1.8812885    0.31642397975315
             0.5442493    0.74430825237435
 p    1 1.00
             0.1687144                   1
 d    1 1.00
                   0.8                   1

22 0
 s    3 1.00
             18.731137    0.03349459952309
             2.8253937    0.23472694665786
             0.6401217    0.81375731841339
 s    1 1.00
             0.1612778                   1

23 0
 s    3 1.00
             18.731137    0.03349459952309
             2.8253937    0.23472694665786
             0.6401217    0.81375731841339
 s    1 1.00
             0.1612778                   1

24 0
 s    3 1.00
             18.731137    0.03349459952309
             2.8253937    0.23472694665786
             0.6401217    0.81375731841339
 s    1 1.00
             0.1612778                   1

25 0
 s    3 1.00
             18.731137    0.03349459952309
             2.8253937    0.23472694665786
             0.6401217    0.81375731841339
 s    1 1.00
             0.1612778                   1

26 0
 s    3 1.00
             18.731137    0.03349459952309
             2.8253937    0.23472694665786
             0.6401217    0.81375731841339
 s    1 1.00
             0.1612778                   1

27 0
 s    3 1.00
             18.731137    0.03349459952309
             2.8253937    0.23472694665786
             0.6401217    0.81375731841339
 s    1 1.00
             0.1612778                   1

28 0
 s    3 1.00
             18.731137    0.03349459952309
             2.8253937    0.23472694665786
             0.6401217    0.81375731841339
 s    1 1.00
             0.1612778                   1

29 0
 s    3 1.00
             18.731137    0.03349459952309
             2.8253937    0.23472694665786
             0.6401217    0.81375731841339
 s    1 1.00
             0.1612778                   1

30 0
 s    3 1.00
             18.731137    0.03349459952309
             2.8253937    0.23472694665786
             0.6401217    0.81375731841339
 s    1 1.00
             0.1612778                   1

31 0
 s    3 1.00
             18.731137    0.03349459952309
             2.8253937    0.23472694665786
             0.6401217    0.81375731841339
 s    1 1.00
             0.1612778                   1

32 0
 s    3 1.00
             18.731137    0.03349459952309
             2.8253937    0.23472694665786
             0.6401217    0.81375731841339
 s    1 1.00
             0.1612778                   1

33 0
 s    6 1.00
             3047.5249  0.0018347001629433
             457.36951    0.01403730124668
             103.94869   0.068842606114048
             29.210155    0.23218442062076
              9.286663    0.46794134155879
              3.163927    0.36231203217765
 s    3 1.00
             7.8682724   -0.11933240861517
             1.8812885   -0.16085421161283
             0.5442493     1.1434564825515
 s    1 1.00
             0.1687144                   1
 p    3 1.00
             7.8682724   0.068999095584993
             1.8812885    0.31642397975315
             0.5442493    0.74430825237435
 p    1 1.00
             0.1687144                   1
 d    1 1.00
                   0.8                   1

34 0
 s    6 1.00
             3047.5249  0.0018347001629433
             457.36951    0.01403730124668
             103.94869   0.068842606114048
             29.210155    0.23218442062076
              9.286663    0.46794134155879
              3.163927    0.36231203217765
 s    3 1.00
             7.8682724   -0.11933240861517
             1.8812885   -0.16085421161283
             0.5442493     1.1434564825515
 s    1 1.00
             0.1687144                   1
 p    3 1.00
             7.8682724   0.068999095584993
             1.8812885    0.31642397975315
             0.5442493    0.74430825237435
 p    1 1.00
             0.1687144                   1
 d    1 1.00
                   0.8                   1

35 0
 s    3 1.00
             18.731137    0.03349459952309
             2.8253937    0.23472694665786
             0.6401217    0.81375731841339
 s    1 1.00
             0.1612778                   1

36 0
 s    6 1.00
             3047.5249  0.0018347001629433
             457.36951    0.01403730124668
             103.94869   0.068842606114048
             29.210155    0.23218442062076
              9.286663    0.46794134155879
              3.163927    0.36231203217765
 s    3 1.00
             7.8682724   -0.11933240861517
             1.8812885   -0.16085421161283
             0.5442493     1.1434564825515
 s    1 1.00
             0.1687144                   1
 p    3 1.00
             7.8682724   0.068999095584993
             1.8812885    0.31642397975315
             0.5442493    0.74430825237435
 p    1 1.00
             0.1687144                   1
 d    1 1.00
                   0.8                   1

37 0
 s    3 1.00
             18.731137    0.03349459952309
             2.8253937    0.23472694665786
             0.6401217    0.81375731841339
 s    1 1.00
             0.1612778                   1

38 0
 s    3 1.00
             18.731137    0.03349459952309
             2.8253937    0.23472694665786
             0.6401217    0.81375731841339
 s    1 1.00
             0.1612778                   1

39 0
 s    6 1.00
             3047.5249  0.0018347001629433
             457.36951    0.01403730124668
             103.94869   0.068842606114048
             29.210155    0.23218442062076
              9.286663    0.46794134155879
              3.163927    0.36231203217765
 s    3 1.00
             7.8682724   -0.11933240861517
             1.8812885   -0.16085421161283
             0.5442493     1.1434564825515
 s    1 1.00
             0.1687144                   1
 p    3 1.00
             7.8682724   0.068999095584993
             1.8812885    0.31642397975315
             0.5442493    0.74430825237435
 p    1 1.00
             0.1687144                   1
 d    1 1.00
                   0.8                   1

40 0
 s    6 1.00
             3047.5249  0.0018347001629433
             457.36951    0.01403730124668
             103.94869   0.068842606114048
             29.210155    0.23218442062076
              9.286663    0.46794134155879
              3.163927    0.36231203217765
 s    3 1.00
             7.8682724   -0.11933240861517
             1.8812885   -0.16085421161283
             0.5442493     1.1434564825515
 s    1 1.00
             0.1687144                   1
 p    3 1.00
             7.8682724   0.068999095584993
             1.8812885    0.31642397975315
             0.5442493    0.74430825237435
 p    1 1.00
             0.1687144                   1
 d    1 1.00
                   0.8                   1

41 0
 s    3 1.00
             18.731137    0.03349459952309
             2.8253937    0.23472694665786
             0.6401217    0.81375731841339
 s    1 1.00
             0.1612778                   1

42 0
 s    6 1.00
             5484.6717   0.001831099805527
             825.23495   0.013950098518422
             188.04696    0.06844509273075
               52.9645    0.23271427528445
              16.89757    0.47019295006289
             5.7996353    0.35852086192309
 s    3 1.00
             15.539616   -0.11077750382508
             3.5999336   -0.14802630511126
             1.0137618     1.1307670390447
 s    1 1.00
             0.2700058                   1
 p    3 1.00
             15.539616   0.070874299543311
             3.5999336    0.33975279781076
             1.0137618    0.72715859531445
 p    1 1.00
             0.2700058                   1
 d    1 1.00
                   0.8                   1

43 0
 s    3 1.00
             18.731137    0.03349459952309
             2.8253937    0.23472694665786
             0.6401217    0.81375731841339
 s    1 1.00
             0.1612778                   1

[5d]
[7f]
[9g]

[MO]
 Sym= A
 Ene=               0
 Spin= Alpha
 Occup=    1.00000
   1    -4.8739829181536e-07
   2    -2.2853780226021e-05
   3    2.0941751482635e-05
   4    -1.2577502676206e-06
   5    -1.0038271213303e-05
   6    2.1268088704034e-05
   7    2.3448238225549e-05
   8    7.3724437522735e-05
   9    -0.00036334585540966
  10    6.1165047841334e-07
  11    1.0634863691036e-05
  12    2.5949144055877e-06
  13    1.3360050878484e-05
  14    -7.3091595767553e-06
  15    -1.4686119570763e-05
  16    1.8165456500609e-05
  17    5.070136327689e-06
  18    0.00016261897880101
  19    0.00043100330263192
  20    5.7671035183109e-05
  21    -4.0781248920259e-06
  22    -7.8606244488228e-05
  23    0.00015914668827543
  24    -9.1950220267033e-05
  25    -0.00062261200024424
  26    1.9099942969683e-05
  27    -2.1718929835946e-05
  28    7.1924242983974e-06
  29    4.1014287101489e-05
  30    -3.9627761817439e-06
  31    -9.1084538281622e-06
  32    2.9615842276949e-05
  33    7.6475911512698e-05
  34    0.00028276742594875
  35    -0.0043627553316979
  36    -0.00010882349241802
  37    7.8920909707865e-05
  38    0.0002099695280878
  39    -0.00039004912328708
  40    0.0019044048501706
  41    0.00058495092653645
  42    -2.8240063219649e-05
  43    0.00010240921381415
  44    -7.0830935836065e-05
  45    3.1994882337641e-05
  46      4.7066067566e-05
  47    -9.629021535408e-06
  48    -0.00024849886424103
  49    -5.3591958068738e-05
  50    0.00030783097827994
  51    0.0035941581615445
  52    0.0002747106134377
  53    -0.00033781935309793
  54    -0.00043714635201857
  55    -0.0015051781570456
  56    0.0024696629652985
  57    0.0022311938847748
  58    -1.4253539680268e-05
  59    3.556842703352e-05
  60    0.00017978166635131
  61    1.7291295131997e-05
  62    -0.00011285347017057
  63    0.00039403837418091
  64    0.00013590459645485
  65    -2.3463337914635e-07
  66    -4.6257416348283e-07
  67    -5.924545139809e-08
  68    -4.9690595228843e-07
  69    2.8918844611535e-06
  70    2.9705066611655e-07
  71    -3.8470283890612e-07
  72    8.4845691149505e-08
  73    3.1790344156668e-07
  74    1.2969993403328e-06
  75    2.6341289541125e-07
  76    -4.8234643306339e-08
  77    -1.2570003934019e-07
  78    4.8030775509789e-08
  79    6.8275898685409e-08
  80    -1.0221339913121e-07
  81    8.319619594138e-08
  82    -9.6280558846498e-09
  83    -2.0271606635216e-08
  84    -9.0177574559965e-08
  85    -1.2000517252118e-05
  86    5.3461994566016e-07
  87    8.3035383113341e-08
  88    6.7710225233177e-07
  89    3.2574552097673e-06
  90    -4.4372230390062e-06
  91    2.5711530116893e-06
  92    1.813970561917e-07
  93    -3.0640797134074e-07
  94    2.8390244667962e-07
  95    1.7756115308624e-08
  96    -1.8440465802346e-07
  97    3.8550118746003e-07
  98    8.9524474804186e-08
  99    1.0053865919206e-07
 100    -6.9792100118679e-07
 101    2.4655462003847e-08
 102    -1.212736217207e-06
 103    1.3836899527113e-05
 104    9.7242297009268e-07
 105    1.3187981255757e-07
 106    -4.8625764445348e-07
 107    -1.8175354736473e-05
 108    1.8378041869942e-05
 109    2.7962917629247e-05
 110    -5.4792910351345e-07
 111    -4.8196412387972e-07
 112    2.3798447709848e-07
 113    4.1956295027213e-07
 114    -4.7452190693887e-07
 115    -5.0288126657938e-07
 116    -4.3476559533888e-06
 117    3.5212441542016e-05
 118    -6.6873345080573e-07
 119    1.0662096485537e-06
 120    5.9602753856614e-07
 121    -7.8775109285029e-06
 122    5.7862438239198e-07
 123    2.2580292170206e-06
 124    -4.964607416568e-08
 125    -1.4669676442034e-07
 126    -1.0829812341259e-07
 127    3.2665189709068e-08
 128    -3.539358522604e-07
 129    -8.2564176277871e-07
 130    -8.6236996289383e-06
 131    4.6792475256409e-05
 132    -1.8074263323889e-07
 133    -1.4137475492254e-06
 134    3.6116838015534e-06
 135    -2.4759278885686e-05
 136    9.0258877276145e-07
 137    -7.5651444718383e-05
 138    2.404434269046e-06
 139    1.3879259126329e-06
 140    4.0549567033472e-07
 141    4.2824481442174e-07
 142    1.9141110439151e-07
 143    -4.8618326823396e-07
 144    -3.1219090578299e-06
 145    1.7750166168483e-05
 146    6.1013260223864e-07
 147    6.0517785383525e-07
 148    -1.8556434433684e-08
 149    1.1044285314457e-05
 150    -6.2851862599144e-06
 151    -2.4283367929045e-06
 152    -1.0234227077797e-06
 153    -3.2094101778544e-07
 154    -8.7164174418254e-08
 155    6.5864554364317e-07
 156    -7.1117210864374e-07
 157    -1.3185830661879e-08
 158    1.0721548796954e-06
 159    1.5287770526102e-06
 160    7.6123280632587e-07
 161    -3.4715129605643e-07
 162    -1.9807794086586e-07
 163    -6.1351957564804e-06
 164    1.349714817347e-07
 165    7.8483167694069e-07
 166    3.823701624385e-07
 167    -9.051430784549e-08
 168    -1.3091076246209e-08
 169    -1.097852539897e-07
 170    2.5948815151843e-07
 171    7.1173568718123e-08
 172    -5.1069921006309e-07
 173    -1.7691516836422e-06
 174    -8.2357461465751e-07
 175    -2.500729998215e-07
 176    7.9498962121489e-07
 177    -2.8864767380026e-07
 178    1.2350491476716e-06
 179    -1.9576448458397e-06
 180    1.399762030497e-07
 181    1.7183338939956e-07
 182    3.8307261355855e-09
 183    -3.504034747832e-07
 184    1.6580388077165e-07
 185    -2.5890260741808e-07
 186    -2.959422170464e-06
 187    2.1092792410554e-06
 188    -1.508736727824e-07
 189    1.4584900927717e-07
 190    1.1817887698755e-06
 191    2.5973242104732e-06
 192     8.46504962082e-07
 193    -5.3343861790232e-06
 194    3.4770426389929e-07
 195    -5.3880356463501e-08
 196    1.5420286993485e-07
 197    6.5515352628983e-08
 198    -9.4727630479623e-08
 199    -7.9034820488318e-07
 200    -1.4471110975218e-06
 201    1.6365166820555e-07
 202    3.5465217166585e-06
 203    -1.5756876332292e-06
 204    -1.6887677137928e-06
 205    -4.7545385499027e-07
 206    -2.7393319166771e-06
 207    1.5020411243036e-06
 208    -1.1972893236562e-05
 209    1.1032742861738e-06
 210    -4.1864151589339e-06
 211    4.4824679360146e-07
 212    2.6294727512642e-06
 213    -3.6756974685188e-07
 214    -2.6425272129511e-06
 215    -5.737698880749e-07
 216    5.0462075048348e-07
 217    4.329441332984e-07
 218    1.2807858029322e-06
 219    2.0289953846971e-07
 220    9.3799508598163e-07
 221    -8.8401152651379e-07
 222    -7.6554193540057e-06
 223    -1.6608052579405e-06
 224    1.1825129545312e-06
 225    -2.9641958019345e-06
 226    2.5865675438253e-06
 227    1.4728097740836e-05
 228    2.2515002255457e-05
 229    -9.0699626951829e-05
 230    -1.1475959236492e-06
 231    -3.8288872702311e-06
 232    -2.1303978356776e-06
 233    1.6818613910246e-06
 234    2.8088115381441e-06
 235    -9.0836019425909e-07
 236    -1.2023835308783e-05
 237    2.2997658580153e-05
 238    -1.7597337400715e-06
 239    6.734124227311e-06
 240    5.7782470134602e-06
 241    -2.0063194898897e-05
 242    -4.8347832407775e-06
 243    -8.8843606910813e-05
 244    1.9424874428156e-06
 245    6.5782606530093e-06
 246    1.8098628836989e-06
 247    2.3911956931392e-06
 248    1.6429742192769e-06
 249    -3.7246760095723e-06
 250    1.059624452178e-05
 251    -4.3566509071691e-06
 252    -2.6108147610537e-05
 253    0.00023547430797887
 254    5.5588341524745e-06
 255    -5.7976660599875e-06
 256    4.3520563670443e-06
 257    0.0001023606978689
 258    0.00010757452355902
 259    -0.0002287766661992
 260    1.5562721668934e-06
 261    -1.1821540967854e-05
 262    -5.1832140496537e-06
 263    7.2655932365821e-06
 264    6.2442204575441e-06
 265    -5.0216973507789e-06
 266    2.6209405061206e-05
 267    -8.0153645509304e-06
 268    3.9154841743949e-05
 269    -6.8543249643631e-05
 270    2.4547449061926e-05
 271    0.0031095724107468
 272    -0.00011641812916181
 273    -0.00024025649487935
 274    0.00013873265265256
 275     0.001991335036947
 276    0.00057547163041219
 277    -0.0032323612390617
 278    0.00022608907129655
 279    -0.00020699919816915
 280    0.0001399889348766