[Molden Format]
made by pyscf v[2.0.1]
[Atoms] (AU)
C   1   6     0.69100024066471     0.64692934207205    -3.48223131169301
H   2   1     2.68052439830868     1.13355088658700    -3.25784032593313
C   3   6    -0.36286361513219     0.85440132524594    -5.97030179418974
H   4   1    -2.35448549047279     0.36322488579172    -6.17995817793143
C   5   6     0.93697958957450     1.61209284601821    -8.05828437677121
H   6   1     2.82520634269342     2.40231158819155    -7.83223822317356
C   7   6    -0.04591716574067     1.43050675384137   -10.57963800872440
H   8   1    -1.93966227025444     0.63380613673234   -10.77641154630544
H   9   1     1.55630230933075    -1.92953025305990    12.99630010416247
C   10   6     0.75233899775814    -2.21270439606481    11.10705728102219
H   11   1    -0.43433408177274    -3.90944857546550    11.22216085340412
C   12   6     2.86362581178706    -2.63237380607947     9.17926416456045
H   13   1     4.39038949912609    -1.24955421540245     9.49899813497433
H   14   1     3.74629220191363    -4.48798724300892     9.47414880959024
C   15   6     2.02478325613682    -2.42177285709634     6.44560829588644
C   16   6     3.88048732735477    -3.58795445234514     4.61402886975252
C   17   6    -0.18412382258602    -1.30464291234259     5.76021113872346
C   18   6    -2.10044360464350    -0.26837831858460     7.71610340967100
C   19   6    -3.08956938670431     2.35282328359417     6.88693925039594
C   20   6    -4.37372924086464    -2.09766595989678     7.93610724222001
C   21   6    -0.83850430601230     0.06372213486173    10.33002307638377
H   22   1     0.38411922151109     1.74281358582432    10.27380136542181
H   23   1    -2.30980003007874     0.45460143924521    11.73986301809809
H   24   1     4.58527064644668    -5.38706904487420     5.36778158031719
H   25   1     5.54944938085014    -2.37631462192748     4.35398898413318
H   26   1     3.06633019150423    -3.94118377050688     2.75255466040884
H   27   1    -4.17727778763735     2.26573369139522     5.12914900961283
H   28   1    -1.52662344944051     3.68001877445626     6.59540397144508
H   29   1    -4.32916174397830     3.13643051467482     8.35225460090378
H   30   1    -5.32329548508442    -2.36691813602939     6.11583672749896
H   31   1    -5.77989366602257    -1.33896741843465     9.25748940450990
H   32   1    -3.79310905208926    -3.96389819310853     8.61386170102686
C   33   6    -1.01100794811226    -1.06331657314144     3.11929490449947
C   34   6     0.37686231036534    -0.33275864505552     1.09165013605873
H   35   1    -3.01671213906703    -1.40297922279997     2.77827895090944
C   36   6    -0.64382707979370    -0.11591880174385    -1.42063131251064
H   37   1     2.35569259782137     0.17174499283897     1.33641070251401
H   38   1    -2.63317482980319    -0.60229203511219    -1.66119700387645
C   39   6     1.17709071185639     2.16235266520763   -12.71162929579923
C   40   6     0.01149368127442     1.89967079998079   -15.19747007607967
H   41   1     3.06674924318564     2.97042403350516   -12.64854490967844
O   42   8     1.00001917973751     2.51860460578581   -17.18758625638360
H   43   1    -1.92257659968242     1.06364005135718   -15.17290072571517
[GTO]
1 0
 s    6 1.00
             3047.5249  0.0018347001629433
             457.36951    0.01403730124668
             103.94869   0.068842606114048
             29.210155    0.23218442062076
              9.286663    0.46794134155879
              3.163927    0.36231203217765
 s    3 1.00
             7.8682724   -0.11933240861517
             1.8812885   -0.16085421161283
             0.5442493     1.1434564825515
 s    1 1.00
             0.1687144                   1
 p    3 1.00
             7.8682724   0.068999095584993
             1.8812885    0.31642397975315
             0.5442493    0.74430825237435
 p    1 1.00
             0.1687144                   1
 d    1 1.00
                   0.8                   1

2 0
 s    3 1.00
             18.731137    0.03349459952309
             2.8253937    0.23472694665786
             0.6401217    0.81375731841339
 s    1 1.00
             0.1612778                   1

3 0
 s    6 1.00
             3047.5249  0.0018347001629433
             457.36951    0.01403730124668
             103.94869   0.068842606114048
             29.210155    0.23218442062076
              9.286663    0.46794134155879
              3.163927    0.36231203217765
 s    3 1.00
             7.8682724   -0.11933240861517
             1.8812885   -0.16085421161283
             0.5442493     1.1434564825515
 s    1 1.00
             0.1687144                   1
 p    3 1.00
             7.8682724   0.068999095584993
             1.8812885    0.31642397975315
             0.5442493    0.74430825237435
 p    1 1.00
             0.1687144                   1
 d    1 1.00
                   0.8                   1

4 0
 s    3 1.00
             18.731137    0.03349459952309
             2.8253937    0.23472694665786
             0.6401217    0.81375731841339
 s    1 1.00
             0.1612778                   1

5 0
 s    6 1.00
             3047.5249  0.0018347001629433
             457.36951    0.01403730124668
             103.94869   0.068842606114048
             29.210155    0.23218442062076
              9.286663    0.46794134155879
              3.163927    0.36231203217765
 s    3 1.00
             7.8682724   -0.11933240861517
             1.8812885   -0.16085421161283
             0.5442493     1.1434564825515
 s    1 1.00
             0.1687144                   1
 p    3 1.00
             7.8682724   0.068999095584993
             1.8812885    0.31642397975315
             0.5442493    0.74430825237435
 p    1 1.00
             0.1687144                   1
 d    1 1.00
                   0.8                   1

6 0
 s    3 1.00
             18.731137    0.03349459952309
             2.8253937    0.23472694665786
             0.6401217    0.81375731841339
 s    1 1.00
             0.1612778                   1

7 0
 s    6 1.00
             3047.5249  0.0018347001629433
             457.36951    0.01403730124668
             103.94869   0.068842606114048
             29.210155    0.23218442062076
              9.286663    0.46794134155879
              3.163927    0.36231203217765
 s    3 1.00
             7.8682724   -0.11933240861517
             1.8812885   -0.16085421161283
             0.5442493     1.1434564825515
 s    1 1.00
             0.1687144                   1
 p    3 1.00
             7.8682724   0.068999095584993
             1.8812885    0.31642397975315
             0.5442493    0.74430825237435
 p    1 1.00
             0.1687144                   1
 d    1 1.00
                   0.8                   1

8 0
 s    3 1.00
             18.731137    0.03349459952309
             2.8253937    0.23472694665786
             0.6401217    0.81375731841339
 s    1 1.00
             0.1612778                   1

9 0
 s    3 1.00
             18.731137    0.03349459952309
             2.8253937    0.23472694665786
             0.6401217    0.81375731841339
 s    1 1.00
             0.1612778                   1

10 0
 s    6 1.00
             3047.5249  0.0018347001629433
             457.36951    0.01403730124668
             103.94869   0.068842606114048
             29.210155    0.23218442062076
              9.286663    0.46794134155879
              3.163927    0.36231203217765
 s    3 1.00
             7.8682724   -0.11933240861517
             1.8812885   -0.16085421161283
             0.5442493     1.1434564825515
 s    1 1.00
             0.1687144                   1
 p    3 1.00
             7.8682724   0.068999095584993
             1.8812885    0.31642397975315
             0.5442493    0.74430825237435
 p    1 1.00
             0.1687144                   1
 d    1 1.00
                   0.8                   1

11 0
 s    3 1.00
             18.731137    0.03349459952309
             2.8253937    0.23472694665786
             0.6401217    0.81375731841339
 s    1 1.00
             0.1612778                   1

12 0
 s    6 1.00
             3047.5249  0.0018347001629433
             457.36951    0.01403730124668
             103.94869   0.068842606114048
             29.210155    0.23218442062076
              9.286663    0.46794134155879
              3.163927    0.36231203217765
 s    3 1.00
             7.8682724   -0.11933240861517
             1.8812885   -0.16085421161283
             0.5442493     1.1434564825515
 s    1 1.00
             0.1687144                   1
 p    3 1.00
             7.8682724   0.068999095584993
             1.8812885    0.31642397975315
             0.5442493    0.74430825237435
 p    1 1.00
             0.1687144                   1
 d    1 1.00
                   0.8                   1

13 0
 s    3 1.00
             18.731137    0.03349459952309
             2.8253937    0.23472694665786
             0.6401217    0.81375731841339
 s    1 1.00
             0.1612778                   1

14 0
 s    3 1.00
             18.731137    0.03349459952309
             2.8253937    0.23472694665786
             0.6401217    0.81375731841339
 s    1 1.00
             0.1612778                   1

15 0
 s    6 1.00
             3047.5249  0.0018347001629433
             457.36951    0.01403730124668
             103.94869   0.068842606114048
             29.210155    0.23218442062076
              9.286663    0.46794134155879
              3.163927    0.36231203217765
 s    3 1.00
             7.8682724   -0.11933240861517
             1.8812885   -0.16085421161283
             0.5442493     1.1434564825515
 s    1 1.00
             0.1687144                   1
 p    3 1.00
             7.8682724   0.068999095584993
             1.8812885    0.31642397975315
             0.5442493    0.74430825237435
 p    1 1.00
             0.1687144                   1
 d    1 1.00
                   0.8                   1

16 0
 s    6 1.00
             3047.5249  0.0018347001629433
             457.36951    0.01403730124668
             103.94869   0.068842606114048
             29.210155    0.23218442062076
              9.286663    0.46794134155879
              3.163927    0.36231203217765
 s    3 1.00
             7.8682724   -0.11933240861517
             1.8812885   -0.16085421161283
             0.5442493     1.1434564825515
 s    1 1.00
             0.1687144                   1
 p    3 1.00
             7.8682724   0.068999095584993
             1.8812885    0.31642397975315
             0.5442493    0.74430825237435
 p    1 1.00
             0.1687144                   1
 d    1 1.00
                   0.8                   1

17 0
 s    6 1.00
             3047.5249  0.0018347001629433
             457.36951    0.01403730124668
             103.94869   0.068842606114048
             29.210155    0.23218442062076
              9.286663    0.46794134155879
              3.163927    0.36231203217765
 s    3 1.00
             7.8682724   -0.11933240861517
             1.8812885   -0.16085421161283
             0.5442493     1.1434564825515
 s    1 1.00
             0.1687144                   1
 p    3 1.00
             7.8682724   0.068999095584993
             1.8812885    0.31642397975315
             0.5442493    0.74430825237435
 p    1 1.00
             0.1687144                   1
 d    1 1.00
                   0.8                   1

18 0
 s    6 1.00
             3047.5249  0.0018347001629433
             457.36951    0.01403730124668
             103.94869   0.068842606114048
             29.210155    0.23218442062076
              9.286663    0.46794134155879
              3.163927    0.36231203217765
 s    3 1.00
             7.8682724   -0.11933240861517
             1.8812885   -0.16085421161283
             0.5442493     1.1434564825515
 s    1 1.00
             0.1687144                   1
 p    3 1.00
             7.8682724   0.068999095584993
             1.8812885    0.31642397975315
             0.5442493    0.74430825237435
 p    1 1.00
             0.1687144                   1
 d    1 1.00
                   0.8                   1

19 0
 s    6 1.00
             3047.5249  0.0018347001629433
             457.36951    0.01403730124668
             103.94869   0.068842606114048
             29.210155    0.23218442062076
              9.286663    0.46794134155879
              3.163927    0.36231203217765
 s    3 1.00
             7.8682724   -0.11933240861517
             1.8812885   -0.16085421161283
             0.5442493     1.1434564825515
 s    1 1.00
             0.1687144                   1
 p    3 1.00
             7.8682724   0.068999095584993
             1.8812885    0.31642397975315
             0.5442493    0.74430825237435
 p    1 1.00
             0.1687144                   1
 d    1 1.00
                   0.8                   1

20 0
 s    6 1.00
             3047.5249  0.0018347001629433
             457.36951    0.01403730124668
             103.94869   0.068842606114048
             29.210155    0.23218442062076
              9.286663    0.46794134155879
              3.163927    0.36231203217765
 s    3 1.00
             7.8682724   -0.11933240861517
             1.8812885   -0.16085421161283
             0.5442493     1.1434564825515
 s    1 1.00
             0.1687144                   1
 p    3 1.00
             7.8682724   0.068999095584993
             1.8812885    0.31642397975315
             0.5442493    0.74430825237435
 p    1 1.00
             0.1687144                   1
 d    1 1.00
                   0.8                   1

21 0
 s    6 1.00
             3047.5249  0.0018347001629433
             457.36951    0.01403730124668
             103.94869   0.068842606114048
             29.210155    0.23218442062076
              9.286663    0.46794134155879
              3.163927    0.36231203217765
 s    3 1.00
             7.8682724   -0.11933240861517
             1.8812885   -0.16085421161283
             0.5442493     1.1434564825515
 s    1 1.00
             0.1687144                   1
 p    3 1.00
             7.8682724   0.068999095584993
             1.8812885    0.31642397975315
             0.5442493    0.74430825237435
 p    1 1.00
             0.1687144                   1
 d    1 1.00
                   0.8                   1

22 0
 s    3 1.00
             18.731137    0.03349459952309
             2.8253937    0.23472694665786
             0.6401217    0.81375731841339
 s    1 1.00
             0.1612778                   1

23 0
 s    3 1.00
             18.731137    0.03349459952309
             2.8253937    0.23472694665786
             0.6401217    0.81375731841339
 s    1 1.00
             0.1612778                   1

24 0
 s    3 1.00
             18.731137    0.03349459952309
             2.8253937    0.23472694665786
             0.6401217    0.81375731841339
 s    1 1.00
             0.1612778                   1

25 0
 s    3 1.00
             18.731137    0.03349459952309
             2.8253937    0.23472694665786
             0.6401217    0.81375731841339
 s    1 1.00
             0.1612778                   1

26 0
 s    3 1.00
             18.731137    0.03349459952309
             2.8253937    0.23472694665786
             0.6401217    0.81375731841339
 s    1 1.00
             0.1612778                   1

27 0
 s    3 1.00
             18.731137    0.03349459952309
             2.8253937    0.23472694665786
             0.6401217    0.81375731841339
 s    1 1.00
             0.1612778                   1

28 0
 s    3 1.00
             18.731137    0.03349459952309
             2.8253937    0.23472694665786
             0.6401217    0.81375731841339
 s    1 1.00
             0.1612778                   1

29 0
 s    3 1.00
             18.731137    0.03349459952309
             2.8253937    0.23472694665786
             0.6401217    0.81375731841339
 s    1 1.00
             0.1612778                   1

30 0
 s    3 1.00
             18.731137    0.03349459952309
             2.8253937    0.23472694665786
             0.6401217    0.81375731841339
 s    1 1.00
             0.1612778                   1

31 0
 s    3 1.00
             18.731137    0.03349459952309
             2.8253937    0.23472694665786
             0.6401217    0.81375731841339
 s    1 1.00
             0.1612778                   1

32 0
 s    3 1.00
             18.731137    0.03349459952309
             2.8253937    0.23472694665786
             0.6401217    0.81375731841339
 s    1 1.00
             0.1612778                   1

33 0
 s    6 1.00
             3047.5249  0.0018347001629433
             457.36951    0.01403730124668
             103.94869   0.068842606114048
             29.210155    0.23218442062076
              9.286663    0.46794134155879
              3.163927    0.36231203217765
 s    3 1.00
             7.8682724   -0.11933240861517
             1.8812885   -0.16085421161283
             0.5442493     1.1434564825515
 s    1 1.00
             0.1687144                   1
 p    3 1.00
             7.8682724   0.068999095584993
             1.8812885    0.31642397975315
             0.5442493    0.74430825237435
 p    1 1.00
             0.1687144                   1
 d    1 1.00
                   0.8                   1

34 0
 s    6 1.00
             3047.5249  0.0018347001629433
             457.36951    0.01403730124668
             103.94869   0.068842606114048
             29.210155    0.23218442062076
              9.286663    0.46794134155879
              3.163927    0.36231203217765
 s    3 1.00
             7.8682724   -0.11933240861517
             1.8812885   -0.16085421161283
             0.5442493     1.1434564825515
 s    1 1.00
             0.1687144                   1
 p    3 1.00
             7.8682724   0.068999095584993
             1.8812885    0.31642397975315
             0.5442493    0.74430825237435
 p    1 1.00
             0.1687144                   1
 d    1 1.00
                   0.8                   1

35 0
 s    3 1.00
             18.731137    0.03349459952309
             2.8253937    0.23472694665786
             0.6401217    0.81375731841339
 s    1 1.00
             0.1612778                   1

36 0
 s    6 1.00
             3047.5249  0.0018347001629433
             457.36951    0.01403730124668
             103.94869   0.068842606114048
             29.210155    0.23218442062076
              9.286663    0.46794134155879
              3.163927    0.36231203217765
 s    3 1.00
             7.8682724   -0.11933240861517
             1.8812885   -0.16085421161283
             0.5442493     1.1434564825515
 s    1 1.00
             0.1687144                   1
 p    3 1.00
             7.8682724   0.068999095584993
             1.8812885    0.31642397975315
             0.5442493    0.74430825237435
 p    1 1.00
             0.1687144                   1
 d    1 1.00
                   0.8                   1

37 0
 s    3 1.00
             18.731137    0.03349459952309
             2.8253937    0.23472694665786
             0.6401217    0.81375731841339
 s    1 1.00
             0.1612778                   1

38 0
 s    3 1.00
             18.731137    0.03349459952309
             2.8253937    0.23472694665786
             0.6401217    0.81375731841339
 s    1 1.00
             0.1612778                   1

39 0
 s    6 1.00
             3047.5249  0.0018347001629433
             457.36951    0.01403730124668
             103.94869   0.068842606114048
             29.210155    0.23218442062076
              9.286663    0.46794134155879
              3.163927    0.36231203217765
 s    3 1.00
             7.8682724   -0.11933240861517
             1.8812885   -0.16085421161283
             0.5442493     1.1434564825515
 s    1 1.00
             0.1687144                   1
 p    3 1.00
             7.8682724   0.068999095584993
             1.8812885    0.31642397975315
             0.5442493    0.74430825237435
 p    1 1.00
             0.1687144                   1
 d    1 1.00
                   0.8                   1

40 0
 s    6 1.00
             3047.5249  0.0018347001629433
             457.36951    0.01403730124668
             103.94869   0.068842606114048
             29.210155    0.23218442062076
              9.286663    0.46794134155879
              3.163927    0.36231203217765
 s    3 1.00
             7.8682724   -0.11933240861517
             1.8812885   -0.16085421161283
             0.5442493     1.1434564825515
 s    1 1.00
             0.1687144                   1
 p    3 1.00
             7.8682724   0.068999095584993
             1.8812885    0.31642397975315
             0.5442493    0.74430825237435
 p    1 1.00
             0.1687144                   1
 d    1 1.00
                   0.8                   1

41 0
 s    3 1.00
             18.731137    0.03349459952309
             2.8253937    0.23472694665786
             0.6401217    0.81375731841339
 s    1 1.00
             0.1612778                   1

42 0
 s    6 1.00
             5484.6717   0.001831099805527
             825.23495   0.013950098518422
             188.04696    0.06844509273075
               52.9645    0.23271427528445
              16.89757    0.47019295006289
             5.7996353    0.35852086192309
 s    3 1.00
             15.539616   -0.11077750382508
             3.5999336   -0.14802630511126
             1.0137618     1.1307670390447
 s    1 1.00
             0.2700058                   1
 p    3 1.00
             15.539616   0.070874299543311
             3.5999336    0.33975279781076
             1.0137618    0.72715859531445
 p    1 1.00
             0.2700058                   1
 d    1 1.00
                   0.8                   1

43 0
 s    3 1.00
             18.731137    0.03349459952309
             2.8253937    0.23472694665786
             0.6401217    0.81375731841339
 s    1 1.00
             0.1612778                   1

[5d]
[7f]
[9g]

[MO]
 Sym= A
 Ene=               0
 Spin= Alpha
 Occup=    1.00000
   1    -1.1110941265472e-05
   2    -4.8749476123114e-05
   3    -2.0527894730975e-05
   4    -2.2576212445178e-05
   5    -2.2258754362462e-05
   6    2.9835258818492e-05
   7    0.00025342090154201
   8    0.00029740160661463
   9    -0.0010023890352896
  10    2.2409929867457e-05
  11    3.7552831706382e-05
  12    1.2438118955857e-06
  13    7.5810611401638e-06
  14    -2.1264210028945e-06
  15    -5.0928599570175e-05
  16    -2.8424643599948e-05
  17     2.16034646812e-05
  18    9.3355896654957e-05
  19    -0.0022193882624167
  20    -1.9420987797042e-05
  21    -9.0574756078702e-06
  22    7.1763057493126e-05
  23    -0.00045348552844666
  24    -0.00021809007295758
  25    0.00069219585097218
  26    -5.8248627485601e-05
  27    1.2973327094632e-05
  28    2.4074440824079e-05
  29    -4.545134379713e-06
  30    1.208833694796e-05
  31    -1.2424710558244e-06
  32    0.00010984727401689
  33    -8.7458374543529e-05
  34    -0.00032679882416625
  35    0.0055941898048929
  36    1.2548782575811e-06
  37    1.3262764412023e-05
  38    -0.00019205250140129
  39    -0.0019686413458471
  40    -0.00067806994268253
  41    -0.0014563956350131
  42    0.00016354752207784
  43    5.852346197328e-05
  44    -4.1982431586853e-06
  45     3.63135219864e-05
  46    3.4252252787791e-05
  47    4.1118801644998e-05
  48    0.00029953872230397
  49    6.2877605931663e-05
  50    -0.00025085170201934
  51    -0.0042695863955329
  52    0.00016730949284784
  53    1.8884659416514e-05
  54    0.00059226875242487
  55    -0.0016664782881947
  56    -0.00037825001191837
  57    -0.0037899475130465
  58    -0.00010890578102197
  59    -0.00017829361077603
  60    -6.8558887883774e-05
  61    4.8731219319664e-05
  62    7.4347281142839e-05
  63    -0.00038402055867892
  64    -0.00018886835912984
  65    -1.5504917522131e-07
  66    1.9229098732833e-06
  67    -1.4669248205304e-07
  68    -1.5148851194013e-06
  69    3.2269760409389e-07
  70    8.9628276461397e-07
  71    -9.8631525405179e-07
  72    4.1159427574514e-07
  73    2.1019264513687e-06
  74    7.7270363656512e-07
  75    -2.8103885071583e-06
  76    2.5515215622136e-07
  77    6.2291752802232e-08
  78    1.5961185707613e-07
  79    1.3534078583462e-07
  80    7.6076389975839e-08
  81    9.8508710835902e-08
  82    6.8620805710737e-07
  83    2.9813108991989e-07
  84    2.1232254403954e-06
  85    -1.0983910304535e-05
  86    3.9897203670106e-07
  87    1.2657343736773e-07
  88    8.0922326613661e-07
  89    5.7304389485202e-06
  90    -9.389300787084e-06
  91    2.9018952933522e-07
  92    -1.2609720042025e-07
  93    -5.2532852912939e-07
  94    9.8273271010826e-07
  95    -3.4524220916283e-07
  96    -8.4175192792634e-09
  97    1.4482748126113e-06
  98    7.7123097558547e-07
  99    -3.8450970523689e-07
 100    -1.7264198095462e-06
 101    -7.0995643859146e-07
 102    -3.077702088687e-06
 103    9.0577830289013e-05
 104    -1.0993635804098e-06
 105    2.1647521350377e-07
 106    -2.4449844225423e-06
 107    -3.6364576774949e-05
 108    3.6814170316657e-05
 109    -5.9347991791531e-06
 110    7.402121905772e-07
 111    1.167225614634e-06
 112    -5.1213907500246e-07
 113    -3.9236850506706e-07
 114    -1.7357865297781e-06
 115    3.4569866118999e-07
 116    3.8053438702084e-06
 117    -4.6491643624465e-06
 118    -5.2629370237416e-07
 119    2.0372071200408e-06
 120    -1.4751331492627e-06
 121    4.0551143233261e-06
 122    -1.3344632742316e-05
 123    1.5956683446477e-05
 124    5.817072681401e-07
 125    -5.3547098347759e-07
 126    -7.9070194471577e-07
 127    -2.3653216006214e-07
 128    -1.8036325495265e-07
 129    2.2133684987299e-07
 130    2.3668249328621e-06
 131    4.814210251163e-05
 132    5.6596455547083e-06
 133    1.1947207513696e-06
 134    -3.5413037257551e-06
 135    -0.00012013495025745
 136    1.2725439500809e-05
 137    -3.5469509242846e-05
 138    1.2239852178115e-06
 139    9.9223574533272e-07
 140    2.7723966341827e-06
 141    -3.3224828221585e-07
 142    1.8524149310779e-06
 143    5.7497675898088e-08
 144    -1.6263014665057e-06
 145    -3.9801055148305e-05
 146    -3.4337587596451e-07
 147    -1.0823044830766e-06
 148    5.0761542127611e-06
 149    -1.2766970415913e-05
 150    3.5856538342363e-05
 151    -1.5638131594984e-05
 152    -1.1076407226703e-06
 153    2.4044549667527e-07
 154    -2.0715469520439e-06
 155    -8.272784808638e-08
 156    -9.9631251693381e-07
 157    6.5576145752108e-07
 158    5.2871904619897e-06
 159    -3.031215946684e-05
 160    5.3659126840392e-07
 161    7.4839729271462e-07
 162    -9.3834455405288e-07
 163    -1.0835490433065e-05
 164    1.1708022352252e-05
 165    1.7724600410282e-06
 166    1.048332270175e-06
 167    -2.4769465223473e-07
 168    2.2464167743112e-07
 169    4.3028984739732e-07
 170    8.0486941068762e-07
 171    6.1806251797338e-08
 172    2.6226789030114e-07
 173    3.3058371558436e-06
 174    -2.3845858031848e-07
 175    -2.216442045477e-07
 176    1.5622103065315e-06
 177    1.2001728310389e-05
 178    3.959828854878e-06
 179    4.8879656010044e-06
 180    -2.8848502990463e-07
 181    1.4183657002363e-06
 182    -4.3190177427679e-08
 183    7.0228856584048e-07
 184    1.0779166891611e-06
 185    -7.4882677362087e-07
 186    -6.2786018894036e-06
 187    2.9012176258978e-05
 188    -1.225843405441e-06
 189    -7.4744030860502e-08
 190    -8.8972684607256e-08
 191    -8.0893362142448e-09
 192    -9.4196784575195e-06
 193    -1.4535082307174e-05
 194    6.6955060462199e-07
 195    7.919822315356e-07
 196    1.4923885724801e-06
 197    -4.9361392166757e-07
 198    3.5963261477789e-07
 199    -1.9153238043356e-06
 200    1.1737073514569e-06
 201    -3.8521010744319e-07
 202    1.8854659736987e-06
 203    -1.2699762038988e-06
 204    -7.7468740260532e-06
 205    2.9898511605422e-06
 206    6.5164209935436e-07
 207    3.5389184987457e-07
 208    1.2366686581075e-05
 209    2.4078485550796e-06
 210    -4.0276315596829e-07
 211    1.8357065102886e-06
 212    3.857359116385e-06
 213    5.351497092992e-07
 214    -3.639889594847e-06
 215    -2.8385444490817e-06
 216    1.7214833918372e-05
 217    8.2487275182276e-07
 218    2.9199413657047e-07
 219    7.7129171001025e-07
 220    -2.1970256240946e-06
 221    -3.6716704832335e-06
 222    -2.3986702502542e-05
 223    0.00025770654054064
 224    5.7951284786632e-06
 225    5.6028383014077e-07
 226    5.9156808739327e-07
 227    4.9276656733515e-05
 228    5.5830980041354e-05
 229    -0.00027754822406834
 230    5.8271323725469e-06
 231    -9.2833789732892e-06
 232    -6.7654094283674e-06
 233    3.2915307292725e-06
 234    2.8112397482348e-06
 235    7.0429021482578e-06
 236    4.1008499567328e-05
 237    -0.00072619818484864
 238    -5.2992445629391e-06
 239    -6.2275731377715e-06
 240    1.8585813847605e-05
 241    0.00023107752694107
 242    5.2285150036204e-05
 243    8.3312928334641e-05
 244    -1.9285151039391e-05
 245    4.2258879185411e-06
 246    6.9067348123551e-06
 247    -1.258139934717e-06
 248    -2.8145092075016e-06
 249    -1.0926332237798e-05
 250    -1.7928552043461e-05
 251    -7.8168985721242e-06
 252    -5.4723222603195e-05
 253    0.0010568237444296
 254    -1.4095423313641e-05
 255    7.0019394204513e-06
 256    -3.1935266271539e-05
 257    0.00046898240348474
 258    8.4982145876146e-05
 259    9.1376262494145e-05
 260    1.9096318728049e-05
 261    -6.0515709110996e-06
 262    -8.0861942830772e-06
 263    6.2185302294605e-06
 264    3.192443918832e-06
 265    -9.5419101129894e-06
 266    -3.6830722583854e-06
 267    2.5968259551625e-05
 268    6.9840926836961e-05
 269    6.7912546062312e-05
 270    -2.7403249903473e-05
 271    -0.0031454007019845
 272    0.00025126490554913
 273    0.0001134565953678
 274    -0.00010250685901528
 275    -0.0013680136711048
 276    -0.00092920059059982
 277    0.0035775620169805
 278    -0.00035485441332815
 279    6.2111365868987e-05
 280    7.2964128173607e-05