[Molden Format]
made by pyscf v[2.0.1]
[Atoms] (AU)
C   1   6     0.69100024066471     0.64692934207205    -3.48223131169301
H   2   1     2.68052439830868     1.13355088658700    -3.25784032593313
C   3   6    -0.36286361513219     0.85440132524594    -5.97030179418974
H   4   1    -2.35448549047279     0.36322488579172    -6.17995817793143
C   5   6     0.93697958957450     1.61209284601821    -8.05828437677121
H   6   1     0.85962833397368     3.59050820045091    -8.62470494839578
C   7   6     2.42635389771936    -0.06497183323565    -9.58324401854610
H   8   1     2.48676726707897    -2.04132781761705    -8.99156043119802
H   9   1     1.55630230933075    -1.92953025305990    12.99630010416247
C   10   6     0.75233899775814    -2.21270439606481    11.10705728102219
H   11   1    -0.43433408177274    -3.90944857546550    11.22216085340412
C   12   6     2.86362581178706    -2.63237380607947     9.17926416456045
H   13   1     4.39038949912609    -1.24955421540245     9.49899813497433
H   14   1     3.74629220191363    -4.48798724300892     9.47414880959024
C   15   6     2.02478325613682    -2.42177285709634     6.44560829588644
C   16   6     3.88048732735477    -3.58795445234514     4.61402886975252
C   17   6    -0.18412382258602    -1.30464291234259     5.76021113872346
C   18   6    -2.10044360464350    -0.26837831858460     7.71610340967100
C   19   6    -3.08956938670431     2.35282328359417     6.88693925039594
C   20   6    -4.37372924086464    -2.09766595989678     7.93610724222001
C   21   6    -0.83850430601230     0.06372213486173    10.33002307638377
H   22   1     0.38411922151109     1.74281358582432    10.27380136542181
H   23   1    -2.30980003007874     0.45460143924521    11.73986301809809
H   24   1     4.58527064644668    -5.38706904487420     5.36778158031719
H   25   1     5.54944938085014    -2.37631462192748     4.35398898413318
H   26   1     3.06633019150423    -3.94118377050688     2.75255466040884
H   27   1    -4.17727778763735     2.26573369139522     5.12914900961283
H   28   1    -1.52662344944051     3.68001877445626     6.59540397144508
H   29   1    -4.32916174397830     3.13643051467482     8.35225460090378
H   30   1    -5.32329548508442    -2.36691813602939     6.11583672749896
H   31   1    -5.77989366602257    -1.33896741843465     9.25748940450990
H   32   1    -3.79310905208926    -3.96389819310853     8.61386170102686
C   33   6    -1.01100794811226    -1.06331657314144     3.11929490449947
C   34   6     0.37686231036534    -0.33275864505552     1.09165013605873
H   35   1    -3.01671213906703    -1.40297922279997     2.77827895090944
C   36   6    -0.64382707979370    -0.11591880174385    -1.42063131251064
H   37   1     2.35569259782137     0.17174499283897     1.33641070251401
H   38   1    -2.63317482980319    -0.60229203511219    -1.66119700387645
C   39   6     3.74832505967432     0.60333842975764   -11.67668310140841
C   40   6     5.21001738076888    -1.24955999097241   -13.10400422335708
H   41   1     3.76814643119893     2.53960520723023   -12.36823673003836
O   42   8     6.43815552067501    -0.78092818090474   -14.99949494178040
H   43   1     5.13629360998863    -3.20740752771493   -12.32839043702936
[GTO]
1 0
 s    6 1.00
             3047.5249  0.0018347001629433
             457.36951    0.01403730124668
             103.94869   0.068842606114048
             29.210155    0.23218442062076
              9.286663    0.46794134155879
              3.163927    0.36231203217765
 s    3 1.00
             7.8682724   -0.11933240861517
             1.8812885   -0.16085421161283
             0.5442493     1.1434564825515
 s    1 1.00
             0.1687144                   1
 p    3 1.00
             7.8682724   0.068999095584993
             1.8812885    0.31642397975315
             0.5442493    0.74430825237435
 p    1 1.00
             0.1687144                   1
 d    1 1.00
                   0.8                   1

2 0
 s    3 1.00
             18.731137    0.03349459952309
             2.8253937    0.23472694665786
             0.6401217    0.81375731841339
 s    1 1.00
             0.1612778                   1

3 0
 s    6 1.00
             3047.5249  0.0018347001629433
             457.36951    0.01403730124668
             103.94869   0.068842606114048
             29.210155    0.23218442062076
              9.286663    0.46794134155879
              3.163927    0.36231203217765
 s    3 1.00
             7.8682724   -0.11933240861517
             1.8812885   -0.16085421161283
             0.5442493     1.1434564825515
 s    1 1.00
             0.1687144                   1
 p    3 1.00
             7.8682724   0.068999095584993
             1.8812885    0.31642397975315
             0.5442493    0.74430825237435
 p    1 1.00
             0.1687144                   1
 d    1 1.00
                   0.8                   1

4 0
 s    3 1.00
             18.731137    0.03349459952309
             2.8253937    0.23472694665786
             0.6401217    0.81375731841339
 s    1 1.00
             0.1612778                   1

5 0
 s    6 1.00
             3047.5249  0.0018347001629433
             457.36951    0.01403730124668
             103.94869   0.068842606114048
             29.210155    0.23218442062076
              9.286663    0.46794134155879
              3.163927    0.36231203217765
 s    3 1.00
             7.8682724   -0.11933240861517
             1.8812885   -0.16085421161283
             0.5442493     1.1434564825515
 s    1 1.00
             0.1687144                   1
 p    3 1.00
             7.8682724   0.068999095584993
             1.8812885    0.31642397975315
             0.5442493    0.74430825237435
 p    1 1.00
             0.1687144                   1
 d    1 1.00
                   0.8                   1

6 0
 s    3 1.00
             18.731137    0.03349459952309
             2.8253937    0.23472694665786
             0.6401217    0.81375731841339
 s    1 1.00
             0.1612778                   1

7 0
 s    6 1.00
             3047.5249  0.0018347001629433
             457.36951    0.01403730124668
             103.94869   0.068842606114048
             29.210155    0.23218442062076
              9.286663    0.46794134155879
              3.163927    0.36231203217765
 s    3 1.00
             7.8682724   -0.11933240861517
             1.8812885   -0.16085421161283
             0.5442493     1.1434564825515
 s    1 1.00
             0.1687144                   1
 p    3 1.00
             7.8682724   0.068999095584993
             1.8812885    0.31642397975315
             0.5442493    0.74430825237435
 p    1 1.00
             0.1687144                   1
 d    1 1.00
                   0.8                   1

8 0
 s    3 1.00
             18.731137    0.03349459952309
             2.8253937    0.23472694665786
             0.6401217    0.81375731841339
 s    1 1.00
             0.1612778                   1

9 0
 s    3 1.00
             18.731137    0.03349459952309
             2.8253937    0.23472694665786
             0.6401217    0.81375731841339
 s    1 1.00
             0.1612778                   1

10 0
 s    6 1.00
             3047.5249  0.0018347001629433
             457.36951    0.01403730124668
             103.94869   0.068842606114048
             29.210155    0.23218442062076
              9.286663    0.46794134155879
              3.163927    0.36231203217765
 s    3 1.00
             7.8682724   -0.11933240861517
             1.8812885   -0.16085421161283
             0.5442493     1.1434564825515
 s    1 1.00
             0.1687144                   1
 p    3 1.00
             7.8682724   0.068999095584993
             1.8812885    0.31642397975315
             0.5442493    0.74430825237435
 p    1 1.00
             0.1687144                   1
 d    1 1.00
                   0.8                   1

11 0
 s    3 1.00
             18.731137    0.03349459952309
             2.8253937    0.23472694665786
             0.6401217    0.81375731841339
 s    1 1.00
             0.1612778                   1

12 0
 s    6 1.00
             3047.5249  0.0018347001629433
             457.36951    0.01403730124668
             103.94869   0.068842606114048
             29.210155    0.23218442062076
              9.286663    0.46794134155879
              3.163927    0.36231203217765
 s    3 1.00
             7.8682724   -0.11933240861517
             1.8812885   -0.16085421161283
             0.5442493     1.1434564825515
 s    1 1.00
             0.1687144                   1
 p    3 1.00
             7.8682724   0.068999095584993
             1.8812885    0.31642397975315
             0.5442493    0.74430825237435
 p    1 1.00
             0.1687144                   1
 d    1 1.00
                   0.8                   1

13 0
 s    3 1.00
             18.731137    0.03349459952309
             2.8253937    0.23472694665786
             0.6401217    0.81375731841339
 s    1 1.00
             0.1612778                   1

14 0
 s    3 1.00
             18.731137    0.03349459952309
             2.8253937    0.23472694665786
             0.6401217    0.81375731841339
 s    1 1.00
             0.1612778                   1

15 0
 s    6 1.00
             3047.5249  0.0018347001629433
             457.36951    0.01403730124668
             103.94869   0.068842606114048
             29.210155    0.23218442062076
              9.286663    0.46794134155879
              3.163927    0.36231203217765
 s    3 1.00
             7.8682724   -0.11933240861517
             1.8812885   -0.16085421161283
             0.5442493     1.1434564825515
 s    1 1.00
             0.1687144                   1
 p    3 1.00
             7.8682724   0.068999095584993
             1.8812885    0.31642397975315
             0.5442493    0.74430825237435
 p    1 1.00
             0.1687144                   1
 d    1 1.00
                   0.8                   1

16 0
 s    6 1.00
             3047.5249  0.0018347001629433
             457.36951    0.01403730124668
             103.94869   0.068842606114048
             29.210155    0.23218442062076
              9.286663    0.46794134155879
              3.163927    0.36231203217765
 s    3 1.00
             7.8682724   -0.11933240861517
             1.8812885   -0.16085421161283
             0.5442493     1.1434564825515
 s    1 1.00
             0.1687144                   1
 p    3 1.00
             7.8682724   0.068999095584993
             1.8812885    0.31642397975315
             0.5442493    0.74430825237435
 p    1 1.00
             0.1687144                   1
 d    1 1.00
                   0.8                   1

17 0
 s    6 1.00
             3047.5249  0.0018347001629433
             457.36951    0.01403730124668
             103.94869   0.068842606114048
             29.210155    0.23218442062076
              9.286663    0.46794134155879
              3.163927    0.36231203217765
 s    3 1.00
             7.8682724   -0.11933240861517
             1.8812885   -0.16085421161283
             0.5442493     1.1434564825515
 s    1 1.00
             0.1687144                   1
 p    3 1.00
             7.8682724   0.068999095584993
             1.8812885    0.31642397975315
             0.5442493    0.74430825237435
 p    1 1.00
             0.1687144                   1
 d    1 1.00
                   0.8                   1

18 0
 s    6 1.00
             3047.5249  0.0018347001629433
             457.36951    0.01403730124668
             103.94869   0.068842606114048
             29.210155    0.23218442062076
              9.286663    0.46794134155879
              3.163927    0.36231203217765
 s    3 1.00
             7.8682724   -0.11933240861517
             1.8812885   -0.16085421161283
             0.5442493     1.1434564825515
 s    1 1.00
             0.1687144                   1
 p    3 1.00
             7.8682724   0.068999095584993
             1.8812885    0.31642397975315
             0.5442493    0.74430825237435
 p    1 1.00
             0.1687144                   1
 d    1 1.00
                   0.8                   1

19 0
 s    6 1.00
             3047.5249  0.0018347001629433
             457.36951    0.01403730124668
             103.94869   0.068842606114048
             29.210155    0.23218442062076
              9.286663    0.46794134155879
              3.163927    0.36231203217765
 s    3 1.00
             7.8682724   -0.11933240861517
             1.8812885   -0.16085421161283
             0.5442493     1.1434564825515
 s    1 1.00
             0.1687144                   1
 p    3 1.00
             7.8682724   0.068999095584993
             1.8812885    0.31642397975315
             0.5442493    0.74430825237435
 p    1 1.00
             0.1687144                   1
 d    1 1.00
                   0.8                   1

20 0
 s    6 1.00
             3047.5249  0.0018347001629433
             457.36951    0.01403730124668
             103.94869   0.068842606114048
             29.210155    0.23218442062076
              9.286663    0.46794134155879
              3.163927    0.36231203217765
 s    3 1.00
             7.8682724   -0.11933240861517
             1.8812885   -0.16085421161283
             0.5442493     1.1434564825515
 s    1 1.00
             0.1687144                   1
 p    3 1.00
             7.8682724   0.068999095584993
             1.8812885    0.31642397975315
             0.5442493    0.74430825237435
 p    1 1.00
             0.1687144                   1
 d    1 1.00
                   0.8                   1

21 0
 s    6 1.00
             3047.5249  0.0018347001629433
             457.36951    0.01403730124668
             103.94869   0.068842606114048
             29.210155    0.23218442062076
              9.286663    0.46794134155879
              3.163927    0.36231203217765
 s    3 1.00
             7.8682724   -0.11933240861517
             1.8812885   -0.16085421161283
             0.5442493     1.1434564825515
 s    1 1.00
             0.1687144                   1
 p    3 1.00
             7.8682724   0.068999095584993
             1.8812885    0.31642397975315
             0.5442493    0.74430825237435
 p    1 1.00
             0.1687144                   1
 d    1 1.00
                   0.8                   1

22 0
 s    3 1.00
             18.731137    0.03349459952309
             2.8253937    0.23472694665786
             0.6401217    0.81375731841339
 s    1 1.00
             0.1612778                   1

23 0
 s    3 1.00
             18.731137    0.03349459952309
             2.8253937    0.23472694665786
             0.6401217    0.81375731841339
 s    1 1.00
             0.1612778                   1

24 0
 s    3 1.00
             18.731137    0.03349459952309
             2.8253937    0.23472694665786
             0.6401217    0.81375731841339
 s    1 1.00
             0.1612778                   1

25 0
 s    3 1.00
             18.731137    0.03349459952309
             2.8253937    0.23472694665786
             0.6401217    0.81375731841339
 s    1 1.00
             0.1612778                   1

26 0
 s    3 1.00
             18.731137    0.03349459952309
             2.8253937    0.23472694665786
             0.6401217    0.81375731841339
 s    1 1.00
             0.1612778                   1

27 0
 s    3 1.00
             18.731137    0.03349459952309
             2.8253937    0.23472694665786
             0.6401217    0.81375731841339
 s    1 1.00
             0.1612778                   1

28 0
 s    3 1.00
             18.731137    0.03349459952309
             2.8253937    0.23472694665786
             0.6401217    0.81375731841339
 s    1 1.00
             0.1612778                   1

29 0
 s    3 1.00
             18.731137    0.03349459952309
             2.8253937    0.23472694665786
             0.6401217    0.81375731841339
 s    1 1.00
             0.1612778                   1

30 0
 s    3 1.00
             18.731137    0.03349459952309
             2.8253937    0.23472694665786
             0.6401217    0.81375731841339
 s    1 1.00
             0.1612778                   1

31 0
 s    3 1.00
             18.731137    0.03349459952309
             2.8253937    0.23472694665786
             0.6401217    0.81375731841339
 s    1 1.00
             0.1612778                   1

32 0
 s    3 1.00
             18.731137    0.03349459952309
             2.8253937    0.23472694665786
             0.6401217    0.81375731841339
 s    1 1.00
             0.1612778                   1

33 0
 s    6 1.00
             3047.5249  0.0018347001629433
             457.36951    0.01403730124668
             103.94869   0.068842606114048
             29.210155    0.23218442062076
              9.286663    0.46794134155879
              3.163927    0.36231203217765
 s    3 1.00
             7.8682724   -0.11933240861517
             1.8812885   -0.16085421161283
             0.5442493     1.1434564825515
 s    1 1.00
             0.1687144                   1
 p    3 1.00
             7.8682724   0.068999095584993
             1.8812885    0.31642397975315
             0.5442493    0.74430825237435
 p    1 1.00
             0.1687144                   1
 d    1 1.00
                   0.8                   1

34 0
 s    6 1.00
             3047.5249  0.0018347001629433
             457.36951    0.01403730124668
             103.94869   0.068842606114048
             29.210155    0.23218442062076
              9.286663    0.46794134155879
              3.163927    0.36231203217765
 s    3 1.00
             7.8682724   -0.11933240861517
             1.8812885   -0.16085421161283
             0.5442493     1.1434564825515
 s    1 1.00
             0.1687144                   1
 p    3 1.00
             7.8682724   0.068999095584993
             1.8812885    0.31642397975315
             0.5442493    0.74430825237435
 p    1 1.00
             0.1687144                   1
 d    1 1.00
                   0.8                   1

35 0
 s    3 1.00
             18.731137    0.03349459952309
             2.8253937    0.23472694665786
             0.6401217    0.81375731841339
 s    1 1.00
             0.1612778                   1

36 0
 s    6 1.00
             3047.5249  0.0018347001629433
             457.36951    0.01403730124668
             103.94869   0.068842606114048
             29.210155    0.23218442062076
              9.286663    0.46794134155879
              3.163927    0.36231203217765
 s    3 1.00
             7.8682724   -0.11933240861517
             1.8812885   -0.16085421161283
             0.5442493     1.1434564825515
 s    1 1.00
             0.1687144                   1
 p    3 1.00
             7.8682724   0.068999095584993
             1.8812885    0.31642397975315
             0.5442493    0.74430825237435
 p    1 1.00
             0.1687144                   1
 d    1 1.00
                   0.8                   1

37 0
 s    3 1.00
             18.731137    0.03349459952309
             2.8253937    0.23472694665786
             0.6401217    0.81375731841339
 s    1 1.00
             0.1612778                   1

38 0
 s    3 1.00
             18.731137    0.03349459952309
             2.8253937    0.23472694665786
             0.6401217    0.81375731841339
 s    1 1.00
             0.1612778                   1

39 0
 s    6 1.00
             3047.5249  0.0018347001629433
             457.36951    0.01403730124668
             103.94869   0.068842606114048
             29.210155    0.23218442062076
              9.286663    0.46794134155879
              3.163927    0.36231203217765
 s    3 1.00
             7.8682724   -0.11933240861517
             1.8812885   -0.16085421161283
             0.5442493     1.1434564825515
 s    1 1.00
             0.1687144                   1
 p    3 1.00
             7.8682724   0.068999095584993
             1.8812885    0.31642397975315
             0.5442493    0.74430825237435
 p    1 1.00
             0.1687144                   1
 d    1 1.00
                   0.8                   1

40 0
 s    6 1.00
             3047.5249  0.0018347001629433
             457.36951    0.01403730124668
             103.94869   0.068842606114048
             29.210155    0.23218442062076
              9.286663    0.46794134155879
              3.163927    0.36231203217765
 s    3 1.00
             7.8682724   -0.11933240861517
             1.8812885   -0.16085421161283
             0.5442493     1.1434564825515
 s    1 1.00
             0.1687144                   1
 p    3 1.00
             7.8682724   0.068999095584993
             1.8812885    0.31642397975315
             0.5442493    0.74430825237435
 p    1 1.00
             0.1687144                   1
 d    1 1.00
                   0.8                   1

41 0
 s    3 1.00
             18.731137    0.03349459952309
             2.8253937    0.23472694665786
             0.6401217    0.81375731841339
 s    1 1.00
             0.1612778                   1

42 0
 s    6 1.00
             5484.6717   0.001831099805527
             825.23495   0.013950098518422
             188.04696    0.06844509273075
               52.9645    0.23271427528445
              16.89757    0.47019295006289
             5.7996353    0.35852086192309
 s    3 1.00
             15.539616   -0.11077750382508
             3.5999336   -0.14802630511126
             1.0137618     1.1307670390447
 s    1 1.00
             0.2700058                   1
 p    3 1.00
             15.539616   0.070874299543311
             3.5999336    0.33975279781076
             1.0137618    0.72715859531445
 p    1 1.00
             0.2700058                   1
 d    1 1.00
                   0.8                   1

43 0
 s    3 1.00
             18.731137    0.03349459952309
             2.8253937    0.23472694665786
             0.6401217    0.81375731841339
 s    1 1.00
             0.1612778                   1

[5d]
[7f]
[9g]

[MO]
 Sym= A
 Ene=               0
 Spin= Alpha
 Occup=    1.00000
   1    -2.2383000643185e-06
   2    -1.206368753272e-05
   3    -4.245437377216e-05
   4    -5.1967982571278e-07
   5    -1.7347405356557e-05
   6    9.3928502524252e-06
   7    4.9116374444129e-05
   8    0.0001189057092662
   9    -0.00035707583778458
  10    5.6056134442716e-08
  11    9.6416590677524e-06
  12    1.0431375118887e-06
  13    1.3399306572599e-05
  14    -7.6166467273076e-06
  15    -1.3876619876069e-05
  16    6.2268058339557e-06
  17    4.5942523461554e-06
  18    0.00016042763934815
  19    0.00045301791652923
  20    6.1351134370512e-05
  21    5.1486304333997e-07
  22    -7.6007027301272e-05
  23    0.00020750375387868
  24    -0.00011525497114876
  25    -0.00056025920300729
  26    2.0869563428584e-05
  27    -2.1591099710295e-05
  28    1.2226575571911e-05
  29    3.8390328998991e-05
  30    3.7975763944896e-06
  31    -1.7658652440705e-05
  32    2.4078145080083e-05
  33    7.6625244496621e-05
  34    0.0002846192704569
  35    -0.0043553034161766
  36    -0.00015695531773197
  37    7.1737078619347e-05
  38    0.00017808907647517
  39    -0.00072762465619676
  40    0.0018730720092783
  41    0.00037576822465948
  42    -1.0915842643169e-05
  43    0.00010842667029157
  44    -5.3266511012264e-05
  45    1.6160967100943e-05
  46    6.8215002253342e-05
  47    -1.122687088915e-05
  48    -0.00025220763026805
  49    -5.3776944711096e-05
  50    0.00030778356680062
  51    0.0036073913176024
  52    0.00036108108764258
  53    -0.00032616199201812
  54    -0.00037815998855541
  55    -0.001952187770522
  56    0.0024154100840346
  57    0.0019369080035938
  58    -4.1155564944407e-05
  59    2.2216473251399e-05
  60    0.0001759063213006
  61    3.3569791320617e-05
  62    -0.00011203422078686
  63    0.00039427040054669
  64    0.00013643513086115
  65    -2.2087222354938e-07
  66    -5.0853211890947e-07
  67    -6.6871755299037e-08
  68    -4.7235927923024e-07
  69    2.7732464775537e-06
  70    2.9962044351759e-07
  71    -3.8701680864218e-07
  72    9.5780883911998e-08
  73    3.810234274898e-07
  74    1.2565000554247e-06
  75    1.9161872326365e-07
  76    -5.8035644205566e-08
  77    -1.3137593146389e-07
  78    4.2050435422575e-08
  79    5.6975471865979e-08
  80    -1.1335056440185e-07
  81    9.3800227038287e-08
  82    -3.3197620708773e-08
  83    -3.6637253918924e-08
  84    -2.1024598675731e-07
  85    -1.3230685214513e-05
  86    5.9227887219969e-07
  87    -7.4652058258902e-09
  88    7.2234967145748e-07
  89    3.1998795448604e-06
  90    -4.2514892327427e-06
  91    3.1059408260999e-06
  92    1.9699196303864e-07
  93    -3.1979795956221e-07
  94    2.8786252495485e-07
  95    4.0818919479026e-08
  96    -2.0883968371585e-07
  97    3.3581227379282e-07
  98    -1.2159126625041e-07
  99    1.9862518565819e-07
 100    -5.5042440170471e-07
 101    8.3093974319531e-08
 102    -9.2706942365156e-07
 103    9.8172703644069e-06
 104    1.3034268162208e-06
 105    3.2576838971799e-07
 106    -6.0939318141422e-07
 107    -1.8074617065482e-05
 108    1.9295629190904e-05
 109    3.2371729211932e-05
 110    -5.8971166618235e-07
 111    -5.5506625906883e-07
 112    2.5833972471686e-07
 113    2.9855411144247e-07
 114    -4.8363321443006e-07
 115    -4.9817589615684e-07
 116    -4.4154107554747e-06
 117    3.6667540789748e-05
 118    -7.0975869239709e-07
 119    9.6450047031524e-07
 120    7.0709378024479e-07
 121    -9.0642962643621e-06
 122    1.886191899023e-06
 123    3.3923218627058e-06
 124    -9.1646655989302e-08
 125    -2.1941947585473e-07
 126    -4.5335172898604e-08
 127    1.0649849645787e-07
 128    -4.3000498994091e-07
 129    -9.3025164782638e-07
 130    -8.8146935792983e-06
 131    5.4461408763647e-05
 132    -3.6300774859526e-07
 133    -1.0311984050762e-06
 134    3.5558458837201e-06
 135    -2.2791931635889e-05
 136    -2.3286650303438e-06
 137    -8.4703075532287e-05
 138    2.588584669167e-06
 139    1.5980977328982e-06
 140    3.8690399552428e-07
 141    4.8715893500535e-07
 142    1.1481788058842e-07
 143    -6.0675202389105e-07
 144    -4.0774859317623e-06
 145    2.4054220522175e-05
 146    5.4199294161583e-07
 147    4.3389773017145e-07
 148    -1.0151946193457e-07
 149    1.3915802653426e-05
 150    -5.5737377591497e-06
 151    -4.0450267216238e-06
 152    -1.0049815233561e-06
 153    -3.9455482711399e-07
 154    -9.3672287730289e-08
 155    7.0539413785588e-07
 156    -8.420431279842e-07
 157    -2.8996539039163e-09
 158    1.1568681641341e-06
 159    3.8201064578049e-07
 160    7.0851134297096e-07
 161    -2.6192493569989e-07
 162    -3.3833172540143e-07
 163    -6.9754329445071e-06
 164    6.9277589843517e-07
 165    8.1985775113401e-07
 166    4.6689461421459e-07
 167    -1.842162456809e-07
 168    5.6677222912968e-09
 169    -1.1343480575467e-07
 170    3.2639258464366e-07
 171    6.6374244349477e-08
 172    -5.7232228161666e-07
 173    -1.0445444213751e-06
 174    -8.0814054666048e-07
 175    -2.8954829783752e-07
 176    7.9546227508841e-07
 177    -3.6904472619454e-07
 178    1.6170420167916e-06
 179    -1.727334725822e-06
 180    1.2633681856142e-07
 181    1.6801933577568e-07
 182    5.5541663140242e-08
 183    -3.7357262103736e-07
 184    1.7022629826185e-07
 185    -2.6250955694091e-07
 186    -3.0301641219558e-06
 187    1.3427787791544e-06
 188    -1.3101884149627e-07
 189    1.6446952378901e-07
 190    1.3415163644151e-06
 191    2.4914541063437e-06
 192    5.4507839950514e-07
 193    -4.9513339264788e-06
 194    2.8598491241993e-07
 195    -6.8795387736399e-08
 196    2.1358066599365e-07
 197    1.0589238417473e-07
 198    -1.1334551602886e-07
 199    -7.5458373014038e-07
 200    -1.2838861215056e-06
 201    1.685964630591e-07
 202    3.673567041217e-06
 203    -1.4748321231067e-06
 204    -1.1172590193457e-06
 205    -5.7937829805316e-07
 206    -2.9295082218948e-06
 207    1.0717920276567e-06
 208    -9.9695601882489e-06
 209    1.2421544045262e-06
 210    -4.5557053681111e-06
 211    5.7010057783331e-07
 212    2.7820703752633e-06
 213    -4.2104578510232e-07
 214    -2.7592771596944e-06
 215    -5.3267620762227e-07
 216    3.9160595921522e-07
 217    3.8834991603882e-07
 218    1.149883566428e-06
 219    2.5169047957767e-07
 220    9.6625579687412e-07
 221    -7.309159948591e-07
 222    -7.5963885718345e-06
 223    -1.3593351718569e-05
 224    1.436977284904e-06
 225    -4.173864765923e-06
 226    3.051908039173e-06
 227    8.7341777802332e-06
 228    2.3867177758495e-05
 229    -9.7566479925989e-05
 230    -1.2203724870008e-06
 231    -4.1425359499846e-06
 232    -2.0053936129053e-06
 233    1.7621021050867e-06
 234    2.7661690989004e-06
 235    -7.6832894104381e-07
 236    -1.0519735044577e-05
 237    1.9333455305425e-05
 238    -1.8752588470804e-06
 239    6.7671928974645e-06
 240    5.6747247815584e-06
 241    -2.3058119897958e-05
 242    -3.3851239387485e-06
 243    -8.0162854820549e-05
 244    1.0248605455134e-06
 245    6.6375460012748e-06
 246    1.1888424369377e-06
 247    2.5767169406289e-06
 248    9.8296607298134e-07
 249    -4.6721363934755e-06
 250    1.025969715369e-05
 251    -4.4339083155885e-06
 252    -3.2289796212538e-05
 253    0.00027546704665788
 254    9.1344110828716e-07
 255    -4.0897859344253e-06
 256    7.3140142431145e-06
 257    0.00011218229063038
 258    9.4876605795512e-05
 259    -0.00024573887114466
 260    3.0022784126317e-06
 261    -1.2632792521811e-05
 262    -4.3271159138299e-06
 263    8.3625958385231e-06
 264    4.4634714072235e-06
 265    -3.9467392316124e-06
 266    2.7476546324547e-05
 267    -8.493793972291e-06
 268    3.3778562613983e-05
 269    -6.8482011679334e-05
 270    2.440356350937e-05
 271    0.0031068896783141
 272    -3.9447145110825e-05
 273    -0.00022964368495257
 274    0.00018995696192817
 275    0.0021171531688053
 276    0.00059069408978508
 277    -0.0031487923749008
 278    0.00018439878902091
 279    -0.00022937075576517
 280    0.00015550302269544