[Molden Format]
made by pyscf v[2.0.1]
[Atoms] (AU)
C   1   6     0.69100024066471     0.64692934207205    -3.48223131169301
H   2   1     2.68052439830868     1.13355088658700    -3.25784032593313
C   3   6    -0.36286361513219     0.85440132524594    -5.97030179418974
H   4   1    -2.35448549047279     0.36322488579172    -6.17995817793143
C   5   6     0.93697958957450     1.61209284601821    -8.05828437677121
H   6   1     1.01317567978386     3.61775130597871    -8.51923024455703
C   7   6     2.23318006711868    -0.09916996805052    -9.71591146992396
H   8   1     2.14101227267567    -2.10272353634710    -9.22908458474476
H   9   1     1.55630230933075    -1.92953025305990    12.99630010416247
C   10   6     0.75233899775814    -2.21270439606481    11.10705728102219
H   11   1    -0.43433408177274    -3.90944857546550    11.22216085340412
C   12   6     2.86362581178706    -2.63237380607947     9.17926416456045
H   13   1     4.39038949912609    -1.24955421540245     9.49899813497433
H   14   1     3.74629220191363    -4.48798724300892     9.47414880959024
C   15   6     2.02478325613682    -2.42177285709634     6.44560829588644
C   16   6     3.88048732735477    -3.58795445234514     4.61402886975252
C   17   6    -0.18412382258602    -1.30464291234259     5.76021113872346
C   18   6    -2.10044360464350    -0.26837831858460     7.71610340967100
C   19   6    -3.08956938670431     2.35282328359417     6.88693925039594
C   20   6    -4.37372924086464    -2.09766595989678     7.93610724222001
C   21   6    -0.83850430601230     0.06372213486173    10.33002307638377
H   22   1     0.38411922151109     1.74281358582432    10.27380136542181
H   23   1    -2.30980003007874     0.45460143924521    11.73986301809809
H   24   1     4.58527064644668    -5.38706904487420     5.36778158031719
H   25   1     5.54944938085014    -2.37631462192748     4.35398898413318
H   26   1     3.06633019150423    -3.94118377050688     2.75255466040884
H   27   1    -4.17727778763735     2.26573369139522     5.12914900961283
H   28   1    -1.52662344944051     3.68001877445626     6.59540397144508
H   29   1    -4.32916174397830     3.13643051467482     8.35225460090378
H   30   1    -5.32329548508442    -2.36691813602939     6.11583672749896
H   31   1    -5.77989366602257    -1.33896741843465     9.25748940450990
H   32   1    -3.79310905208926    -3.96389819310853     8.61386170102686
C   33   6    -1.01100794811226    -1.06331657314144     3.11929490449947
C   34   6     0.37686231036534    -0.33275864505552     1.09165013605873
H   35   1    -3.01671213906703    -1.40297922279997     2.77827895090944
C   36   6    -0.64382707979370    -0.11591880174385    -1.42063131251064
H   37   1     2.35569259782137     0.17174499283897     1.33641070251401
H   38   1    -2.63317482980319    -0.60229203511219    -1.66119700387645
C   39   6     3.54725246111133     0.56802416581284   -11.81467283923754
C   40   6     4.80361465317200    -1.32115012773234   -13.38298311351627
H   41   1     3.71304591439982     2.53035338251259   -12.40589607739641
O   42   8     6.01278787963721    -0.85546385399510   -15.29134904549642
H   43   1     4.58468921437884    -3.30497271823068   -12.70718839688766
[GTO]
1 0
 s    6 1.00
             3047.5249  0.0018347001629433
             457.36951    0.01403730124668
             103.94869   0.068842606114048
             29.210155    0.23218442062076
              9.286663    0.46794134155879
              3.163927    0.36231203217765
 s    3 1.00
             7.8682724   -0.11933240861517
             1.8812885   -0.16085421161283
             0.5442493     1.1434564825515
 s    1 1.00
             0.1687144                   1
 p    3 1.00
             7.8682724   0.068999095584993
             1.8812885    0.31642397975315
             0.5442493    0.74430825237435
 p    1 1.00
             0.1687144                   1
 d    1 1.00
                   0.8                   1

2 0
 s    3 1.00
             18.731137    0.03349459952309
             2.8253937    0.23472694665786
             0.6401217    0.81375731841339
 s    1 1.00
             0.1612778                   1

3 0
 s    6 1.00
             3047.5249  0.0018347001629433
             457.36951    0.01403730124668
             103.94869   0.068842606114048
             29.210155    0.23218442062076
              9.286663    0.46794134155879
              3.163927    0.36231203217765
 s    3 1.00
             7.8682724   -0.11933240861517
             1.8812885   -0.16085421161283
             0.5442493     1.1434564825515
 s    1 1.00
             0.1687144                   1
 p    3 1.00
             7.8682724   0.068999095584993
             1.8812885    0.31642397975315
             0.5442493    0.74430825237435
 p    1 1.00
             0.1687144                   1
 d    1 1.00
                   0.8                   1

4 0
 s    3 1.00
             18.731137    0.03349459952309
             2.8253937    0.23472694665786
             0.6401217    0.81375731841339
 s    1 1.00
             0.1612778                   1

5 0
 s    6 1.00
             3047.5249  0.0018347001629433
             457.36951    0.01403730124668
             103.94869   0.068842606114048
             29.210155    0.23218442062076
              9.286663    0.46794134155879
              3.163927    0.36231203217765
 s    3 1.00
             7.8682724   -0.11933240861517
             1.8812885   -0.16085421161283
             0.5442493     1.1434564825515
 s    1 1.00
             0.1687144                   1
 p    3 1.00
             7.8682724   0.068999095584993
             1.8812885    0.31642397975315
             0.5442493    0.74430825237435
 p    1 1.00
             0.1687144                   1
 d    1 1.00
                   0.8                   1

6 0
 s    3 1.00
             18.731137    0.03349459952309
             2.8253937    0.23472694665786
             0.6401217    0.81375731841339
 s    1 1.00
             0.1612778                   1

7 0
 s    6 1.00
             3047.5249  0.0018347001629433
             457.36951    0.01403730124668
             103.94869   0.068842606114048
             29.210155    0.23218442062076
              9.286663    0.46794134155879
              3.163927    0.36231203217765
 s    3 1.00
             7.8682724   -0.11933240861517
             1.8812885   -0.16085421161283
             0.5442493     1.1434564825515
 s    1 1.00
             0.1687144                   1
 p    3 1.00
             7.8682724   0.068999095584993
             1.8812885    0.31642397975315
             0.5442493    0.74430825237435
 p    1 1.00
             0.1687144                   1
 d    1 1.00
                   0.8                   1

8 0
 s    3 1.00
             18.731137    0.03349459952309
             2.8253937    0.23472694665786
             0.6401217    0.81375731841339
 s    1 1.00
             0.1612778                   1

9 0
 s    3 1.00
             18.731137    0.03349459952309
             2.8253937    0.23472694665786
             0.6401217    0.81375731841339
 s    1 1.00
             0.1612778                   1

10 0
 s    6 1.00
             3047.5249  0.0018347001629433
             457.36951    0.01403730124668
             103.94869   0.068842606114048
             29.210155    0.23218442062076
              9.286663    0.46794134155879
              3.163927    0.36231203217765
 s    3 1.00
             7.8682724   -0.11933240861517
             1.8812885   -0.16085421161283
             0.5442493     1.1434564825515
 s    1 1.00
             0.1687144                   1
 p    3 1.00
             7.8682724   0.068999095584993
             1.8812885    0.31642397975315
             0.5442493    0.74430825237435
 p    1 1.00
             0.1687144                   1
 d    1 1.00
                   0.8                   1

11 0
 s    3 1.00
             18.731137    0.03349459952309
             2.8253937    0.23472694665786
             0.6401217    0.81375731841339
 s    1 1.00
             0.1612778                   1

12 0
 s    6 1.00
             3047.5249  0.0018347001629433
             457.36951    0.01403730124668
             103.94869   0.068842606114048
             29.210155    0.23218442062076
              9.286663    0.46794134155879
              3.163927    0.36231203217765
 s    3 1.00
             7.8682724   -0.11933240861517
             1.8812885   -0.16085421161283
             0.5442493     1.1434564825515
 s    1 1.00
             0.1687144                   1
 p    3 1.00
             7.8682724   0.068999095584993
             1.8812885    0.31642397975315
             0.5442493    0.74430825237435
 p    1 1.00
             0.1687144                   1
 d    1 1.00
                   0.8                   1

13 0
 s    3 1.00
             18.731137    0.03349459952309
             2.8253937    0.23472694665786
             0.6401217    0.81375731841339
 s    1 1.00
             0.1612778                   1

14 0
 s    3 1.00
             18.731137    0.03349459952309
             2.8253937    0.23472694665786
             0.6401217    0.81375731841339
 s    1 1.00
             0.1612778                   1

15 0
 s    6 1.00
             3047.5249  0.0018347001629433
             457.36951    0.01403730124668
             103.94869   0.068842606114048
             29.210155    0.23218442062076
              9.286663    0.46794134155879
              3.163927    0.36231203217765
 s    3 1.00
             7.8682724   -0.11933240861517
             1.8812885   -0.16085421161283
             0.5442493     1.1434564825515
 s    1 1.00
             0.1687144                   1
 p    3 1.00
             7.8682724   0.068999095584993
             1.8812885    0.31642397975315
             0.5442493    0.74430825237435
 p    1 1.00
             0.1687144                   1
 d    1 1.00
                   0.8                   1

16 0
 s    6 1.00
             3047.5249  0.0018347001629433
             457.36951    0.01403730124668
             103.94869   0.068842606114048
             29.210155    0.23218442062076
              9.286663    0.46794134155879
              3.163927    0.36231203217765
 s    3 1.00
             7.8682724   -0.11933240861517
             1.8812885   -0.16085421161283
             0.5442493     1.1434564825515
 s    1 1.00
             0.1687144                   1
 p    3 1.00
             7.8682724   0.068999095584993
             1.8812885    0.31642397975315
             0.5442493    0.74430825237435
 p    1 1.00
             0.1687144                   1
 d    1 1.00
                   0.8                   1

17 0
 s    6 1.00
             3047.5249  0.0018347001629433
             457.36951    0.01403730124668
             103.94869   0.068842606114048
             29.210155    0.23218442062076
              9.286663    0.46794134155879
              3.163927    0.36231203217765
 s    3 1.00
             7.8682724   -0.11933240861517
             1.8812885   -0.16085421161283
             0.5442493     1.1434564825515
 s    1 1.00
             0.1687144                   1
 p    3 1.00
             7.8682724   0.068999095584993
             1.8812885    0.31642397975315
             0.5442493    0.74430825237435
 p    1 1.00
             0.1687144                   1
 d    1 1.00
                   0.8                   1

18 0
 s    6 1.00
             3047.5249  0.0018347001629433
             457.36951    0.01403730124668
             103.94869   0.068842606114048
             29.210155    0.23218442062076
              9.286663    0.46794134155879
              3.163927    0.36231203217765
 s    3 1.00
             7.8682724   -0.11933240861517
             1.8812885   -0.16085421161283
             0.5442493     1.1434564825515
 s    1 1.00
             0.1687144                   1
 p    3 1.00
             7.8682724   0.068999095584993
             1.8812885    0.31642397975315
             0.5442493    0.74430825237435
 p    1 1.00
             0.1687144                   1
 d    1 1.00
                   0.8                   1

19 0
 s    6 1.00
             3047.5249  0.0018347001629433
             457.36951    0.01403730124668
             103.94869   0.068842606114048
             29.210155    0.23218442062076
              9.286663    0.46794134155879
              3.163927    0.36231203217765
 s    3 1.00
             7.8682724   -0.11933240861517
             1.8812885   -0.16085421161283
             0.5442493     1.1434564825515
 s    1 1.00
             0.1687144                   1
 p    3 1.00
             7.8682724   0.068999095584993
             1.8812885    0.31642397975315
             0.5442493    0.74430825237435
 p    1 1.00
             0.1687144                   1
 d    1 1.00
                   0.8                   1

20 0
 s    6 1.00
             3047.5249  0.0018347001629433
             457.36951    0.01403730124668
             103.94869   0.068842606114048
             29.210155    0.23218442062076
              9.286663    0.46794134155879
              3.163927    0.36231203217765
 s    3 1.00
             7.8682724   -0.11933240861517
             1.8812885   -0.16085421161283
             0.5442493     1.1434564825515
 s    1 1.00
             0.1687144                   1
 p    3 1.00
             7.8682724   0.068999095584993
             1.8812885    0.31642397975315
             0.5442493    0.74430825237435
 p    1 1.00
             0.1687144                   1
 d    1 1.00
                   0.8                   1

21 0
 s    6 1.00
             3047.5249  0.0018347001629433
             457.36951    0.01403730124668
             103.94869   0.068842606114048
             29.210155    0.23218442062076
              9.286663    0.46794134155879
              3.163927    0.36231203217765
 s    3 1.00
             7.8682724   -0.11933240861517
             1.8812885   -0.16085421161283
             0.5442493     1.1434564825515
 s    1 1.00
             0.1687144                   1
 p    3 1.00
             7.8682724   0.068999095584993
             1.8812885    0.31642397975315
             0.5442493    0.74430825237435
 p    1 1.00
             0.1687144                   1
 d    1 1.00
                   0.8                   1

22 0
 s    3 1.00
             18.731137    0.03349459952309
             2.8253937    0.23472694665786
             0.6401217    0.81375731841339
 s    1 1.00
             0.1612778                   1

23 0
 s    3 1.00
             18.731137    0.03349459952309
             2.8253937    0.23472694665786
             0.6401217    0.81375731841339
 s    1 1.00
             0.1612778                   1

24 0
 s    3 1.00
             18.731137    0.03349459952309
             2.8253937    0.23472694665786
             0.6401217    0.81375731841339
 s    1 1.00
             0.1612778                   1

25 0
 s    3 1.00
             18.731137    0.03349459952309
             2.8253937    0.23472694665786
             0.6401217    0.81375731841339
 s    1 1.00
             0.1612778                   1

26 0
 s    3 1.00
             18.731137    0.03349459952309
             2.8253937    0.23472694665786
             0.6401217    0.81375731841339
 s    1 1.00
             0.1612778                   1

27 0
 s    3 1.00
             18.731137    0.03349459952309
             2.8253937    0.23472694665786
             0.6401217    0.81375731841339
 s    1 1.00
             0.1612778                   1

28 0
 s    3 1.00
             18.731137    0.03349459952309
             2.8253937    0.23472694665786
             0.6401217    0.81375731841339
 s    1 1.00
             0.1612778                   1

29 0
 s    3 1.00
             18.731137    0.03349459952309
             2.8253937    0.23472694665786
             0.6401217    0.81375731841339
 s    1 1.00
             0.1612778                   1

30 0
 s    3 1.00
             18.731137    0.03349459952309
             2.8253937    0.23472694665786
             0.6401217    0.81375731841339
 s    1 1.00
             0.1612778                   1

31 0
 s    3 1.00
             18.731137    0.03349459952309
             2.8253937    0.23472694665786
             0.6401217    0.81375731841339
 s    1 1.00
             0.1612778                   1

32 0
 s    3 1.00
             18.731137    0.03349459952309
             2.8253937    0.23472694665786
             0.6401217    0.81375731841339
 s    1 1.00
             0.1612778                   1

33 0
 s    6 1.00
             3047.5249  0.0018347001629433
             457.36951    0.01403730124668
             103.94869   0.068842606114048
             29.210155    0.23218442062076
              9.286663    0.46794134155879
              3.163927    0.36231203217765
 s    3 1.00
             7.8682724   -0.11933240861517
             1.8812885   -0.16085421161283
             0.5442493     1.1434564825515
 s    1 1.00
             0.1687144                   1
 p    3 1.00
             7.8682724   0.068999095584993
             1.8812885    0.31642397975315
             0.5442493    0.74430825237435
 p    1 1.00
             0.1687144                   1
 d    1 1.00
                   0.8                   1

34 0
 s    6 1.00
             3047.5249  0.0018347001629433
             457.36951    0.01403730124668
             103.94869   0.068842606114048
             29.210155    0.23218442062076
              9.286663    0.46794134155879
              3.163927    0.36231203217765
 s    3 1.00
             7.8682724   -0.11933240861517
             1.8812885   -0.16085421161283
             0.5442493     1.1434564825515
 s    1 1.00
             0.1687144                   1
 p    3 1.00
             7.8682724   0.068999095584993
             1.8812885    0.31642397975315
             0.5442493    0.74430825237435
 p    1 1.00
             0.1687144                   1
 d    1 1.00
                   0.8                   1

35 0
 s    3 1.00
             18.731137    0.03349459952309
             2.8253937    0.23472694665786
             0.6401217    0.81375731841339
 s    1 1.00
             0.1612778                   1

36 0
 s    6 1.00
             3047.5249  0.0018347001629433
             457.36951    0.01403730124668
             103.94869   0.068842606114048
             29.210155    0.23218442062076
              9.286663    0.46794134155879
              3.163927    0.36231203217765
 s    3 1.00
             7.8682724   -0.11933240861517
             1.8812885   -0.16085421161283
             0.5442493     1.1434564825515
 s    1 1.00
             0.1687144                   1
 p    3 1.00
             7.8682724   0.068999095584993
             1.8812885    0.31642397975315
             0.5442493    0.74430825237435
 p    1 1.00
             0.1687144                   1
 d    1 1.00
                   0.8                   1

37 0
 s    3 1.00
             18.731137    0.03349459952309
             2.8253937    0.23472694665786
             0.6401217    0.81375731841339
 s    1 1.00
             0.1612778                   1

38 0
 s    3 1.00
             18.731137    0.03349459952309
             2.8253937    0.23472694665786
             0.6401217    0.81375731841339
 s    1 1.00
             0.1612778                   1

39 0
 s    6 1.00
             3047.5249  0.0018347001629433
             457.36951    0.01403730124668
             103.94869   0.068842606114048
             29.210155    0.23218442062076
              9.286663    0.46794134155879
              3.163927    0.36231203217765
 s    3 1.00
             7.8682724   -0.11933240861517
             1.8812885   -0.16085421161283
             0.5442493     1.1434564825515
 s    1 1.00
             0.1687144                   1
 p    3 1.00
             7.8682724   0.068999095584993
             1.8812885    0.31642397975315
             0.5442493    0.74430825237435
 p    1 1.00
             0.1687144                   1
 d    1 1.00
                   0.8                   1

40 0
 s    6 1.00
             3047.5249  0.0018347001629433
             457.36951    0.01403730124668
             103.94869   0.068842606114048
             29.210155    0.23218442062076
              9.286663    0.46794134155879
              3.163927    0.36231203217765
 s    3 1.00
             7.8682724   -0.11933240861517
             1.8812885   -0.16085421161283
             0.5442493     1.1434564825515
 s    1 1.00
             0.1687144                   1
 p    3 1.00
             7.8682724   0.068999095584993
             1.8812885    0.31642397975315
             0.5442493    0.74430825237435
 p    1 1.00
             0.1687144                   1
 d    1 1.00
                   0.8                   1

41 0
 s    3 1.00
             18.731137    0.03349459952309
             2.8253937    0.23472694665786
             0.6401217    0.81375731841339
 s    1 1.00
             0.1612778                   1

42 0
 s    6 1.00
             5484.6717   0.001831099805527
             825.23495   0.013950098518422
             188.04696    0.06844509273075
               52.9645    0.23271427528445
              16.89757    0.47019295006289
             5.7996353    0.35852086192309
 s    3 1.00
             15.539616   -0.11077750382508
             3.5999336   -0.14802630511126
             1.0137618     1.1307670390447
 s    1 1.00
             0.2700058                   1
 p    3 1.00
             15.539616   0.070874299543311
             3.5999336    0.33975279781076
             1.0137618    0.72715859531445
 p    1 1.00
             0.2700058                   1
 d    1 1.00
                   0.8                   1

43 0
 s    3 1.00
             18.731137    0.03349459952309
             2.8253937    0.23472694665786
             0.6401217    0.81375731841339
 s    1 1.00
             0.1612778                   1

[5d]
[7f]
[9g]

[MO]
 Sym= A
 Ene=               0
 Spin= Alpha
 Occup=    1.00000
   1    -5.0109793288521e-07
   2    -2.0538913615448e-05
   3    -9.5717914553552e-06
   4    -6.1497359066002e-07
   5    -1.4513337256556e-05
   6    2.0304678880244e-05
   7    3.6593931929075e-05
   8    9.3514687229908e-05
   9    -0.00037016917479888
  10    6.7964579549975e-07
  11    1.0399617710359e-05
  12    1.9787757880531e-06
  13    1.3492735571479e-05
  14    -7.4738324110413e-06
  15    -1.4941496864338e-05
  16    1.4707410965925e-05
  17    5.1317959582237e-06
  18    0.00016380123651134
  19    0.00042670791345642
  20    5.9191463799759e-05
  21    -2.2540868927854e-06
  22    -7.8157359982213e-05
  23    0.00017316745473503
  24    -0.00010333151950079
  25    -0.00059868465728314
  26    1.8842228264919e-05
  27    -2.2009664057206e-05
  28    9.3788416345828e-06
  29    4.0495713517982e-05
  30    -4.5026119299891e-07
  31    -9.8651118243937e-06
  32    3.3158985522456e-05
  33    7.6600413298541e-05
  34    0.0002843791357752
  35    -0.0043580926121916
  36    -0.00011698743027839
  37    7.9019184119053e-05
  38    0.00020566536183345
  39    -0.00051597730407401
  40    0.0019016116234317
  41    0.00051295633917558
  42    -2.0672292682106e-05
  43    0.00010569435055051
  44    -6.4064044962766e-05
  45    2.6377852341996e-05
  46    5.6147259598178e-05
  47    -1.0331255657253e-05
  48    -0.00024944688182501
  49    -5.3666354343995e-05
  50    0.0003077349635514
  51    0.0035986310502677
  52    0.00030257262965706
  53    -0.00033647013551742
  54    -0.00041916132410905
  55    -0.001692825324519
  56    0.0024579207898671
  57    0.0021145205206743
  58    -2.3810333011742e-05
  59    3.026675142715e-05
  60    0.0001790677663263
  61     2.29569819927e-05
  62    -0.00011300885358339
  63    0.00039401570244846
  64    0.00013622439121773
  65    -2.3074361582415e-07
  66    -4.756501387923e-07
  67    -6.3441343090588e-08
  68    -4.974037644031e-07
  69    2.8565389126424e-06
  70    3.0916230618816e-07
  71    -3.9901835226126e-07
  72    9.4003964776652e-08
  73    3.5740205375897e-07
  74    1.2667383103262e-06
  75    2.3425408212044e-07
  76    -5.0167202851199e-08
  77    -1.2814056916491e-07
  78    4.6720725406247e-08
  79    6.4610121094956e-08
  80    -1.0684317145275e-07
  81    8.8887249085691e-08
  82    -3.1709920849071e-08
  83    -2.8475406201173e-08
  84    -1.2209282804923e-07
  85    -1.2586514044135e-05
  86    5.5994974375027e-07
  87    5.1150241231423e-08
  88    6.8728067327763e-07
  89    3.2858187974697e-06
  90    -4.4221582389018e-06
  91    2.7782177462714e-06
  92    1.895716999243e-07
  93    -3.1854699272294e-07
  94    2.8858129951739e-07
  95    2.3883330971036e-08
  96    -1.9788725296739e-07
  97    3.5980244156949e-07
  98    -4.3434977914832e-08
  99    1.4735049052564e-07
 100    -6.2094080720137e-07
 101    5.2248735152318e-08
 102    -1.1374491723726e-06
 103    1.270271722181e-05
 104    1.1594399857126e-06
 105    2.7920627316716e-07
 106    -5.3218983135106e-07
 107    -1.8410485186517e-05
 108    1.9150767398779e-05
 109    2.9867068845604e-05
 110    -5.6342356311333e-07
 111    -5.0696168556026e-07
 112    2.4770526126602e-07
 113    3.7562867043873e-07
 114    -4.8988781825866e-07
 115    -5.099452100174e-07
 116    -4.3740635175513e-06
 117    3.6091442991739e-05
 118    -6.9379949263685e-07
 119    1.052607692197e-06
 120    6.1066423300073e-07
 121    -8.3886751527484e-06
 122    1.0194230376501e-06
 123    2.8219316770358e-06
 124    -6.2579012726937e-08
 125    -1.7663018328443e-07
 126    -8.4722371772331e-08
 127    5.9771242970561e-08
 128    -3.8775149814363e-07
 129    -8.5743910260669e-07
 130    -8.7905206069639e-06
 131    5.0226595675412e-05
 132    -2.2855170939745e-07
 133    -1.3503213989001e-06
 134    3.6229447786943e-06
 135    -2.4734905927529e-05
 136    -4.0781672285288e-07
 137    -7.9882506676484e-05
 138    2.5091904609882e-06
 139    1.481936628216e-06
 140    4.250585273119e-07
 141    4.5405560222439e-07
 142    1.8168337522234e-07
 143    -5.4703172481446e-07
 144    -3.5078245028978e-06
 145    2.0270003044162e-05
 146    6.1823041111816e-07
 147    5.383045342939e-07
 148    -3.483227226998e-08
 149    1.2256163327796e-05
 150    -5.8524793888358e-06
 151    -3.2121120256296e-06
 152    -1.0338238048372e-06
 153    -3.4941556998719e-07
 154    -1.0139839355092e-07
 155    6.7899626491126e-07
 156    -7.7646831090116e-07
 157    -1.502022341683e-08
 158    1.1670126395363e-06
 159    9.7251829469699e-07
 160    7.5711368799216e-07
 161    -3.3277767694539e-07
 162    -2.7023357323737e-07
 163    -6.5968854812258e-06
 164    4.2349488246304e-07
 165    8.2750128461503e-07
 166    4.2313513055681e-07
 167    -1.2685632166284e-07
 168    -7.0043120995727e-09
 169    -1.0856051432945e-07
 170    2.9185223828749e-07
 171    7.3622526362222e-08
 172    -5.4746139226774e-07
 173    -1.4999149312679e-06
 174    -8.3827689721324e-07
 175    -2.7650065247542e-07
 176    8.1593225837937e-07
 177    -2.3181032790118e-07
 178    1.4049892817098e-06
 179    -1.86260956449e-06
 180    1.3311166519935e-07
 181    1.7828890367693e-07
 182    2.374290967788e-08
 183    -3.5613043166683e-07
 184    1.7518010672742e-07
 185    -2.6349278069618e-07
 186    -3.0493186421864e-06
 187    1.9573808095762e-06
 188    -1.4120977314289e-07
 189    1.5334255941673e-07
 190    1.2544250507883e-06
 191    2.611021976865e-06
 192    6.8220771504456e-07
 193    -5.2780292982335e-06
 194     3.31791100178e-07
 195    -5.6327074581971e-08
 196    1.8779600978136e-07
 197     7.84813492639e-08
 198    -1.0103195342093e-07
 199    -7.9834332867079e-07
 200    -1.4081433506473e-06
 201    1.6973333974263e-07
 202    3.6720160465552e-06
 203    -1.556899648109e-06
 204    -1.5375698805037e-06
 205    -5.0506206777271e-07
 206    -2.8789329124903e-06
 207    1.3593589704777e-06
 208    -1.1186451463108e-05
 209    1.1866314260638e-06
 210    -4.379554416991e-06
 211    5.1294705975825e-07
 212    2.7226202571299e-06
 213    -4.0175539892468e-07
 214    -2.7798183931157e-06
 215    -5.889630605022e-07
 216    5.8398384975612e-07
 217    4.3458005686456e-07
 218    1.2875860018114e-06
 219    2.2417175664451e-07
 220    9.3420914118112e-07
 221    -8.8332464687043e-07
 222    -7.7166059177256e-06
 223    -4.5073443861403e-06
 224    1.4452623925788e-06
 225    -3.6109210203002e-06
 226    2.7405718089583e-06
 227    1.2845389310108e-05
 228    2.3283737995976e-05
 229    -9.5628303030661e-05
 230    -1.1739014779065e-06
 231    -4.0326838834778e-06
 232    -2.1464211744813e-06
 233    1.7475687571736e-06
 234    2.8415255880776e-06
 235    -8.2516827641412e-07
 236    -1.1388814982762e-05
 237    1.7377233764714e-05
 238    -1.7798398886118e-06
 239    7.1370197856371e-06
 240    5.935874628012e-06
 241    -2.0431685889895e-05
 242    -3.6941749577522e-06
 243    -8.5409916845402e-05
 244    1.5512023741417e-06
 245    6.6510287299913e-06
 246    1.575001834242e-06
 247    2.459764658251e-06
 248    1.375269767642e-06
 249    -4.142576695644e-06
 250    1.0376881143657e-05
 251    -4.5592625491981e-06
 252    -2.7824944821574e-05
 253    0.00026208259096879
 254    5.0455041074775e-06
 255    -4.4904679146982e-06
 256    4.3756594824127e-06
 257    0.0001120576512711
 258    0.00010491793930747
 259    -0.00023844741470426
 260    2.191728708408e-06
 261    -1.2301311195322e-05
 262    -4.8766303563068e-06
 263    7.8704531884965e-06
 264    5.6316351067792e-06
 265    -4.8167442810932e-06
 266    2.6775466135599e-05
 267    -8.0386323084777e-06
 268    3.9295943124289e-05
 269    -6.8538076402291e-05
 270    2.4318118961033e-05
 271     0.003110593733917
 272    -0.00010696464434841
 273    -0.00024168648359797
 274    0.00014392791219617
 275    0.0020243138244563
 276    0.00057507972666882
 277    -0.0032104835342055
 278    0.00020984769695506
 279    -0.00021608673791216
 280    0.00014721614073249