[Molden Format]
made by pyscf v[2.0.1]
[Atoms] (AU)
C   1   6     0.69100024066471     0.64692934207205    -3.48223131169301
H   2   1     2.68052439830868     1.13355088658700    -3.25784032593313
C   3   6    -0.36286361513219     0.85440132524594    -5.97030179418974
H   4   1    -2.35448549047279     0.36322488579172    -6.17995817793143
C   5   6     0.93697958957450     1.61209284601821    -8.05828437677121
H   6   1    -0.09693119212527     2.00604603919817    -9.79517014534402
C   7   6     3.63030097622708     1.92762357571405    -8.11066704391556
H   8   1     4.64038155806228     1.52704759336691    -6.35595956986227
H   9   1     1.55630230933075    -1.92953025305990    12.99630010416247
C   10   6     0.75233899775814    -2.21270439606481    11.10705728102219
H   11   1    -0.43433408177274    -3.90944857546550    11.22216085340412
C   12   6     2.86362581178706    -2.63237380607947     9.17926416456045
H   13   1     4.39038949912609    -1.24955421540245     9.49899813497433
H   14   1     3.74629220191363    -4.48798724300892     9.47414880959024
C   15   6     2.02478325613682    -2.42177285709634     6.44560829588644
C   16   6     3.88048732735477    -3.58795445234514     4.61402886975252
C   17   6    -0.18412382258602    -1.30464291234259     5.76021113872346
C   18   6    -2.10044360464350    -0.26837831858460     7.71610340967100
C   19   6    -3.08956938670431     2.35282328359417     6.88693925039594
C   20   6    -4.37372924086464    -2.09766595989678     7.93610724222001
C   21   6    -0.83850430601230     0.06372213486173    10.33002307638377
H   22   1     0.38411922151109     1.74281358582432    10.27380136542181
H   23   1    -2.30980003007874     0.45460143924521    11.73986301809809
H   24   1     4.58527064644668    -5.38706904487420     5.36778158031719
H   25   1     5.54944938085014    -2.37631462192748     4.35398898413318
H   26   1     3.06633019150423    -3.94118377050688     2.75255466040884
H   27   1    -4.17727778763735     2.26573369139522     5.12914900961283
H   28   1    -1.52662344944051     3.68001877445626     6.59540397144508
H   29   1    -4.32916174397830     3.13643051467482     8.35225460090378
H   30   1    -5.32329548508442    -2.36691813602939     6.11583672749896
H   31   1    -5.77989366602257    -1.33896741843465     9.25748940450990
H   32   1    -3.79310905208926    -3.96389819310853     8.61386170102686
C   33   6    -1.01100794811226    -1.06331657314144     3.11929490449947
C   34   6     0.37686231036534    -0.33275864505552     1.09165013605873
H   35   1    -3.01671213906703    -1.40297922279997     2.77827895090944
C   36   6    -0.64382707979370    -0.11591880174385    -1.42063131251064
H   37   1     2.35569259782137     0.17174499283897     1.33641070251401
H   38   1    -2.63317482980319    -0.60229203511219    -1.66119700387645
C   39   6     5.00345825531076     2.67452304879010   -10.14372233560053
C   40   6     7.74537676211387     2.93885238802377   -10.00575318331397
H   41   1     4.11504514624535     3.10282594680410   -11.94789724846226
O   42   8     9.09456961333047     3.59889471504076   -11.75642359916462
H   43   1     8.57474602054619     2.48152315519597    -8.12342071425648
[GTO]
1 0
 s    6 1.00
             3047.5249  0.0018347001629433
             457.36951    0.01403730124668
             103.94869   0.068842606114048
             29.210155    0.23218442062076
              9.286663    0.46794134155879
              3.163927    0.36231203217765
 s    3 1.00
             7.8682724   -0.11933240861517
             1.8812885   -0.16085421161283
             0.5442493     1.1434564825515
 s    1 1.00
             0.1687144                   1
 p    3 1.00
             7.8682724   0.068999095584993
             1.8812885    0.31642397975315
             0.5442493    0.74430825237435
 p    1 1.00
             0.1687144                   1
 d    1 1.00
                   0.8                   1

2 0
 s    3 1.00
             18.731137    0.03349459952309
             2.8253937    0.23472694665786
             0.6401217    0.81375731841339
 s    1 1.00
             0.1612778                   1

3 0
 s    6 1.00
             3047.5249  0.0018347001629433
             457.36951    0.01403730124668
             103.94869   0.068842606114048
             29.210155    0.23218442062076
              9.286663    0.46794134155879
              3.163927    0.36231203217765
 s    3 1.00
             7.8682724   -0.11933240861517
             1.8812885   -0.16085421161283
             0.5442493     1.1434564825515
 s    1 1.00
             0.1687144                   1
 p    3 1.00
             7.8682724   0.068999095584993
             1.8812885    0.31642397975315
             0.5442493    0.74430825237435
 p    1 1.00
             0.1687144                   1
 d    1 1.00
                   0.8                   1

4 0
 s    3 1.00
             18.731137    0.03349459952309
             2.8253937    0.23472694665786
             0.6401217    0.81375731841339
 s    1 1.00
             0.1612778                   1

5 0
 s    6 1.00
             3047.5249  0.0018347001629433
             457.36951    0.01403730124668
             103.94869   0.068842606114048
             29.210155    0.23218442062076
              9.286663    0.46794134155879
              3.163927    0.36231203217765
 s    3 1.00
             7.8682724   -0.11933240861517
             1.8812885   -0.16085421161283
             0.5442493     1.1434564825515
 s    1 1.00
             0.1687144                   1
 p    3 1.00
             7.8682724   0.068999095584993
             1.8812885    0.31642397975315
             0.5442493    0.74430825237435
 p    1 1.00
             0.1687144                   1
 d    1 1.00
                   0.8                   1

6 0
 s    3 1.00
             18.731137    0.03349459952309
             2.8253937    0.23472694665786
             0.6401217    0.81375731841339
 s    1 1.00
             0.1612778                   1

7 0
 s    6 1.00
             3047.5249  0.0018347001629433
             457.36951    0.01403730124668
             103.94869   0.068842606114048
             29.210155    0.23218442062076
              9.286663    0.46794134155879
              3.163927    0.36231203217765
 s    3 1.00
             7.8682724   -0.11933240861517
             1.8812885   -0.16085421161283
             0.5442493     1.1434564825515
 s    1 1.00
             0.1687144                   1
 p    3 1.00
             7.8682724   0.068999095584993
             1.8812885    0.31642397975315
             0.5442493    0.74430825237435
 p    1 1.00
             0.1687144                   1
 d    1 1.00
                   0.8                   1

8 0
 s    3 1.00
             18.731137    0.03349459952309
             2.8253937    0.23472694665786
             0.6401217    0.81375731841339
 s    1 1.00
             0.1612778                   1

9 0
 s    3 1.00
             18.731137    0.03349459952309
             2.8253937    0.23472694665786
             0.6401217    0.81375731841339
 s    1 1.00
             0.1612778                   1

10 0
 s    6 1.00
             3047.5249  0.0018347001629433
             457.36951    0.01403730124668
             103.94869   0.068842606114048
             29.210155    0.23218442062076
              9.286663    0.46794134155879
              3.163927    0.36231203217765
 s    3 1.00
             7.8682724   -0.11933240861517
             1.8812885   -0.16085421161283
             0.5442493     1.1434564825515
 s    1 1.00
             0.1687144                   1
 p    3 1.00
             7.8682724   0.068999095584993
             1.8812885    0.31642397975315
             0.5442493    0.74430825237435
 p    1 1.00
             0.1687144                   1
 d    1 1.00
                   0.8                   1

11 0
 s    3 1.00
             18.731137    0.03349459952309
             2.8253937    0.23472694665786
             0.6401217    0.81375731841339
 s    1 1.00
             0.1612778                   1

12 0
 s    6 1.00
             3047.5249  0.0018347001629433
             457.36951    0.01403730124668
             103.94869   0.068842606114048
             29.210155    0.23218442062076
              9.286663    0.46794134155879
              3.163927    0.36231203217765
 s    3 1.00
             7.8682724   -0.11933240861517
             1.8812885   -0.16085421161283
             0.5442493     1.1434564825515
 s    1 1.00
             0.1687144                   1
 p    3 1.00
             7.8682724   0.068999095584993
             1.8812885    0.31642397975315
             0.5442493    0.74430825237435
 p    1 1.00
             0.1687144                   1
 d    1 1.00
                   0.8                   1

13 0
 s    3 1.00
             18.731137    0.03349459952309
             2.8253937    0.23472694665786
             0.6401217    0.81375731841339
 s    1 1.00
             0.1612778                   1

14 0
 s    3 1.00
             18.731137    0.03349459952309
             2.8253937    0.23472694665786
             0.6401217    0.81375731841339
 s    1 1.00
             0.1612778                   1

15 0
 s    6 1.00
             3047.5249  0.0018347001629433
             457.36951    0.01403730124668
             103.94869   0.068842606114048
             29.210155    0.23218442062076
              9.286663    0.46794134155879
              3.163927    0.36231203217765
 s    3 1.00
             7.8682724   -0.11933240861517
             1.8812885   -0.16085421161283
             0.5442493     1.1434564825515
 s    1 1.00
             0.1687144                   1
 p    3 1.00
             7.8682724   0.068999095584993
             1.8812885    0.31642397975315
             0.5442493    0.74430825237435
 p    1 1.00
             0.1687144                   1
 d    1 1.00
                   0.8                   1

16 0
 s    6 1.00
             3047.5249  0.0018347001629433
             457.36951    0.01403730124668
             103.94869   0.068842606114048
             29.210155    0.23218442062076
              9.286663    0.46794134155879
              3.163927    0.36231203217765
 s    3 1.00
             7.8682724   -0.11933240861517
             1.8812885   -0.16085421161283
             0.5442493     1.1434564825515
 s    1 1.00
             0.1687144                   1
 p    3 1.00
             7.8682724   0.068999095584993
             1.8812885    0.31642397975315
             0.5442493    0.74430825237435
 p    1 1.00
             0.1687144                   1
 d    1 1.00
                   0.8                   1

17 0
 s    6 1.00
             3047.5249  0.0018347001629433
             457.36951    0.01403730124668
             103.94869   0.068842606114048
             29.210155    0.23218442062076
              9.286663    0.46794134155879
              3.163927    0.36231203217765
 s    3 1.00
             7.8682724   -0.11933240861517
             1.8812885   -0.16085421161283
             0.5442493     1.1434564825515
 s    1 1.00
             0.1687144                   1
 p    3 1.00
             7.8682724   0.068999095584993
             1.8812885    0.31642397975315
             0.5442493    0.74430825237435
 p    1 1.00
             0.1687144                   1
 d    1 1.00
                   0.8                   1

18 0
 s    6 1.00
             3047.5249  0.0018347001629433
             457.36951    0.01403730124668
             103.94869   0.068842606114048
             29.210155    0.23218442062076
              9.286663    0.46794134155879
              3.163927    0.36231203217765
 s    3 1.00
             7.8682724   -0.11933240861517
             1.8812885   -0.16085421161283
             0.5442493     1.1434564825515
 s    1 1.00
             0.1687144                   1
 p    3 1.00
             7.8682724   0.068999095584993
             1.8812885    0.31642397975315
             0.5442493    0.74430825237435
 p    1 1.00
             0.1687144                   1
 d    1 1.00
                   0.8                   1

19 0
 s    6 1.00
             3047.5249  0.0018347001629433
             457.36951    0.01403730124668
             103.94869   0.068842606114048
             29.210155    0.23218442062076
              9.286663    0.46794134155879
              3.163927    0.36231203217765
 s    3 1.00
             7.8682724   -0.11933240861517
             1.8812885   -0.16085421161283
             0.5442493     1.1434564825515
 s    1 1.00
             0.1687144                   1
 p    3 1.00
             7.8682724   0.068999095584993
             1.8812885    0.31642397975315
             0.5442493    0.74430825237435
 p    1 1.00
             0.1687144                   1
 d    1 1.00
                   0.8                   1

20 0
 s    6 1.00
             3047.5249  0.0018347001629433
             457.36951    0.01403730124668
             103.94869   0.068842606114048
             29.210155    0.23218442062076
              9.286663    0.46794134155879
              3.163927    0.36231203217765
 s    3 1.00
             7.8682724   -0.11933240861517
             1.8812885   -0.16085421161283
             0.5442493     1.1434564825515
 s    1 1.00
             0.1687144                   1
 p    3 1.00
             7.8682724   0.068999095584993
             1.8812885    0.31642397975315
             0.5442493    0.74430825237435
 p    1 1.00
             0.1687144                   1
 d    1 1.00
                   0.8                   1

21 0
 s    6 1.00
             3047.5249  0.0018347001629433
             457.36951    0.01403730124668
             103.94869   0.068842606114048
             29.210155    0.23218442062076
              9.286663    0.46794134155879
              3.163927    0.36231203217765
 s    3 1.00
             7.8682724   -0.11933240861517
             1.8812885   -0.16085421161283
             0.5442493     1.1434564825515
 s    1 1.00
             0.1687144                   1
 p    3 1.00
             7.8682724   0.068999095584993
             1.8812885    0.31642397975315
             0.5442493    0.74430825237435
 p    1 1.00
             0.1687144                   1
 d    1 1.00
                   0.8                   1

22 0
 s    3 1.00
             18.731137    0.03349459952309
             2.8253937    0.23472694665786
             0.6401217    0.81375731841339
 s    1 1.00
             0.1612778                   1

23 0
 s    3 1.00
             18.731137    0.03349459952309
             2.8253937    0.23472694665786
             0.6401217    0.81375731841339
 s    1 1.00
             0.1612778                   1

24 0
 s    3 1.00
             18.731137    0.03349459952309
             2.8253937    0.23472694665786
             0.6401217    0.81375731841339
 s    1 1.00
             0.1612778                   1

25 0
 s    3 1.00
             18.731137    0.03349459952309
             2.8253937    0.23472694665786
             0.6401217    0.81375731841339
 s    1 1.00
             0.1612778                   1

26 0
 s    3 1.00
             18.731137    0.03349459952309
             2.8253937    0.23472694665786
             0.6401217    0.81375731841339
 s    1 1.00
             0.1612778                   1

27 0
 s    3 1.00
             18.731137    0.03349459952309
             2.8253937    0.23472694665786
             0.6401217    0.81375731841339
 s    1 1.00
             0.1612778                   1

28 0
 s    3 1.00
             18.731137    0.03349459952309
             2.8253937    0.23472694665786
             0.6401217    0.81375731841339
 s    1 1.00
             0.1612778                   1

29 0
 s    3 1.00
             18.731137    0.03349459952309
             2.8253937    0.23472694665786
             0.6401217    0.81375731841339
 s    1 1.00
             0.1612778                   1

30 0
 s    3 1.00
             18.731137    0.03349459952309
             2.8253937    0.23472694665786
             0.6401217    0.81375731841339
 s    1 1.00
             0.1612778                   1

31 0
 s    3 1.00
             18.731137    0.03349459952309
             2.8253937    0.23472694665786
             0.6401217    0.81375731841339
 s    1 1.00
             0.1612778                   1

32 0
 s    3 1.00
             18.731137    0.03349459952309
             2.8253937    0.23472694665786
             0.6401217    0.81375731841339
 s    1 1.00
             0.1612778                   1

33 0
 s    6 1.00
             3047.5249  0.0018347001629433
             457.36951    0.01403730124668
             103.94869   0.068842606114048
             29.210155    0.23218442062076
              9.286663    0.46794134155879
              3.163927    0.36231203217765
 s    3 1.00
             7.8682724   -0.11933240861517
             1.8812885   -0.16085421161283
             0.5442493     1.1434564825515
 s    1 1.00
             0.1687144                   1
 p    3 1.00
             7.8682724   0.068999095584993
             1.8812885    0.31642397975315
             0.5442493    0.74430825237435
 p    1 1.00
             0.1687144                   1
 d    1 1.00
                   0.8                   1

34 0
 s    6 1.00
             3047.5249  0.0018347001629433
             457.36951    0.01403730124668
             103.94869   0.068842606114048
             29.210155    0.23218442062076
              9.286663    0.46794134155879
              3.163927    0.36231203217765
 s    3 1.00
             7.8682724   -0.11933240861517
             1.8812885   -0.16085421161283
             0.5442493     1.1434564825515
 s    1 1.00
             0.1687144                   1
 p    3 1.00
             7.8682724   0.068999095584993
             1.8812885    0.31642397975315
             0.5442493    0.74430825237435
 p    1 1.00
             0.1687144                   1
 d    1 1.00
                   0.8                   1

35 0
 s    3 1.00
             18.731137    0.03349459952309
             2.8253937    0.23472694665786
             0.6401217    0.81375731841339
 s    1 1.00
             0.1612778                   1

36 0
 s    6 1.00
             3047.5249  0.0018347001629433
             457.36951    0.01403730124668
             103.94869   0.068842606114048
             29.210155    0.23218442062076
              9.286663    0.46794134155879
              3.163927    0.36231203217765
 s    3 1.00
             7.8682724   -0.11933240861517
             1.8812885   -0.16085421161283
             0.5442493     1.1434564825515
 s    1 1.00
             0.1687144                   1
 p    3 1.00
             7.8682724   0.068999095584993
             1.8812885    0.31642397975315
             0.5442493    0.74430825237435
 p    1 1.00
             0.1687144                   1
 d    1 1.00
                   0.8                   1

37 0
 s    3 1.00
             18.731137    0.03349459952309
             2.8253937    0.23472694665786
             0.6401217    0.81375731841339
 s    1 1.00
             0.1612778                   1

38 0
 s    3 1.00
             18.731137    0.03349459952309
             2.8253937    0.23472694665786
             0.6401217    0.81375731841339
 s    1 1.00
             0.1612778                   1

39 0
 s    6 1.00
             3047.5249  0.0018347001629433
             457.36951    0.01403730124668
             103.94869   0.068842606114048
             29.210155    0.23218442062076
              9.286663    0.46794134155879
              3.163927    0.36231203217765
 s    3 1.00
             7.8682724   -0.11933240861517
             1.8812885   -0.16085421161283
             0.5442493     1.1434564825515
 s    1 1.00
             0.1687144                   1
 p    3 1.00
             7.8682724   0.068999095584993
             1.8812885    0.31642397975315
             0.5442493    0.74430825237435
 p    1 1.00
             0.1687144                   1
 d    1 1.00
                   0.8                   1

40 0
 s    6 1.00
             3047.5249  0.0018347001629433
             457.36951    0.01403730124668
             103.94869   0.068842606114048
             29.210155    0.23218442062076
              9.286663    0.46794134155879
              3.163927    0.36231203217765
 s    3 1.00
             7.8682724   -0.11933240861517
             1.8812885   -0.16085421161283
             0.5442493     1.1434564825515
 s    1 1.00
             0.1687144                   1
 p    3 1.00
             7.8682724   0.068999095584993
             1.8812885    0.31642397975315
             0.5442493    0.74430825237435
 p    1 1.00
             0.1687144                   1
 d    1 1.00
                   0.8                   1

41 0
 s    3 1.00
             18.731137    0.03349459952309
             2.8253937    0.23472694665786
             0.6401217    0.81375731841339
 s    1 1.00
             0.1612778                   1

42 0
 s    6 1.00
             5484.6717   0.001831099805527
             825.23495   0.013950098518422
             188.04696    0.06844509273075
               52.9645    0.23271427528445
              16.89757    0.47019295006289
             5.7996353    0.35852086192309
 s    3 1.00
             15.539616   -0.11077750382508
             3.5999336   -0.14802630511126
             1.0137618     1.1307670390447
 s    1 1.00
             0.2700058                   1
 p    3 1.00
             15.539616   0.070874299543311
             3.5999336    0.33975279781076
             1.0137618    0.72715859531445
 p    1 1.00
             0.2700058                   1
 d    1 1.00
                   0.8                   1

43 0
 s    3 1.00
             18.731137    0.03349459952309
             2.8253937    0.23472694665786
             0.6401217    0.81375731841339
 s    1 1.00
             0.1612778                   1

[5d]
[7f]
[9g]

[MO]
 Sym= A
 Ene=               0
 Spin= Alpha
 Occup=    1.00000
   1    -1.5045366771766e-05
   2    -0.00010007367159139
   3    0.0014130875459381
   4    -3.5321721771364e-05
   5    3.299402206248e-06
   6    2.1774762009984e-05
   7    -6.5666058491672e-05
   8    0.00021374687028458
   9    -0.0015832853910371
  10    4.3906867589369e-05
  11    4.8586093185021e-05
  12    2.0410055486415e-06
  13    6.5506196565021e-06
  14    -4.3876948393143e-06
  15    -4.9284682832932e-05
  16    5.6709076296157e-05
  17    3.5061280143116e-05
  18    0.00019084398658266
  19    -0.0031111716519628
  20    -1.9943596057575e-05
  21    -1.9805271951539e-05
  22    8.5164181508293e-05
  23    -0.0019765303781401
  24    -0.00029794466180411
  25    -0.00059585843795601
  26    -4.9590302301602e-05
  27    2.3806553252535e-05
  28    1.6500317126627e-05
  29    -2.7793965209971e-05
  30    -2.4985418428534e-05
  31    -7.1729430885538e-05
  32    -0.00043570121996143
  33    -9.4606535181445e-05
  34    -0.00038031025281081
  35    0.0060289124440318
  36    0.00018351817425591
  37    4.6233755271726e-05
  38    -7.3860085070644e-05
  39    0.0028106511251465
  40    -0.00014733830101077
  41    0.0017852955486882
  42    -1.7045723449425e-05
  43    -3.3399708958686e-05
  44    -4.1869167988869e-05
  45    0.00015820862956405
  46    4.1290582605557e-05
  47    6.4367031410779e-05
  48    0.00059014816254084
  49    6.0783367814021e-05
  50    -0.00027086495704515
  51    -0.0043962023111699
  52    -0.00061260941524674
  53    -8.4418177666817e-05
  54    8.2854924538275e-05
  55    0.0046495567142605
  56    0.0004937407495215
  57    -7.1236195866726e-05
  58    0.00020677109426041
  59    -3.990990454815e-05
  60    -8.2873929717843e-05
  61    -0.0001126067141614
  62    -8.1993201607223e-06
  63    -0.00035399293096893
  64    -0.00036437452410509
  65    -3.8098051654064e-07
  66    1.7652740050967e-06
  67    -1.2108261683779e-07
  68    -1.2520435239447e-06
  69    -7.194227987902e-07
  70    8.0399789426691e-07
  71    -1.1571677700372e-06
  72    1.4873446073516e-07
  73    2.9065602100639e-06
  74    2.7545040191645e-06
  75    -1.5888849320133e-06
  76    3.6702374391952e-07
  77    2.0283181920573e-07
  78    9.9632464734311e-08
  79    1.8331034560771e-07
  80    1.9536486751178e-07
  81    3.3363203664824e-07
  82    1.9149901630964e-06
  83    3.3012514801638e-07
  84    2.753102084408e-06
  85    -7.9860527462964e-07
  86    -7.6560946005396e-08
  87    8.8055437399188e-07
  88    2.5710498320647e-07
  89    3.662972346944e-06
  90    -1.2575852686567e-05
  91    -3.5847617906925e-06
  92    -1.4542793233093e-07
  93    -3.1146423759719e-07
  94    9.3302157022191e-07
  95    -4.8608247087888e-07
  96    6.9793340679528e-08
  97    1.6649245984091e-06
  98    2.4509277673833e-06
  99    -1.1431661031271e-06
 100    -3.1528011581765e-06
 101    -7.6937639113218e-07
 102    -3.7233588395901e-06
 103    9.2805330501836e-05
 104    -2.3859776387308e-06
 105    -5.2917140139691e-07
 106    -1.3817705096639e-06
 107    -2.6028780506299e-05
 108    3.1303699705371e-05
 109    -3.2963133648164e-05
 110    6.0844490574638e-07
 111    1.6276314805232e-06
 112    -6.9881470788424e-07
 113    -1.8717077897977e-07
 114    -1.4128752782259e-06
 115    2.8643961035759e-07
 116    2.6966383982731e-06
 117    -1.2371779096496e-05
 118    4.827561935461e-08
 119    1.8197901154916e-06
 120    -1.4665600309812e-06
 121    8.6134020861681e-06
 122    -1.7879313251103e-05
 123    6.8615355636374e-06
 124    7.7506568918735e-07
 125    -2.7405955437035e-07
 126    -1.2413330543777e-06
 127     -4.5556444272e-07
 128    9.3554425597739e-08
 129    9.396099592996e-07
 130    4.3428220430392e-06
 131    -1.2434538991628e-05
 132    5.3403868876923e-06
 133    -7.27990334466e-07
 134    -2.3500485141455e-06
 135    -0.00011561906455085
 136    1.6024845269173e-05
 137    3.9156725350549e-05
 138    -1.6035956776473e-06
 139    1.6299807207199e-07
 140    3.0670167184177e-06
 141    -1.6018336003946e-07
 142    2.8229532354303e-06
 143    4.5279897491478e-07
 144    1.8464897862309e-06
 145    -6.664626438135e-05
 146    6.6537129036327e-07
 147    -2.6123163899915e-07
 148    5.8192863968501e-06
 149    -3.2409306579907e-05
 150    4.1384364465018e-05
 151    -2.4002080403999e-05
 152    -5.7474454327592e-07
 153    4.4918292570642e-08
 154    -2.2234002003134e-06
 155    -5.9686450263925e-07
 156    -3.5518536320159e-07
 157    8.2104869166259e-07
 158    7.1031834189324e-06
 159    -3.7916933594888e-05
 160    9.8455365257668e-07
 161    5.4518481980956e-07
 162    -1.1584909912574e-06
 163    -9.4755984725991e-06
 164    1.5172847217901e-05
 165    4.931490654313e-06
 166    9.1454799457673e-07
 167    -1.16499491456e-07
 168    1.4600366655754e-08
 169    9.0876703844799e-07
 170    3.9788173343364e-07
 171    -1.739311735603e-08
 172    -7.507145518973e-07
 173    4.429818615961e-07
 174    -1.2984786516537e-06
 175    -1.5677438300537e-07
 176    2.3781698635272e-06
 177    1.8668439819603e-05
 178    5.5528382127196e-07
 179    4.1655081310375e-06
 180    -2.34734839205e-07
 181    1.7774156791855e-06
 182    -1.7107400909266e-07
 183    1.1620098875509e-06
 184    1.3464539007427e-06
 185    -7.5718785345302e-07
 186    -5.8590780650554e-06
 187    4.0406808145787e-05
 188    -1.4019597944803e-06
 189    -3.6241398405973e-07
 190    -1.2280347431888e-06
 191    -3.7908712926813e-06
 192    -9.7332188536377e-06
 193    -1.8177222102367e-05
 194    8.7794109704411e-07
 195    1.1066584725452e-06
 196    1.4451131044566e-06
 197    -6.712921632479e-07
 198    6.1710306844223e-07
 199    -2.0366331694172e-06
 200    1.3194640564938e-06
 201    -6.6570440575295e-07
 202    -2.8314572970343e-07
 203    -1.4935130950508e-06
 204    -7.8378216721172e-06
 205    3.100726627565e-06
 206    2.4394141297366e-07
 207    2.9430377314341e-06
 208    1.5402867436036e-07
 209    2.9067260926266e-06
 210    3.0162571614348e-06
 211    1.9681696889231e-06
 212    3.9514672553208e-06
 213    8.1005848470565e-07
 214    -5.0075398414726e-06
 215    -4.290899425781e-06
 216    2.2769571189692e-05
 217    1.4283366083292e-06
 218    3.735353731525e-06
 219    2.5520032258032e-07
 220    -4.4777645132565e-06
 221    -5.628950232471e-06
 222    -3.5693430441562e-05
 223    0.00046252675768503
 224    5.1524816781099e-06
 225    4.4883088696715e-06
 226    -5.8827165154281e-06
 227    0.0001242247185172
 228    6.6173503503061e-05
 229    -0.00025732530714523
 230    9.0123225399647e-06
 231    -9.2293345507275e-06
 232    -8.5958009107084e-06
 233    4.1489715407545e-06
 234    4.0613852392927e-06
 235    5.9091761565056e-06
 236    2.6986230963993e-05
 237    -0.00078109105463929
 238    -9.74551430691e-06
 239    -9.2295396540865e-06
 240    2.7438927764224e-05
 241    0.00029725724233308
 242    8.4791806329637e-05
 243    -5.5404863249454e-05
 244    -1.4997920297853e-05
 245    8.8073990664515e-06
 246    8.6965222014971e-06
 247    1.0225888574502e-07
 248    -7.0478559291368e-07
 249    -5.2940608011097e-06
 250    -1.8997488418035e-05
 251    -5.0339174035065e-06
 252    -2.8538477587139e-05
 253    0.00078150909340041
 254    -1.1361434609491e-05
 255    -1.1190487221712e-06
 256    -3.2069737832925e-05
 257    0.00047053319671816
 258    0.00010837129311962
 259    0.00024633671601215
 260    7.2415738124524e-06
 261    -2.0874736133949e-06
 262    -7.441239207479e-06
 263    4.8244381413506e-06
 264    8.6976679214196e-06
 265    -2.1233050823304e-05
 266    -9.5437407169916e-06
 267    2.8568274452235e-05
 268    0.00014785912216779
 269    7.2068374868029e-05
 270    -1.9090025392329e-06
 271    -0.0035292348310058
 272    -5.4861283717347e-06
 273    7.715327878733e-05
 274    -0.00028535125867205
 275    -0.0026816391723014
 276    -0.0010192420264341
 277    0.0025191946838579
 278    0.00014652745130142
 279    0.00032473598144598
 280    9.2866494845737e-06