[Molden Format]
made by pyscf v[2.0.1]
[Atoms] (AU)
C   1   6     0.69100024066471     0.64692934207205    -3.48223131169301
H   2   1     2.68052439830868     1.13355088658700    -3.25784032593313
C   3   6    -0.36286361513219     0.85440132524594    -5.97030179418974
H   4   1    -2.35448549047279     0.36322488579172    -6.17995817793143
C   5   6     0.93697958957450     1.61209284601821    -8.05828437677121
H   6   1    -0.06960811584452     2.58702669474359    -9.56733307637730
C   7   6     3.59571274713804     1.19684402678434    -8.39738626626495
H   8   1     4.57899779978681     0.21871567749258    -6.86894337963000
H   9   1     1.55630230933075    -1.92953025305990    12.99630010416247
C   10   6     0.75233899775814    -2.21270439606481    11.10705728102219
H   11   1    -0.43433408177274    -3.90944857546550    11.22216085340412
C   12   6     2.86362581178706    -2.63237380607947     9.17926416456045
H   13   1     4.39038949912609    -1.24955421540245     9.49899813497433
H   14   1     3.74629220191363    -4.48798724300892     9.47414880959024
C   15   6     2.02478325613682    -2.42177285709634     6.44560829588644
C   16   6     3.88048732735477    -3.58795445234514     4.61402886975252
C   17   6    -0.18412382258602    -1.30464291234259     5.76021113872346
C   18   6    -2.10044360464350    -0.26837831858460     7.71610340967100
C   19   6    -3.08956938670431     2.35282328359417     6.88693925039594
C   20   6    -4.37372924086464    -2.09766595989678     7.93610724222001
C   21   6    -0.83850430601230     0.06372213486173    10.33002307638377
H   22   1     0.38411922151109     1.74281358582432    10.27380136542181
H   23   1    -2.30980003007874     0.45460143924521    11.73986301809809
H   24   1     4.58527064644668    -5.38706904487420     5.36778158031719
H   25   1     5.54944938085014    -2.37631462192748     4.35398898413318
H   26   1     3.06633019150423    -3.94118377050688     2.75255466040884
H   27   1    -4.17727778763735     2.26573369139522     5.12914900961283
H   28   1    -1.52662344944051     3.68001877445626     6.59540397144508
H   29   1    -4.32916174397830     3.13643051467482     8.35225460090378
H   30   1    -5.32329548508442    -2.36691813602939     6.11583672749896
H   31   1    -5.77989366602257    -1.33896741843465     9.25748940450990
H   32   1    -3.79310905208926    -3.96389819310853     8.61386170102686
C   33   6    -1.01100794811226    -1.06331657314144     3.11929490449947
C   34   6     0.37686231036534    -0.33275864505552     1.09165013605873
H   35   1    -3.01671213906703    -1.40297922279997     2.77827895090944
C   36   6    -0.64382707979370    -0.11591880174385    -1.42063131251064
H   37   1     2.35569259782137     0.17174499283897     1.33641070251401
H   38   1    -2.63317482980319    -0.60229203511219    -1.66119700387645
C   39   6     4.96665860975130     1.91437223239220   -10.44247655051683
C   40   6     7.67160233174465     1.40206885234173   -10.60935163126053
H   41   1     4.10375913642339     2.89528826049847   -12.03023490303406
O   42   8     9.01623610133373     1.99111078946158   -12.38862500825095
H   43   1     8.47573431044455     0.39495244048141    -8.94223819440966
[GTO]
1 0
 s    6 1.00
             3047.5249  0.0018347001629433
             457.36951    0.01403730124668
             103.94869   0.068842606114048
             29.210155    0.23218442062076
              9.286663    0.46794134155879
              3.163927    0.36231203217765
 s    3 1.00
             7.8682724   -0.11933240861517
             1.8812885   -0.16085421161283
             0.5442493     1.1434564825515
 s    1 1.00
             0.1687144                   1
 p    3 1.00
             7.8682724   0.068999095584993
             1.8812885    0.31642397975315
             0.5442493    0.74430825237435
 p    1 1.00
             0.1687144                   1
 d    1 1.00
                   0.8                   1

2 0
 s    3 1.00
             18.731137    0.03349459952309
             2.8253937    0.23472694665786
             0.6401217    0.81375731841339
 s    1 1.00
             0.1612778                   1

3 0
 s    6 1.00
             3047.5249  0.0018347001629433
             457.36951    0.01403730124668
             103.94869   0.068842606114048
             29.210155    0.23218442062076
              9.286663    0.46794134155879
              3.163927    0.36231203217765
 s    3 1.00
             7.8682724   -0.11933240861517
             1.8812885   -0.16085421161283
             0.5442493     1.1434564825515
 s    1 1.00
             0.1687144                   1
 p    3 1.00
             7.8682724   0.068999095584993
             1.8812885    0.31642397975315
             0.5442493    0.74430825237435
 p    1 1.00
             0.1687144                   1
 d    1 1.00
                   0.8                   1

4 0
 s    3 1.00
             18.731137    0.03349459952309
             2.8253937    0.23472694665786
             0.6401217    0.81375731841339
 s    1 1.00
             0.1612778                   1

5 0
 s    6 1.00
             3047.5249  0.0018347001629433
             457.36951    0.01403730124668
             103.94869   0.068842606114048
             29.210155    0.23218442062076
              9.286663    0.46794134155879
              3.163927    0.36231203217765
 s    3 1.00
             7.8682724   -0.11933240861517
             1.8812885   -0.16085421161283
             0.5442493     1.1434564825515
 s    1 1.00
             0.1687144                   1
 p    3 1.00
             7.8682724   0.068999095584993
             1.8812885    0.31642397975315
             0.5442493    0.74430825237435
 p    1 1.00
             0.1687144                   1
 d    1 1.00
                   0.8                   1

6 0
 s    3 1.00
             18.731137    0.03349459952309
             2.8253937    0.23472694665786
             0.6401217    0.81375731841339
 s    1 1.00
             0.1612778                   1

7 0
 s    6 1.00
             3047.5249  0.0018347001629433
             457.36951    0.01403730124668
             103.94869   0.068842606114048
             29.210155    0.23218442062076
              9.286663    0.46794134155879
              3.163927    0.36231203217765
 s    3 1.00
             7.8682724   -0.11933240861517
             1.8812885   -0.16085421161283
             0.5442493     1.1434564825515
 s    1 1.00
             0.1687144                   1
 p    3 1.00
             7.8682724   0.068999095584993
             1.8812885    0.31642397975315
             0.5442493    0.74430825237435
 p    1 1.00
             0.1687144                   1
 d    1 1.00
                   0.8                   1

8 0
 s    3 1.00
             18.731137    0.03349459952309
             2.8253937    0.23472694665786
             0.6401217    0.81375731841339
 s    1 1.00
             0.1612778                   1

9 0
 s    3 1.00
             18.731137    0.03349459952309
             2.8253937    0.23472694665786
             0.6401217    0.81375731841339
 s    1 1.00
             0.1612778                   1

10 0
 s    6 1.00
             3047.5249  0.0018347001629433
             457.36951    0.01403730124668
             103.94869   0.068842606114048
             29.210155    0.23218442062076
              9.286663    0.46794134155879
              3.163927    0.36231203217765
 s    3 1.00
             7.8682724   -0.11933240861517
             1.8812885   -0.16085421161283
             0.5442493     1.1434564825515
 s    1 1.00
             0.1687144                   1
 p    3 1.00
             7.8682724   0.068999095584993
             1.8812885    0.31642397975315
             0.5442493    0.74430825237435
 p    1 1.00
             0.1687144                   1
 d    1 1.00
                   0.8                   1

11 0
 s    3 1.00
             18.731137    0.03349459952309
             2.8253937    0.23472694665786
             0.6401217    0.81375731841339
 s    1 1.00
             0.1612778                   1

12 0
 s    6 1.00
             3047.5249  0.0018347001629433
             457.36951    0.01403730124668
             103.94869   0.068842606114048
             29.210155    0.23218442062076
              9.286663    0.46794134155879
              3.163927    0.36231203217765
 s    3 1.00
             7.8682724   -0.11933240861517
             1.8812885   -0.16085421161283
             0.5442493     1.1434564825515
 s    1 1.00
             0.1687144                   1
 p    3 1.00
             7.8682724   0.068999095584993
             1.8812885    0.31642397975315
             0.5442493    0.74430825237435
 p    1 1.00
             0.1687144                   1
 d    1 1.00
                   0.8                   1

13 0
 s    3 1.00
             18.731137    0.03349459952309
             2.8253937    0.23472694665786
             0.6401217    0.81375731841339
 s    1 1.00
             0.1612778                   1

14 0
 s    3 1.00
             18.731137    0.03349459952309
             2.8253937    0.23472694665786
             0.6401217    0.81375731841339
 s    1 1.00
             0.1612778                   1

15 0
 s    6 1.00
             3047.5249  0.0018347001629433
             457.36951    0.01403730124668
             103.94869   0.068842606114048
             29.210155    0.23218442062076
              9.286663    0.46794134155879
              3.163927    0.36231203217765
 s    3 1.00
             7.8682724   -0.11933240861517
             1.8812885   -0.16085421161283
             0.5442493     1.1434564825515
 s    1 1.00
             0.1687144                   1
 p    3 1.00
             7.8682724   0.068999095584993
             1.8812885    0.31642397975315
             0.5442493    0.74430825237435
 p    1 1.00
             0.1687144                   1
 d    1 1.00
                   0.8                   1

16 0
 s    6 1.00
             3047.5249  0.0018347001629433
             457.36951    0.01403730124668
             103.94869   0.068842606114048
             29.210155    0.23218442062076
              9.286663    0.46794134155879
              3.163927    0.36231203217765
 s    3 1.00
             7.8682724   -0.11933240861517
             1.8812885   -0.16085421161283
             0.5442493     1.1434564825515
 s    1 1.00
             0.1687144                   1
 p    3 1.00
             7.8682724   0.068999095584993
             1.8812885    0.31642397975315
             0.5442493    0.74430825237435
 p    1 1.00
             0.1687144                   1
 d    1 1.00
                   0.8                   1

17 0
 s    6 1.00
             3047.5249  0.0018347001629433
             457.36951    0.01403730124668
             103.94869   0.068842606114048
             29.210155    0.23218442062076
              9.286663    0.46794134155879
              3.163927    0.36231203217765
 s    3 1.00
             7.8682724   -0.11933240861517
             1.8812885   -0.16085421161283
             0.5442493     1.1434564825515
 s    1 1.00
             0.1687144                   1
 p    3 1.00
             7.8682724   0.068999095584993
             1.8812885    0.31642397975315
             0.5442493    0.74430825237435
 p    1 1.00
             0.1687144                   1
 d    1 1.00
                   0.8                   1

18 0
 s    6 1.00
             3047.5249  0.0018347001629433
             457.36951    0.01403730124668
             103.94869   0.068842606114048
             29.210155    0.23218442062076
              9.286663    0.46794134155879
              3.163927    0.36231203217765
 s    3 1.00
             7.8682724   -0.11933240861517
             1.8812885   -0.16085421161283
             0.5442493     1.1434564825515
 s    1 1.00
             0.1687144                   1
 p    3 1.00
             7.8682724   0.068999095584993
             1.8812885    0.31642397975315
             0.5442493    0.74430825237435
 p    1 1.00
             0.1687144                   1
 d    1 1.00
                   0.8                   1

19 0
 s    6 1.00
             3047.5249  0.0018347001629433
             457.36951    0.01403730124668
             103.94869   0.068842606114048
             29.210155    0.23218442062076
              9.286663    0.46794134155879
              3.163927    0.36231203217765
 s    3 1.00
             7.8682724   -0.11933240861517
             1.8812885   -0.16085421161283
             0.5442493     1.1434564825515
 s    1 1.00
             0.1687144                   1
 p    3 1.00
             7.8682724   0.068999095584993
             1.8812885    0.31642397975315
             0.5442493    0.74430825237435
 p    1 1.00
             0.1687144                   1
 d    1 1.00
                   0.8                   1

20 0
 s    6 1.00
             3047.5249  0.0018347001629433
             457.36951    0.01403730124668
             103.94869   0.068842606114048
             29.210155    0.23218442062076
              9.286663    0.46794134155879
              3.163927    0.36231203217765
 s    3 1.00
             7.8682724   -0.11933240861517
             1.8812885   -0.16085421161283
             0.5442493     1.1434564825515
 s    1 1.00
             0.1687144                   1
 p    3 1.00
             7.8682724   0.068999095584993
             1.8812885    0.31642397975315
             0.5442493    0.74430825237435
 p    1 1.00
             0.1687144                   1
 d    1 1.00
                   0.8                   1

21 0
 s    6 1.00
             3047.5249  0.0018347001629433
             457.36951    0.01403730124668
             103.94869   0.068842606114048
             29.210155    0.23218442062076
              9.286663    0.46794134155879
              3.163927    0.36231203217765
 s    3 1.00
             7.8682724   -0.11933240861517
             1.8812885   -0.16085421161283
             0.5442493     1.1434564825515
 s    1 1.00
             0.1687144                   1
 p    3 1.00
             7.8682724   0.068999095584993
             1.8812885    0.31642397975315
             0.5442493    0.74430825237435
 p    1 1.00
             0.1687144                   1
 d    1 1.00
                   0.8                   1

22 0
 s    3 1.00
             18.731137    0.03349459952309
             2.8253937    0.23472694665786
             0.6401217    0.81375731841339
 s    1 1.00
             0.1612778                   1

23 0
 s    3 1.00
             18.731137    0.03349459952309
             2.8253937    0.23472694665786
             0.6401217    0.81375731841339
 s    1 1.00
             0.1612778                   1

24 0
 s    3 1.00
             18.731137    0.03349459952309
             2.8253937    0.23472694665786
             0.6401217    0.81375731841339
 s    1 1.00
             0.1612778                   1

25 0
 s    3 1.00
             18.731137    0.03349459952309
             2.8253937    0.23472694665786
             0.6401217    0.81375731841339
 s    1 1.00
             0.1612778                   1

26 0
 s    3 1.00
             18.731137    0.03349459952309
             2.8253937    0.23472694665786
             0.6401217    0.81375731841339
 s    1 1.00
             0.1612778                   1

27 0
 s    3 1.00
             18.731137    0.03349459952309
             2.8253937    0.23472694665786
             0.6401217    0.81375731841339
 s    1 1.00
             0.1612778                   1

28 0
 s    3 1.00
             18.731137    0.03349459952309
             2.8253937    0.23472694665786
             0.6401217    0.81375731841339
 s    1 1.00
             0.1612778                   1

29 0
 s    3 1.00
             18.731137    0.03349459952309
             2.8253937    0.23472694665786
             0.6401217    0.81375731841339
 s    1 1.00
             0.1612778                   1

30 0
 s    3 1.00
             18.731137    0.03349459952309
             2.8253937    0.23472694665786
             0.6401217    0.81375731841339
 s    1 1.00
             0.1612778                   1

31 0
 s    3 1.00
             18.731137    0.03349459952309
             2.8253937    0.23472694665786
             0.6401217    0.81375731841339
 s    1 1.00
             0.1612778                   1

32 0
 s    3 1.00
             18.731137    0.03349459952309
             2.8253937    0.23472694665786
             0.6401217    0.81375731841339
 s    1 1.00
             0.1612778                   1

33 0
 s    6 1.00
             3047.5249  0.0018347001629433
             457.36951    0.01403730124668
             103.94869   0.068842606114048
             29.210155    0.23218442062076
              9.286663    0.46794134155879
              3.163927    0.36231203217765
 s    3 1.00
             7.8682724   -0.11933240861517
             1.8812885   -0.16085421161283
             0.5442493     1.1434564825515
 s    1 1.00
             0.1687144                   1
 p    3 1.00
             7.8682724   0.068999095584993
             1.8812885    0.31642397975315
             0.5442493    0.74430825237435
 p    1 1.00
             0.1687144                   1
 d    1 1.00
                   0.8                   1

34 0
 s    6 1.00
             3047.5249  0.0018347001629433
             457.36951    0.01403730124668
             103.94869   0.068842606114048
             29.210155    0.23218442062076
              9.286663    0.46794134155879
              3.163927    0.36231203217765
 s    3 1.00
             7.8682724   -0.11933240861517
             1.8812885   -0.16085421161283
             0.5442493     1.1434564825515
 s    1 1.00
             0.1687144                   1
 p    3 1.00
             7.8682724   0.068999095584993
             1.8812885    0.31642397975315
             0.5442493    0.74430825237435
 p    1 1.00
             0.1687144                   1
 d    1 1.00
                   0.8                   1

35 0
 s    3 1.00
             18.731137    0.03349459952309
             2.8253937    0.23472694665786
             0.6401217    0.81375731841339
 s    1 1.00
             0.1612778                   1

36 0
 s    6 1.00
             3047.5249  0.0018347001629433
             457.36951    0.01403730124668
             103.94869   0.068842606114048
             29.210155    0.23218442062076
              9.286663    0.46794134155879
              3.163927    0.36231203217765
 s    3 1.00
             7.8682724   -0.11933240861517
             1.8812885   -0.16085421161283
             0.5442493     1.1434564825515
 s    1 1.00
             0.1687144                   1
 p    3 1.00
             7.8682724   0.068999095584993
             1.8812885    0.31642397975315
             0.5442493    0.74430825237435
 p    1 1.00
             0.1687144                   1
 d    1 1.00
                   0.8                   1

37 0
 s    3 1.00
             18.731137    0.03349459952309
             2.8253937    0.23472694665786
             0.6401217    0.81375731841339
 s    1 1.00
             0.1612778                   1

38 0
 s    3 1.00
             18.731137    0.03349459952309
             2.8253937    0.23472694665786
             0.6401217    0.81375731841339
 s    1 1.00
             0.1612778                   1

39 0
 s    6 1.00
             3047.5249  0.0018347001629433
             457.36951    0.01403730124668
             103.94869   0.068842606114048
             29.210155    0.23218442062076
              9.286663    0.46794134155879
              3.163927    0.36231203217765
 s    3 1.00
             7.8682724   -0.11933240861517
             1.8812885   -0.16085421161283
             0.5442493     1.1434564825515
 s    1 1.00
             0.1687144                   1
 p    3 1.00
             7.8682724   0.068999095584993
             1.8812885    0.31642397975315
             0.5442493    0.74430825237435
 p    1 1.00
             0.1687144                   1
 d    1 1.00
                   0.8                   1

40 0
 s    6 1.00
             3047.5249  0.0018347001629433
             457.36951    0.01403730124668
             103.94869   0.068842606114048
             29.210155    0.23218442062076
              9.286663    0.46794134155879
              3.163927    0.36231203217765
 s    3 1.00
             7.8682724   -0.11933240861517
             1.8812885   -0.16085421161283
             0.5442493     1.1434564825515
 s    1 1.00
             0.1687144                   1
 p    3 1.00
             7.8682724   0.068999095584993
             1.8812885    0.31642397975315
             0.5442493    0.74430825237435
 p    1 1.00
             0.1687144                   1
 d    1 1.00
                   0.8                   1

41 0
 s    3 1.00
             18.731137    0.03349459952309
             2.8253937    0.23472694665786
             0.6401217    0.81375731841339
 s    1 1.00
             0.1612778                   1

42 0
 s    6 1.00
             5484.6717   0.001831099805527
             825.23495   0.013950098518422
             188.04696    0.06844509273075
               52.9645    0.23271427528445
              16.89757    0.47019295006289
             5.7996353    0.35852086192309
 s    3 1.00
             15.539616   -0.11077750382508
             3.5999336   -0.14802630511126
             1.0137618     1.1307670390447
 s    1 1.00
             0.2700058                   1
 p    3 1.00
             15.539616   0.070874299543311
             3.5999336    0.33975279781076
             1.0137618    0.72715859531445
 p    1 1.00
             0.2700058                   1
 d    1 1.00
                   0.8                   1

43 0
 s    3 1.00
             18.731137    0.03349459952309
             2.8253937    0.23472694665786
             0.6401217    0.81375731841339
 s    1 1.00
             0.1612778                   1

[5d]
[7f]
[9g]

[MO]
 Sym= A
 Ene=               0
 Spin= Alpha
 Occup=    1.00000
   1    1.0037146606389e-05
   2    7.7381311842084e-05
   3    -0.001030480761323
   4    2.9067970324326e-05
   5    -2.2500243404677e-05
   6    -1.3736552425587e-05
   7    3.6138630355234e-05
   8    -2.6614857464623e-06
   9    0.00084345030224509
  10    -2.9703405792929e-05
  11    -2.6314603546803e-05
  12    -6.0973287914103e-06
  13    -1.3650919381858e-06
  14    -1.4553164492834e-06
  15    2.3346423251699e-05
  16     2.58079637078e-05
  17    -2.1085086108739e-05
  18    -7.8559336551821e-05
  19    0.0020727876916792
  20    3.4657521829551e-05
  21    1.7720202465358e-05
  22    -7.5179050029294e-05
  23    0.0013218324260442
  24    5.4333790125953e-05
  25    0.00022702664424414
  26    4.0544207773344e-05
  27    -2.4885038026037e-05
  28    6.6251971748362e-06
  29    2.4847131364813e-05
  30    2.5772978536125e-05
  31    3.6732600028845e-05
  32    0.00026058919062747
  33    8.3870976571674e-05
  34    0.00030716727123386
  35    -0.005137954107939
  36    -0.00019905191353584
  37    -1.0450001552728e-05
  38    8.7203922451769e-05
  39    -0.0022969337320334
  40    0.00090845084296189
  41    -0.0010420724225628
  42    2.3545708700275e-05
  43    5.9727477734041e-05
  44    3.5445347046622e-05
  45    -0.00013223878769478
  46    4.3379924734346e-05
  47    -3.7587042406256e-05
  48    -0.00042124667465153
  49    -5.7461504757422e-05
  50    0.00028740377294724
  51    0.0040741369062531
  52    0.00059763739321028
  53    -7.2509364936091e-05
  54    -0.00013531618292088
  55    -0.0040100242266751
  56    0.00077490980022435
  57    0.00035030251046582
  58    -0.000169230052136
  59    1.5445869278876e-05
  60    0.00011205167164908
  61    0.00010307354953951
  62    -4.7532871754214e-05
  63    0.00037827664663233
  64    0.00025029594905693
  65    2.3447290719411e-07
  66    -1.1436966020572e-06
  67    4.605147696027e-08
  68    5.4210774272304e-07
  69    1.2565595763064e-06
  70    -4.1908863913926e-07
  71    6.2246102177255e-07
  72    1.9373866581322e-08
  73    -1.8184494189776e-06
  74    -1.5635563673317e-06
  75    5.5564056876782e-07
  76    -2.5604178501794e-07
  77    -1.8189544377366e-07
  78    -6.1685389258973e-08
  79    -1.1810377742351e-07
  80    -1.8737184405196e-07
  81    -1.9153066059229e-07
  82    -1.3972620361573e-06
  83    -2.3355789913238e-07
  84    -2.0509412406275e-06
  85    -7.1674814306909e-06
  86    3.6039516399619e-07
  87    -7.5659189787513e-07
  88    2.0310576906584e-07
  89    -1.2801108322831e-06
  90    7.2464502742889e-06
  91    4.8288858577427e-06
  92    1.5598967518448e-07
  93    1.0193375049703e-07
  94    -4.8252312554464e-07
  95    3.7623425925912e-07
  96    -1.5053076022729e-07
  97    -9.5456915292655e-07
  98    -1.9131831740753e-06
  99    9.5649671947394e-07
 100    2.1679658426442e-06
 101    6.2309789550433e-07
 102    2.7739104606599e-06
 103    -6.5453615721827e-05
 104    2.3496515850854e-06
 105    4.8195846866372e-07
 106    4.5143441256146e-07
 107    1.2163835302139e-05
 108    -1.3141103571158e-05
 109    4.1396705272331e-05
 110    -5.8984186155241e-07
 111    -1.3857236420689e-06
 112    5.8806535312008e-07
 113    -6.6600942926483e-08
 114    7.1939092280635e-07
 115    -3.4056277230525e-07
 116    -3.0981730969822e-06
 117    2.2157767601318e-05
 118    -2.6681595072992e-07
 119    -9.9580450043557e-07
 120    1.4615984397202e-06
 121    -1.1388203586556e-05
 122    1.4381555935291e-05
 123    -1.6321890147932e-06
 124    -6.2437032255557e-07
 125    -2.8528648724831e-08
 126    9.2221158340272e-07
 127    5.2446390037856e-07
 128    -3.0264070088932e-07
 129    -1.0418940396131e-06
 130    -6.021262922466e-06
 131    4.6216062964829e-05
 132    -3.5245301064947e-06
 133    1.2596263454009e-06
 134    2.3990294196246e-06
 135    7.1844169904859e-05
 136    -1.817217468845e-05
 137    -7.1608282510738e-05
 138    2.3000992373423e-06
 139    7.5120544804987e-07
 140    -1.8813446516271e-06
 141    3.1383582795774e-07
 142    -2.0043770457155e-06
 143    -7.0917626812331e-07
 144    -4.3170633812214e-06
 145    6.2990617345632e-05
 146    -3.9487873782918e-07
 147    -1.6345848142132e-07
 148    -3.767156381661e-06
 149    3.1232776688166e-05
 150    -2.5992798427703e-05
 151    1.0522224191372e-05
 152    1.0136149164834e-07
 153    -2.5741356819133e-07
 154    1.3231782775677e-06
 155    6.7867587625572e-07
 156    -3.2671455581725e-07
 157    -4.7691727168795e-07
 158    -3.907687909702e-06
 159    2.1224724619173e-05
 160    -5.0117534349719e-07
 161    -2.2193042177132e-07
 162    3.4612564314355e-07
 163    1.999980887902e-06
 164    -8.2573176912555e-06
 165    -2.7337980134363e-06
 166    -2.6049890824044e-07
 167    -2.0185120121098e-07
 168    4.5529490683032e-08
 169    -6.0929420195571e-07
 170    -3.7420270643345e-09
 171    2.3024392111718e-08
 172    3.9955073392936e-07
 173    7.5706539305509e-08
 174    6.2112229019831e-07
 175    -5.9662709716517e-08
 176    -1.3175748949072e-06
 177    -1.121820470556e-05
 178    1.3790499371725e-06
 179    -2.0959434838337e-06
 180    1.3300931168533e-07
 181    -1.0935888885771e-06
 182    2.0731085179283e-07
 183    -8.77660569367e-07
 184    -7.4307555136299e-07
 185    4.079854105157e-07
 186    2.653089967353e-06
 187    -2.7162662545499e-05
 188    8.7296885546292e-07
 189    2.9125501226663e-07
 190    1.4936173243469e-06
 191    3.2258734230277e-06
 192    5.8252291288796e-06
 193    1.0979057424065e-05
 194    -5.9674861124304e-07
 195    -7.5960865460362e-07
 196    -7.0372701369965e-07
 197    5.3385650284119e-07
 198    -4.5837733622692e-07
 199    1.1312322474917e-06
 200    -9.9900818792711e-07
 201    5.0179944733959e-07
 202    1.636502901141e-06
 203    6.8833930483065e-07
 204    5.6058426942337e-06
 205    -2.4348186200224e-06
 206    -1.8853471288084e-07
 207    -2.5203203345816e-06
 208    5.1080886391925e-08
 209    -1.1694756660774e-06
 210    -4.049413341982e-06
 211    -8.3219153349609e-07
 212    -1.1298167148267e-06
 213    -7.1151526973476e-07
 214    2.1715723872607e-06
 215    2.4467993905011e-06
 216    -1.253222931263e-05
 217    -8.4777743049857e-07
 218    -2.2578168883731e-06
 219    6.652801435642e-08
 220    3.2455070675489e-06
 221    3.4495480865986e-06
 222    2.0901422375525e-05
 223    -0.00031860428900532
 224    -1.3097496929339e-06
 225    -6.0454136016138e-06
 226    5.546776913934e-06
 227    -9.7934278253808e-05
 228    -3.0852678178381e-05
 229    0.00011213501825533
 230    -6.1662476566382e-06
 231    3.9478676928256e-06
 232    5.0566264441235e-06
 233    -2.0938075998094e-06
 234    -1.8072113329263e-06
 235    -3.5775003054611e-06
 236    -1.8240565113421e-05
 237    0.00046541018506239
 238    5.3891071143734e-06
 239    7.9186386163985e-06
 240    -1.5232647976284e-05
 241    -0.00018694920129789
 242    -5.4942858865322e-05
 243    4.8805204336164e-05
 244    7.881583649804e-06
 245    -3.8960967936284e-06
 246    -6.3889007428465e-06
 247    1.0700173764292e-06
 248    -4.0176534949202e-07
 249    -1.3742607155922e-08
 250    7.2214230541894e-06
 251    6.7742134321754e-07
 252    -1.4065907048081e-07
 253    -0.00029508537771863
 254    4.511586112379e-06
 255    4.4247654572602e-06
 256    2.2143276350152e-05
 257    -0.00019439805171957
 258    -5.6204971085484e-05
 259    -0.00024286648476464
 260    -1.2292491470736e-06
 261    -5.0987170631914e-06
 262    4.4173585157878e-06
 263    3.1957602081879e-06
 264    -6.954338914035e-06
 265    1.4561786554234e-05
 266    5.5804229970521e-06
 267    -1.9405886811674e-05
 268    -6.696233201102e-05
 269    -6.9041319327299e-05
 270    2.1648877264157e-05
 271     0.003194951414175
 272    1.9701433646744e-05
 273    -0.00012313955701612
 274    0.00026823063003021
 275    0.0025512991345042
 276    0.00082715426415573
 277    -0.0028123861035144
 278    -8.0923027966345e-05
 279    -0.00032718454485341
 280    8.4994322344115e-05