[Molden Format]
made by pyscf v[2.0.1]
[Atoms] (AU)
C   1   6     0.69100024066471     0.64692934207205    -3.48223131169301
H   2   1     2.68052439830868     1.13355088658700    -3.25784032593313
C   3   6    -0.36286361513219     0.85440132524594    -5.97030179418974
H   4   1    -2.35448549047279     0.36322488579172    -6.17995817793143
C   5   6     0.93697958957450     1.61209284601821    -8.05828437677121
H   6   1     1.25179717896080     3.62344259528190    -8.36861463213972
C   7   6     1.93299030663405    -0.10622024085708    -9.90534865945394
H   8   1     1.60367989661651    -2.11561190296467    -9.56827000221191
H   9   1     1.55630230933075    -1.92953025305990    12.99630010416247
C   10   6     0.75233899775814    -2.21270439606481    11.10705728102219
H   11   1    -0.43433408177274    -3.90944857546550    11.22216085340412
C   12   6     2.86362581178706    -2.63237380607947     9.17926416456045
H   13   1     4.39038949912609    -1.24955421540245     9.49899813497433
H   14   1     3.74629220191363    -4.48798724300892     9.47414880959024
C   15   6     2.02478325613682    -2.42177285709634     6.44560829588644
C   16   6     3.88048732735477    -3.58795445234514     4.61402886975252
C   17   6    -0.18412382258602    -1.30464291234259     5.76021113872346
C   18   6    -2.10044360464350    -0.26837831858460     7.71610340967100
C   19   6    -3.08956938670431     2.35282328359417     6.88693925039594
C   20   6    -4.37372924086464    -2.09766595989678     7.93610724222001
C   21   6    -0.83850430601230     0.06372213486173    10.33002307638377
H   22   1     0.38411922151109     1.74281358582432    10.27380136542181
H   23   1    -2.30980003007874     0.45460143924521    11.73986301809809
H   24   1     4.58527064644668    -5.38706904487420     5.36778158031719
H   25   1     5.54944938085014    -2.37631462192748     4.35398898413318
H   26   1     3.06633019150423    -3.94118377050688     2.75255466040884
H   27   1    -4.17727778763735     2.26573369139522     5.12914900961283
H   28   1    -1.52662344944051     3.68001877445626     6.59540397144508
H   29   1    -4.32916174397830     3.13643051467482     8.35225460090378
H   30   1    -5.32329548508442    -2.36691813602939     6.11583672749896
H   31   1    -5.77989366602257    -1.33896741843465     9.25748940450990
H   32   1    -3.79310905208926    -3.96389819310853     8.61386170102686
C   33   6    -1.01100794811226    -1.06331657314144     3.11929490449947
C   34   6     0.37686231036534    -0.33275864505552     1.09165013605873
H   35   1    -3.01671213906703    -1.40297922279997     2.77827895090944
C   36   6    -0.64382707979370    -0.11591880174385    -1.42063131251064
H   37   1     2.35569259782137     0.17174499283897     1.33641070251401
H   38   1    -2.63317482980319    -0.60229203511219    -1.66119700387645
C   39   6     3.23483881481583     0.56109494848388   -12.01167590238676
C   40   6     4.17213386166354    -1.33546547775814   -13.78129708499957
H   41   1     3.62751071831436     2.52907164005278   -12.45960989181140
O   42   8     5.35190984410731    -0.86987395658954   -15.70799822813352
H   43   1     3.72751838268070    -3.32497850208065   -13.24806737881206
[GTO]
1 0
 s    6 1.00
             3047.5249  0.0018347001629433
             457.36951    0.01403730124668
             103.94869   0.068842606114048
             29.210155    0.23218442062076
              9.286663    0.46794134155879
              3.163927    0.36231203217765
 s    3 1.00
             7.8682724   -0.11933240861517
             1.8812885   -0.16085421161283
             0.5442493     1.1434564825515
 s    1 1.00
             0.1687144                   1
 p    3 1.00
             7.8682724   0.068999095584993
             1.8812885    0.31642397975315
             0.5442493    0.74430825237435
 p    1 1.00
             0.1687144                   1
 d    1 1.00
                   0.8                   1

2 0
 s    3 1.00
             18.731137    0.03349459952309
             2.8253937    0.23472694665786
             0.6401217    0.81375731841339
 s    1 1.00
             0.1612778                   1

3 0
 s    6 1.00
             3047.5249  0.0018347001629433
             457.36951    0.01403730124668
             103.94869   0.068842606114048
             29.210155    0.23218442062076
              9.286663    0.46794134155879
              3.163927    0.36231203217765
 s    3 1.00
             7.8682724   -0.11933240861517
             1.8812885   -0.16085421161283
             0.5442493     1.1434564825515
 s    1 1.00
             0.1687144                   1
 p    3 1.00
             7.8682724   0.068999095584993
             1.8812885    0.31642397975315
             0.5442493    0.74430825237435
 p    1 1.00
             0.1687144                   1
 d    1 1.00
                   0.8                   1

4 0
 s    3 1.00
             18.731137    0.03349459952309
             2.8253937    0.23472694665786
             0.6401217    0.81375731841339
 s    1 1.00
             0.1612778                   1

5 0
 s    6 1.00
             3047.5249  0.0018347001629433
             457.36951    0.01403730124668
             103.94869   0.068842606114048
             29.210155    0.23218442062076
              9.286663    0.46794134155879
              3.163927    0.36231203217765
 s    3 1.00
             7.8682724   -0.11933240861517
             1.8812885   -0.16085421161283
             0.5442493     1.1434564825515
 s    1 1.00
             0.1687144                   1
 p    3 1.00
             7.8682724   0.068999095584993
             1.8812885    0.31642397975315
             0.5442493    0.74430825237435
 p    1 1.00
             0.1687144                   1
 d    1 1.00
                   0.8                   1

6 0
 s    3 1.00
             18.731137    0.03349459952309
             2.8253937    0.23472694665786
             0.6401217    0.81375731841339
 s    1 1.00
             0.1612778                   1

7 0
 s    6 1.00
             3047.5249  0.0018347001629433
             457.36951    0.01403730124668
             103.94869   0.068842606114048
             29.210155    0.23218442062076
              9.286663    0.46794134155879
              3.163927    0.36231203217765
 s    3 1.00
             7.8682724   -0.11933240861517
             1.8812885   -0.16085421161283
             0.5442493     1.1434564825515
 s    1 1.00
             0.1687144                   1
 p    3 1.00
             7.8682724   0.068999095584993
             1.8812885    0.31642397975315
             0.5442493    0.74430825237435
 p    1 1.00
             0.1687144                   1
 d    1 1.00
                   0.8                   1

8 0
 s    3 1.00
             18.731137    0.03349459952309
             2.8253937    0.23472694665786
             0.6401217    0.81375731841339
 s    1 1.00
             0.1612778                   1

9 0
 s    3 1.00
             18.731137    0.03349459952309
             2.8253937    0.23472694665786
             0.6401217    0.81375731841339
 s    1 1.00
             0.1612778                   1

10 0
 s    6 1.00
             3047.5249  0.0018347001629433
             457.36951    0.01403730124668
             103.94869   0.068842606114048
             29.210155    0.23218442062076
              9.286663    0.46794134155879
              3.163927    0.36231203217765
 s    3 1.00
             7.8682724   -0.11933240861517
             1.8812885   -0.16085421161283
             0.5442493     1.1434564825515
 s    1 1.00
             0.1687144                   1
 p    3 1.00
             7.8682724   0.068999095584993
             1.8812885    0.31642397975315
             0.5442493    0.74430825237435
 p    1 1.00
             0.1687144                   1
 d    1 1.00
                   0.8                   1

11 0
 s    3 1.00
             18.731137    0.03349459952309
             2.8253937    0.23472694665786
             0.6401217    0.81375731841339
 s    1 1.00
             0.1612778                   1

12 0
 s    6 1.00
             3047.5249  0.0018347001629433
             457.36951    0.01403730124668
             103.94869   0.068842606114048
             29.210155    0.23218442062076
              9.286663    0.46794134155879
              3.163927    0.36231203217765
 s    3 1.00
             7.8682724   -0.11933240861517
             1.8812885   -0.16085421161283
             0.5442493     1.1434564825515
 s    1 1.00
             0.1687144                   1
 p    3 1.00
             7.8682724   0.068999095584993
             1.8812885    0.31642397975315
             0.5442493    0.74430825237435
 p    1 1.00
             0.1687144                   1
 d    1 1.00
                   0.8                   1

13 0
 s    3 1.00
             18.731137    0.03349459952309
             2.8253937    0.23472694665786
             0.6401217    0.81375731841339
 s    1 1.00
             0.1612778                   1

14 0
 s    3 1.00
             18.731137    0.03349459952309
             2.8253937    0.23472694665786
             0.6401217    0.81375731841339
 s    1 1.00
             0.1612778                   1

15 0
 s    6 1.00
             3047.5249  0.0018347001629433
             457.36951    0.01403730124668
             103.94869   0.068842606114048
             29.210155    0.23218442062076
              9.286663    0.46794134155879
              3.163927    0.36231203217765
 s    3 1.00
             7.8682724   -0.11933240861517
             1.8812885   -0.16085421161283
             0.5442493     1.1434564825515
 s    1 1.00
             0.1687144                   1
 p    3 1.00
             7.8682724   0.068999095584993
             1.8812885    0.31642397975315
             0.5442493    0.74430825237435
 p    1 1.00
             0.1687144                   1
 d    1 1.00
                   0.8                   1

16 0
 s    6 1.00
             3047.5249  0.0018347001629433
             457.36951    0.01403730124668
             103.94869   0.068842606114048
             29.210155    0.23218442062076
              9.286663    0.46794134155879
              3.163927    0.36231203217765
 s    3 1.00
             7.8682724   -0.11933240861517
             1.8812885   -0.16085421161283
             0.5442493     1.1434564825515
 s    1 1.00
             0.1687144                   1
 p    3 1.00
             7.8682724   0.068999095584993
             1.8812885    0.31642397975315
             0.5442493    0.74430825237435
 p    1 1.00
             0.1687144                   1
 d    1 1.00
                   0.8                   1

17 0
 s    6 1.00
             3047.5249  0.0018347001629433
             457.36951    0.01403730124668
             103.94869   0.068842606114048
             29.210155    0.23218442062076
              9.286663    0.46794134155879
              3.163927    0.36231203217765
 s    3 1.00
             7.8682724   -0.11933240861517
             1.8812885   -0.16085421161283
             0.5442493     1.1434564825515
 s    1 1.00
             0.1687144                   1
 p    3 1.00
             7.8682724   0.068999095584993
             1.8812885    0.31642397975315
             0.5442493    0.74430825237435
 p    1 1.00
             0.1687144                   1
 d    1 1.00
                   0.8                   1

18 0
 s    6 1.00
             3047.5249  0.0018347001629433
             457.36951    0.01403730124668
             103.94869   0.068842606114048
             29.210155    0.23218442062076
              9.286663    0.46794134155879
              3.163927    0.36231203217765
 s    3 1.00
             7.8682724   -0.11933240861517
             1.8812885   -0.16085421161283
             0.5442493     1.1434564825515
 s    1 1.00
             0.1687144                   1
 p    3 1.00
             7.8682724   0.068999095584993
             1.8812885    0.31642397975315
             0.5442493    0.74430825237435
 p    1 1.00
             0.1687144                   1
 d    1 1.00
                   0.8                   1

19 0
 s    6 1.00
             3047.5249  0.0018347001629433
             457.36951    0.01403730124668
             103.94869   0.068842606114048
             29.210155    0.23218442062076
              9.286663    0.46794134155879
              3.163927    0.36231203217765
 s    3 1.00
             7.8682724   -0.11933240861517
             1.8812885   -0.16085421161283
             0.5442493     1.1434564825515
 s    1 1.00
             0.1687144                   1
 p    3 1.00
             7.8682724   0.068999095584993
             1.8812885    0.31642397975315
             0.5442493    0.74430825237435
 p    1 1.00
             0.1687144                   1
 d    1 1.00
                   0.8                   1

20 0
 s    6 1.00
             3047.5249  0.0018347001629433
             457.36951    0.01403730124668
             103.94869   0.068842606114048
             29.210155    0.23218442062076
              9.286663    0.46794134155879
              3.163927    0.36231203217765
 s    3 1.00
             7.8682724   -0.11933240861517
             1.8812885   -0.16085421161283
             0.5442493     1.1434564825515
 s    1 1.00
             0.1687144                   1
 p    3 1.00
             7.8682724   0.068999095584993
             1.8812885    0.31642397975315
             0.5442493    0.74430825237435
 p    1 1.00
             0.1687144                   1
 d    1 1.00
                   0.8                   1

21 0
 s    6 1.00
             3047.5249  0.0018347001629433
             457.36951    0.01403730124668
             103.94869   0.068842606114048
             29.210155    0.23218442062076
              9.286663    0.46794134155879
              3.163927    0.36231203217765
 s    3 1.00
             7.8682724   -0.11933240861517
             1.8812885   -0.16085421161283
             0.5442493     1.1434564825515
 s    1 1.00
             0.1687144                   1
 p    3 1.00
             7.8682724   0.068999095584993
             1.8812885    0.31642397975315
             0.5442493    0.74430825237435
 p    1 1.00
             0.1687144                   1
 d    1 1.00
                   0.8                   1

22 0
 s    3 1.00
             18.731137    0.03349459952309
             2.8253937    0.23472694665786
             0.6401217    0.81375731841339
 s    1 1.00
             0.1612778                   1

23 0
 s    3 1.00
             18.731137    0.03349459952309
             2.8253937    0.23472694665786
             0.6401217    0.81375731841339
 s    1 1.00
             0.1612778                   1

24 0
 s    3 1.00
             18.731137    0.03349459952309
             2.8253937    0.23472694665786
             0.6401217    0.81375731841339
 s    1 1.00
             0.1612778                   1

25 0
 s    3 1.00
             18.731137    0.03349459952309
             2.8253937    0.23472694665786
             0.6401217    0.81375731841339
 s    1 1.00
             0.1612778                   1

26 0
 s    3 1.00
             18.731137    0.03349459952309
             2.8253937    0.23472694665786
             0.6401217    0.81375731841339
 s    1 1.00
             0.1612778                   1

27 0
 s    3 1.00
             18.731137    0.03349459952309
             2.8253937    0.23472694665786
             0.6401217    0.81375731841339
 s    1 1.00
             0.1612778                   1

28 0
 s    3 1.00
             18.731137    0.03349459952309
             2.8253937    0.23472694665786
             0.6401217    0.81375731841339
 s    1 1.00
             0.1612778                   1

29 0
 s    3 1.00
             18.731137    0.03349459952309
             2.8253937    0.23472694665786
             0.6401217    0.81375731841339
 s    1 1.00
             0.1612778                   1

30 0
 s    3 1.00
             18.731137    0.03349459952309
             2.8253937    0.23472694665786
             0.6401217    0.81375731841339
 s    1 1.00
             0.1612778                   1

31 0
 s    3 1.00
             18.731137    0.03349459952309
             2.8253937    0.23472694665786
             0.6401217    0.81375731841339
 s    1 1.00
             0.1612778                   1

32 0
 s    3 1.00
             18.731137    0.03349459952309
             2.8253937    0.23472694665786
             0.6401217    0.81375731841339
 s    1 1.00
             0.1612778                   1

33 0
 s    6 1.00
             3047.5249  0.0018347001629433
             457.36951    0.01403730124668
             103.94869   0.068842606114048
             29.210155    0.23218442062076
              9.286663    0.46794134155879
              3.163927    0.36231203217765
 s    3 1.00
             7.8682724   -0.11933240861517
             1.8812885   -0.16085421161283
             0.5442493     1.1434564825515
 s    1 1.00
             0.1687144                   1
 p    3 1.00
             7.8682724   0.068999095584993
             1.8812885    0.31642397975315
             0.5442493    0.74430825237435
 p    1 1.00
             0.1687144                   1
 d    1 1.00
                   0.8                   1

34 0
 s    6 1.00
             3047.5249  0.0018347001629433
             457.36951    0.01403730124668
             103.94869   0.068842606114048
             29.210155    0.23218442062076
              9.286663    0.46794134155879
              3.163927    0.36231203217765
 s    3 1.00
             7.8682724   -0.11933240861517
             1.8812885   -0.16085421161283
             0.5442493     1.1434564825515
 s    1 1.00
             0.1687144                   1
 p    3 1.00
             7.8682724   0.068999095584993
             1.8812885    0.31642397975315
             0.5442493    0.74430825237435
 p    1 1.00
             0.1687144                   1
 d    1 1.00
                   0.8                   1

35 0
 s    3 1.00
             18.731137    0.03349459952309
             2.8253937    0.23472694665786
             0.6401217    0.81375731841339
 s    1 1.00
             0.1612778                   1

36 0
 s    6 1.00
             3047.5249  0.0018347001629433
             457.36951    0.01403730124668
             103.94869   0.068842606114048
             29.210155    0.23218442062076
              9.286663    0.46794134155879
              3.163927    0.36231203217765
 s    3 1.00
             7.8682724   -0.11933240861517
             1.8812885   -0.16085421161283
             0.5442493     1.1434564825515
 s    1 1.00
             0.1687144                   1
 p    3 1.00
             7.8682724   0.068999095584993
             1.8812885    0.31642397975315
             0.5442493    0.74430825237435
 p    1 1.00
             0.1687144                   1
 d    1 1.00
                   0.8                   1

37 0
 s    3 1.00
             18.731137    0.03349459952309
             2.8253937    0.23472694665786
             0.6401217    0.81375731841339
 s    1 1.00
             0.1612778                   1

38 0
 s    3 1.00
             18.731137    0.03349459952309
             2.8253937    0.23472694665786
             0.6401217    0.81375731841339
 s    1 1.00
             0.1612778                   1

39 0
 s    6 1.00
             3047.5249  0.0018347001629433
             457.36951    0.01403730124668
             103.94869   0.068842606114048
             29.210155    0.23218442062076
              9.286663    0.46794134155879
              3.163927    0.36231203217765
 s    3 1.00
             7.8682724   -0.11933240861517
             1.8812885   -0.16085421161283
             0.5442493     1.1434564825515
 s    1 1.00
             0.1687144                   1
 p    3 1.00
             7.8682724   0.068999095584993
             1.8812885    0.31642397975315
             0.5442493    0.74430825237435
 p    1 1.00
             0.1687144                   1
 d    1 1.00
                   0.8                   1

40 0
 s    6 1.00
             3047.5249  0.0018347001629433
             457.36951    0.01403730124668
             103.94869   0.068842606114048
             29.210155    0.23218442062076
              9.286663    0.46794134155879
              3.163927    0.36231203217765
 s    3 1.00
             7.8682724   -0.11933240861517
             1.8812885   -0.16085421161283
             0.5442493     1.1434564825515
 s    1 1.00
             0.1687144                   1
 p    3 1.00
             7.8682724   0.068999095584993
             1.8812885    0.31642397975315
             0.5442493    0.74430825237435
 p    1 1.00
             0.1687144                   1
 d    1 1.00
                   0.8                   1

41 0
 s    3 1.00
             18.731137    0.03349459952309
             2.8253937    0.23472694665786
             0.6401217    0.81375731841339
 s    1 1.00
             0.1612778                   1

42 0
 s    6 1.00
             5484.6717   0.001831099805527
             825.23495   0.013950098518422
             188.04696    0.06844509273075
               52.9645    0.23271427528445
              16.89757    0.47019295006289
             5.7996353    0.35852086192309
 s    3 1.00
             15.539616   -0.11077750382508
             3.5999336   -0.14802630511126
             1.0137618     1.1307670390447
 s    1 1.00
             0.2700058                   1
 p    3 1.00
             15.539616   0.070874299543311
             3.5999336    0.33975279781076
             1.0137618    0.72715859531445
 p    1 1.00
             0.2700058                   1
 d    1 1.00
                   0.8                   1

43 0
 s    3 1.00
             18.731137    0.03349459952309
             2.8253937    0.23472694665786
             0.6401217    0.81375731841339
 s    1 1.00
             0.1612778                   1

[5d]
[7f]
[9g]

[MO]
 Sym= A
 Ene=               0
 Spin= Alpha
 Occup=    1.00000
   1    3.2553614261952e-07
   2    2.4625692858472e-05
   3    -5.2481377366332e-05
   4    1.709218964523e-06
   5    4.4718336010491e-06
   6    -2.1820855575118e-05
   7    -5.8622460110837e-06
   8    -4.6193029092521e-05
   9    0.00033712419595009
  10    -1.7341548598484e-07
  11    -1.0366187191636e-05
  12    -3.1653441757341e-06
  13    -1.292172876864e-05
  14    6.9986242242892e-06
  15    1.3586822545104e-05
  16    -2.1926185175036e-05
  17    -4.6195855010311e-06
  18    -0.00015724991892676
  19    -0.00045792413683661
  20    -5.5215039581754e-05
  21    5.9868763044364e-06
  22    7.8801993932253e-05
  23    -0.0001507017847842
  24    7.5854365437946e-05
  25    0.00064620836764633
  26    -1.9771279507044e-05
  27    2.1372912657068e-05
  28    -4.2669029095382e-06
  29    -4.1259582516129e-05
  30    8.3264956160426e-06
  31    7.8661238593614e-06
  32    -2.5484942638206e-05
  33    -7.6251109434469e-05
  34    -0.00027930369624576
  35    0.0043699451158301
  36     9.86386475341e-05
  37    -7.8008033234958e-05
  38    -0.00021422081163023
  39    0.00023119576919422
  40    -0.0018953427574929
  41    -0.00066959407945585
  42    3.8231059049758e-05
  43    -9.6821839247294e-05
  44    7.8254218085637e-05
  45    -3.7206704734582e-05
  46    -3.5097848568526e-05
  47    8.9544454072775e-06
  48    0.00024828465520181
  49    5.3502506353084e-05
  50    -0.00030807046497612
  51    -0.0035914371275954
  52    -0.00023932660076158
  53    0.00033644915460245
  54    0.00045845867850936
  55    0.0012659025806641
  56    -0.0024644415412614
  57    -0.0023681535166197
  58    2.5504971469263e-06
  59    -4.2720739449916e-05
  60    -0.00017965813570289
  61    -1.0577485955585e-05
  62    0.00011205505394474
  63    -0.00039430100732068
  64    -0.00013576254080264
  65    2.3327737402917e-07
  66    4.6299416094581e-07
  67    5.2554058971234e-08
  68    4.7338099808446e-07
  69    -2.8995473524017e-06
  70    -2.7053639473149e-07
  71    3.5132199502534e-07
  72    -6.8544774896498e-08
  73    -2.3718337088485e-07
  74    -1.2943315412894e-06
  75    -3.1993813739805e-07
  76    4.8424119198679e-08
  77    1.223771971131e-07
  78    -4.7041671775604e-08
  79    -6.9917856092946e-08
  80    9.6781876216767e-08
  81    -7.2414059529847e-08
  82    4.1248895535759e-10
  83    1.4243124087138e-08
  84    7.4785581029429e-08
  85    1.1043773162157e-05
  86    -4.9272970845665e-07
  87    -1.1507453899792e-07
  88    -6.4571956424182e-07
  89    -3.1168870478287e-06
  90    4.2712329757212e-06
  91    -2.2982223092928e-06
  92    -1.7045263971039e-07
  93    2.8264739932184e-07
  94    -2.6257901389593e-07
  95    -1.4537876476199e-08
  96    1.6673917587883e-07
  97    -3.8850247513371e-07
  98    -2.1744458759675e-07
  99    -5.3450480192476e-08
 100    7.4449382570477e-07
 101    -5.2768302748075e-10
 102    1.2522131546551e-06
 103    -1.395524528347e-05
 104    -7.6720759398012e-07
 105    2.4110879474959e-08
 106    4.011925370863e-07
 107    1.7221468830129e-05
 108    -1.6827225457179e-05
 109    -2.5453200434787e-05
 110    5.2824664604159e-07
 111    4.6127675719567e-07
 112    -2.2987428442221e-07
 113    -4.7062349930889e-07
 114    4.3048275699875e-07
 115    4.9162052542972e-07
 116    4.2925240749022e-06
 117    -3.3763879391853e-05
 118    6.2814333975337e-07
 119    -1.0510604186899e-06
 120    -5.8075254717338e-07
 121    7.2144598272932e-06
 122    -1.7233602414777e-07
 123    -1.3950498965811e-06
 124    4.0975129492045e-08
 125    1.0212255787495e-07
 126    1.2527031305662e-07
 127    -1.3974506319248e-09
 128    3.0859165373974e-07
 129    7.8188456363159e-07
 130    8.3458444236563e-06
 131    -4.1749115608184e-05
 132    1.9157366726495e-07
 133    1.4919854310178e-06
 134    -3.5854254565118e-06
 135    2.3102860558445e-05
 136    -2.2539952599959e-06
 137    6.9408295538098e-05
 138    -2.242302023686e-06
 139    -1.2484820757485e-06
 140    -3.4748194988951e-07
 141    -3.9646963973552e-07
 142    -1.7726797853429e-07
 143    4.0981983116715e-07
 144    2.6074263312008e-06
 145    -1.5052978659342e-05
 146    -5.9440186653457e-07
 147    -6.8585039932227e-07
 148    6.4114613526866e-08
 149    -9.6711213297509e-06
 150    7.1135213207738e-06
 151    1.2460890678521e-06
 152    9.8577493335826e-07
 153    2.8352291307978e-07
 154    4.5330914893981e-08
 155    -6.273078008336e-07
 156    6.1504777278405e-07
 157    1.9801047442991e-08
 158    -8.8581284808803e-07
 159    -2.5348001682658e-06
 160    -7.4974092657586e-07
 161    3.7075944801259e-07
 162    1.0072589573013e-07
 163    5.3992617738955e-06
 164    3.4764165949535e-07
 165    -6.9055395828317e-07
 166    -3.1680015445875e-07
 167    4.3499856349968e-08
 168    2.1669001027941e-08
 169    1.1622140249911e-07
 170    -2.101364954195e-07
 171    -6.7277638351108e-08
 172    4.6312511889406e-07
 173    2.080301558069e-06
 174    7.9059982778489e-07
 175    2.1448251757089e-07
 176    -7.3959577236265e-07
 177    5.0335303585483e-07
 178    -9.8118266426707e-07
 179    2.1026301879669e-06
 180    -1.4947133217225e-07
 181    -1.4384921766136e-07
 182    1.9701643010959e-08
 183    3.4770108590183e-07
 184    -1.3986488416159e-07
 185    2.4125668785802e-07
 186    2.7414963239512e-06
 187    -1.8825148643862e-06
 188    1.4549885145138e-07
 189    -1.367103522811e-07
 190    -1.084848434948e-06
 191    -2.5655259912962e-06
 192    -1.1388589803371e-06
 193    5.1457053672426e-06
 194    -3.5335290306685e-07
 195    6.063367348192e-08
 196    -9.5703048745641e-08
 197    -5.5288025393241e-08
 198    9.0753589013641e-08
 199      7.4861871641e-07
 200    1.4917142221886e-06
 201    -1.6090957143251e-07
 202    -3.3388192071263e-06
 203    1.5626409903382e-06
 204    1.7719135419213e-06
 205    4.6848318716869e-07
 206    2.5471404764502e-06
 207    -1.6485033869455e-06
 208    1.287893009029e-05
 209    -9.6373305002213e-07
 210    3.919266921008e-06
 211    -3.4405447800433e-07
 212    -2.4457609065351e-06
 213    3.310890086654e-07
 214    2.4090283296558e-06
 215    5.1364056937079e-07
 216    -1.8926830667829e-07
 217    -4.1546869295895e-07
 218    -1.2478211182037e-06
 219    -1.6706457460365e-07
 220    -9.5848587215896e-07
 221    8.2521656239641e-07
 222    7.182756232874e-06
 223    1.7801333518408e-06
 224    -7.9467386018208e-07
 225    2.1999002551381e-06
 226    -2.3794929810155e-06
 227    -1.5968591788014e-05
 228    -2.0641686447175e-05
 229    8.0525906704341e-05
 230    1.1769642104077e-06
 231    3.4277588550898e-06
 232    2.0061083342178e-06
 233    -1.5371872327391e-06
 234    -2.7017179827593e-06
 235    1.0715671032348e-06
 236    1.3026356923094e-05
 237    -3.7686041861169e-05
 238    1.6552309119986e-06
 239    -6.3187069669407e-06
 240    -5.2842048432218e-06
 241    2.2162580424758e-05
 242    6.8711949676305e-06
 243    9.2206466270626e-05
 244    -2.5846098265771e-06
 245    -6.3379725744303e-06
 246    -1.9870422476187e-06
 247    -2.284675130177e-06
 248    -1.9693050287673e-06
 249    3.0765034324538e-06
 250    -1.0913191262432e-05
 251    3.9753627749203e-06
 252    2.3172368046502e-05
 253    -0.00018971349882014
 254    -6.2644733380502e-06
 255    7.4066026138843e-06
 256    -4.6099082653686e-06
 257    -8.412790470252e-05
 258    -0.00010834735427814
 259    0.0002156861946203
 260    -6.0725261382557e-07
 261    1.1032369020841e-05
 262    5.3943286876455e-06
 263    -6.376744184267e-06
 264    -6.8305142618106e-06
 265    5.0575025652344e-06
 266    -2.5276421252747e-05
 267    8.1777020160665e-06
 268    -3.7411374501345e-05
 269    6.8497221699911e-05
 270    -2.5134861726545e-05
 271    -0.0031041978091156
 272    0.00012808846425427
 273    0.00023760226593266
 274    -0.0001325049808453
 275    -0.0019513875684152
 276    -0.00058048557606157
 277    0.0032605140338237
 278    -0.00024523684028018
 279    0.00019575108384348