[Molden Format]
made by pyscf v[2.0.1]
[Atoms] (AU)
C   1   6     0.69100024066471     0.64692934207205    -3.48223131169301
H   2   1     2.68052439830868     1.13355088658700    -3.25784032593313
C   3   6    -0.36286361513219     0.85440132524594    -5.97030179418974
H   4   1    -2.35448549047279     0.36322488579172    -6.17995817793143
C   5   6     0.93697958957450     1.61209284601821    -8.05828437677121
H   6   1    -0.10682308805726     2.30253989392639    -9.69373588628611
C   7   6     3.64263503193718     1.55467149193689    -8.23832629511906
H   8   1     4.66272936056768     0.85936926442728    -6.58433578959761
H   9   1     1.55630230933075    -1.92953025305990    12.99630010416247
C   10   6     0.75233899775814    -2.21270439606481    11.10705728102219
H   11   1    -0.43433408177274    -3.90944857546550    11.22216085340412
C   12   6     2.86362581178706    -2.63237380607947     9.17926416456045
H   13   1     4.39038949912609    -1.24955421540245     9.49899813497433
H   14   1     3.74629220191363    -4.48798724300892     9.47414880959024
C   15   6     2.02478325613682    -2.42177285709634     6.44560829588644
C   16   6     3.88048732735477    -3.58795445234514     4.61402886975252
C   17   6    -0.18412382258602    -1.30464291234259     5.76021113872346
C   18   6    -2.10044360464350    -0.26837831858460     7.71610340967100
C   19   6    -3.08956938670431     2.35282328359417     6.88693925039594
C   20   6    -4.37372924086464    -2.09766595989678     7.93610724222001
C   21   6    -0.83850430601230     0.06372213486173    10.33002307638377
H   22   1     0.38411922151109     1.74281358582432    10.27380136542181
H   23   1    -2.30980003007874     0.45460143924521    11.73986301809809
H   24   1     4.58527064644668    -5.38706904487420     5.36778158031719
H   25   1     5.54944938085014    -2.37631462192748     4.35398898413318
H   26   1     3.06633019150423    -3.94118377050688     2.75255466040884
H   27   1    -4.17727778763735     2.26573369139522     5.12914900961283
H   28   1    -1.52662344944051     3.68001877445626     6.59540397144508
H   29   1    -4.32916174397830     3.13643051467482     8.35225460090378
H   30   1    -5.32329548508442    -2.36691813602939     6.11583672749896
H   31   1    -5.77989366602257    -1.33896741843465     9.25748940450990
H   32   1    -3.79310905208926    -3.96389819310853     8.61386170102686
C   33   6    -1.01100794811226    -1.06331657314144     3.11929490449947
C   34   6     0.37686231036534    -0.33275864505552     1.09165013605873
H   35   1    -3.01671213906703    -1.40297922279997     2.77827895090944
C   36   6    -0.64382707979370    -0.11591880174385    -1.42063131251064
H   37   1     2.35569259782137     0.17174499283897     1.33641070251401
H   38   1    -2.63317482980319    -0.60229203511219    -1.66119700387645
C   39   6     5.01588399354044     2.28654094702299   -10.27677863573407
C   40   6     7.77080404832789     2.15450646451281   -10.27454889780196
H   41   1     4.11782812209845     2.99683739506263   -11.98462609656630
O   42   8     9.12060555425099     2.77825484064970   -12.03801083010553
H   43   1     8.60983853061047     1.41663292301779    -8.48800399433497
[GTO]
1 0
 s    6 1.00
             3047.5249  0.0018347001629433
             457.36951    0.01403730124668
             103.94869   0.068842606114048
             29.210155    0.23218442062076
              9.286663    0.46794134155879
              3.163927    0.36231203217765
 s    3 1.00
             7.8682724   -0.11933240861517
             1.8812885   -0.16085421161283
             0.5442493     1.1434564825515
 s    1 1.00
             0.1687144                   1
 p    3 1.00
             7.8682724   0.068999095584993
             1.8812885    0.31642397975315
             0.5442493    0.74430825237435
 p    1 1.00
             0.1687144                   1
 d    1 1.00
                   0.8                   1

2 0
 s    3 1.00
             18.731137    0.03349459952309
             2.8253937    0.23472694665786
             0.6401217    0.81375731841339
 s    1 1.00
             0.1612778                   1

3 0
 s    6 1.00
             3047.5249  0.0018347001629433
             457.36951    0.01403730124668
             103.94869   0.068842606114048
             29.210155    0.23218442062076
              9.286663    0.46794134155879
              3.163927    0.36231203217765
 s    3 1.00
             7.8682724   -0.11933240861517
             1.8812885   -0.16085421161283
             0.5442493     1.1434564825515
 s    1 1.00
             0.1687144                   1
 p    3 1.00
             7.8682724   0.068999095584993
             1.8812885    0.31642397975315
             0.5442493    0.74430825237435
 p    1 1.00
             0.1687144                   1
 d    1 1.00
                   0.8                   1

4 0
 s    3 1.00
             18.731137    0.03349459952309
             2.8253937    0.23472694665786
             0.6401217    0.81375731841339
 s    1 1.00
             0.1612778                   1

5 0
 s    6 1.00
             3047.5249  0.0018347001629433
             457.36951    0.01403730124668
             103.94869   0.068842606114048
             29.210155    0.23218442062076
              9.286663    0.46794134155879
              3.163927    0.36231203217765
 s    3 1.00
             7.8682724   -0.11933240861517
             1.8812885   -0.16085421161283
             0.5442493     1.1434564825515
 s    1 1.00
             0.1687144                   1
 p    3 1.00
             7.8682724   0.068999095584993
             1.8812885    0.31642397975315
             0.5442493    0.74430825237435
 p    1 1.00
             0.1687144                   1
 d    1 1.00
                   0.8                   1

6 0
 s    3 1.00
             18.731137    0.03349459952309
             2.8253937    0.23472694665786
             0.6401217    0.81375731841339
 s    1 1.00
             0.1612778                   1

7 0
 s    6 1.00
             3047.5249  0.0018347001629433
             457.36951    0.01403730124668
             103.94869   0.068842606114048
             29.210155    0.23218442062076
              9.286663    0.46794134155879
              3.163927    0.36231203217765
 s    3 1.00
             7.8682724   -0.11933240861517
             1.8812885   -0.16085421161283
             0.5442493     1.1434564825515
 s    1 1.00
             0.1687144                   1
 p    3 1.00
             7.8682724   0.068999095584993
             1.8812885    0.31642397975315
             0.5442493    0.74430825237435
 p    1 1.00
             0.1687144                   1
 d    1 1.00
                   0.8                   1

8 0
 s    3 1.00
             18.731137    0.03349459952309
             2.8253937    0.23472694665786
             0.6401217    0.81375731841339
 s    1 1.00
             0.1612778                   1

9 0
 s    3 1.00
             18.731137    0.03349459952309
             2.8253937    0.23472694665786
             0.6401217    0.81375731841339
 s    1 1.00
             0.1612778                   1

10 0
 s    6 1.00
             3047.5249  0.0018347001629433
             457.36951    0.01403730124668
             103.94869   0.068842606114048
             29.210155    0.23218442062076
              9.286663    0.46794134155879
              3.163927    0.36231203217765
 s    3 1.00
             7.8682724   -0.11933240861517
             1.8812885   -0.16085421161283
             0.5442493     1.1434564825515
 s    1 1.00
             0.1687144                   1
 p    3 1.00
             7.8682724   0.068999095584993
             1.8812885    0.31642397975315
             0.5442493    0.74430825237435
 p    1 1.00
             0.1687144                   1
 d    1 1.00
                   0.8                   1

11 0
 s    3 1.00
             18.731137    0.03349459952309
             2.8253937    0.23472694665786
             0.6401217    0.81375731841339
 s    1 1.00
             0.1612778                   1

12 0
 s    6 1.00
             3047.5249  0.0018347001629433
             457.36951    0.01403730124668
             103.94869   0.068842606114048
             29.210155    0.23218442062076
              9.286663    0.46794134155879
              3.163927    0.36231203217765
 s    3 1.00
             7.8682724   -0.11933240861517
             1.8812885   -0.16085421161283
             0.5442493     1.1434564825515
 s    1 1.00
             0.1687144                   1
 p    3 1.00
             7.8682724   0.068999095584993
             1.8812885    0.31642397975315
             0.5442493    0.74430825237435
 p    1 1.00
             0.1687144                   1
 d    1 1.00
                   0.8                   1

13 0
 s    3 1.00
             18.731137    0.03349459952309
             2.8253937    0.23472694665786
             0.6401217    0.81375731841339
 s    1 1.00
             0.1612778                   1

14 0
 s    3 1.00
             18.731137    0.03349459952309
             2.8253937    0.23472694665786
             0.6401217    0.81375731841339
 s    1 1.00
             0.1612778                   1

15 0
 s    6 1.00
             3047.5249  0.0018347001629433
             457.36951    0.01403730124668
             103.94869   0.068842606114048
             29.210155    0.23218442062076
              9.286663    0.46794134155879
              3.163927    0.36231203217765
 s    3 1.00
             7.8682724   -0.11933240861517
             1.8812885   -0.16085421161283
             0.5442493     1.1434564825515
 s    1 1.00
             0.1687144                   1
 p    3 1.00
             7.8682724   0.068999095584993
             1.8812885    0.31642397975315
             0.5442493    0.74430825237435
 p    1 1.00
             0.1687144                   1
 d    1 1.00
                   0.8                   1

16 0
 s    6 1.00
             3047.5249  0.0018347001629433
             457.36951    0.01403730124668
             103.94869   0.068842606114048
             29.210155    0.23218442062076
              9.286663    0.46794134155879
              3.163927    0.36231203217765
 s    3 1.00
             7.8682724   -0.11933240861517
             1.8812885   -0.16085421161283
             0.5442493     1.1434564825515
 s    1 1.00
             0.1687144                   1
 p    3 1.00
             7.8682724   0.068999095584993
             1.8812885    0.31642397975315
             0.5442493    0.74430825237435
 p    1 1.00
             0.1687144                   1
 d    1 1.00
                   0.8                   1

17 0
 s    6 1.00
             3047.5249  0.0018347001629433
             457.36951    0.01403730124668
             103.94869   0.068842606114048
             29.210155    0.23218442062076
              9.286663    0.46794134155879
              3.163927    0.36231203217765
 s    3 1.00
             7.8682724   -0.11933240861517
             1.8812885   -0.16085421161283
             0.5442493     1.1434564825515
 s    1 1.00
             0.1687144                   1
 p    3 1.00
             7.8682724   0.068999095584993
             1.8812885    0.31642397975315
             0.5442493    0.74430825237435
 p    1 1.00
             0.1687144                   1
 d    1 1.00
                   0.8                   1

18 0
 s    6 1.00
             3047.5249  0.0018347001629433
             457.36951    0.01403730124668
             103.94869   0.068842606114048
             29.210155    0.23218442062076
              9.286663    0.46794134155879
              3.163927    0.36231203217765
 s    3 1.00
             7.8682724   -0.11933240861517
             1.8812885   -0.16085421161283
             0.5442493     1.1434564825515
 s    1 1.00
             0.1687144                   1
 p    3 1.00
             7.8682724   0.068999095584993
             1.8812885    0.31642397975315
             0.5442493    0.74430825237435
 p    1 1.00
             0.1687144                   1
 d    1 1.00
                   0.8                   1

19 0
 s    6 1.00
             3047.5249  0.0018347001629433
             457.36951    0.01403730124668
             103.94869   0.068842606114048
             29.210155    0.23218442062076
              9.286663    0.46794134155879
              3.163927    0.36231203217765
 s    3 1.00
             7.8682724   -0.11933240861517
             1.8812885   -0.16085421161283
             0.5442493     1.1434564825515
 s    1 1.00
             0.1687144                   1
 p    3 1.00
             7.8682724   0.068999095584993
             1.8812885    0.31642397975315
             0.5442493    0.74430825237435
 p    1 1.00
             0.1687144                   1
 d    1 1.00
                   0.8                   1

20 0
 s    6 1.00
             3047.5249  0.0018347001629433
             457.36951    0.01403730124668
             103.94869   0.068842606114048
             29.210155    0.23218442062076
              9.286663    0.46794134155879
              3.163927    0.36231203217765
 s    3 1.00
             7.8682724   -0.11933240861517
             1.8812885   -0.16085421161283
             0.5442493     1.1434564825515
 s    1 1.00
             0.1687144                   1
 p    3 1.00
             7.8682724   0.068999095584993
             1.8812885    0.31642397975315
             0.5442493    0.74430825237435
 p    1 1.00
             0.1687144                   1
 d    1 1.00
                   0.8                   1

21 0
 s    6 1.00
             3047.5249  0.0018347001629433
             457.36951    0.01403730124668
             103.94869   0.068842606114048
             29.210155    0.23218442062076
              9.286663    0.46794134155879
              3.163927    0.36231203217765
 s    3 1.00
             7.8682724   -0.11933240861517
             1.8812885   -0.16085421161283
             0.5442493     1.1434564825515
 s    1 1.00
             0.1687144                   1
 p    3 1.00
             7.8682724   0.068999095584993
             1.8812885    0.31642397975315
             0.5442493    0.74430825237435
 p    1 1.00
             0.1687144                   1
 d    1 1.00
                   0.8                   1

22 0
 s    3 1.00
             18.731137    0.03349459952309
             2.8253937    0.23472694665786
             0.6401217    0.81375731841339
 s    1 1.00
             0.1612778                   1

23 0
 s    3 1.00
             18.731137    0.03349459952309
             2.8253937    0.23472694665786
             0.6401217    0.81375731841339
 s    1 1.00
             0.1612778                   1

24 0
 s    3 1.00
             18.731137    0.03349459952309
             2.8253937    0.23472694665786
             0.6401217    0.81375731841339
 s    1 1.00
             0.1612778                   1

25 0
 s    3 1.00
             18.731137    0.03349459952309
             2.8253937    0.23472694665786
             0.6401217    0.81375731841339
 s    1 1.00
             0.1612778                   1

26 0
 s    3 1.00
             18.731137    0.03349459952309
             2.8253937    0.23472694665786
             0.6401217    0.81375731841339
 s    1 1.00
             0.1612778                   1

27 0
 s    3 1.00
             18.731137    0.03349459952309
             2.8253937    0.23472694665786
             0.6401217    0.81375731841339
 s    1 1.00
             0.1612778                   1

28 0
 s    3 1.00
             18.731137    0.03349459952309
             2.8253937    0.23472694665786
             0.6401217    0.81375731841339
 s    1 1.00
             0.1612778                   1

29 0
 s    3 1.00
             18.731137    0.03349459952309
             2.8253937    0.23472694665786
             0.6401217    0.81375731841339
 s    1 1.00
             0.1612778                   1

30 0
 s    3 1.00
             18.731137    0.03349459952309
             2.8253937    0.23472694665786
             0.6401217    0.81375731841339
 s    1 1.00
             0.1612778                   1

31 0
 s    3 1.00
             18.731137    0.03349459952309
             2.8253937    0.23472694665786
             0.6401217    0.81375731841339
 s    1 1.00
             0.1612778                   1

32 0
 s    3 1.00
             18.731137    0.03349459952309
             2.8253937    0.23472694665786
             0.6401217    0.81375731841339
 s    1 1.00
             0.1612778                   1

33 0
 s    6 1.00
             3047.5249  0.0018347001629433
             457.36951    0.01403730124668
             103.94869   0.068842606114048
             29.210155    0.23218442062076
              9.286663    0.46794134155879
              3.163927    0.36231203217765
 s    3 1.00
             7.8682724   -0.11933240861517
             1.8812885   -0.16085421161283
             0.5442493     1.1434564825515
 s    1 1.00
             0.1687144                   1
 p    3 1.00
             7.8682724   0.068999095584993
             1.8812885    0.31642397975315
             0.5442493    0.74430825237435
 p    1 1.00
             0.1687144                   1
 d    1 1.00
                   0.8                   1

34 0
 s    6 1.00
             3047.5249  0.0018347001629433
             457.36951    0.01403730124668
             103.94869   0.068842606114048
             29.210155    0.23218442062076
              9.286663    0.46794134155879
              3.163927    0.36231203217765
 s    3 1.00
             7.8682724   -0.11933240861517
             1.8812885   -0.16085421161283
             0.5442493     1.1434564825515
 s    1 1.00
             0.1687144                   1
 p    3 1.00
             7.8682724   0.068999095584993
             1.8812885    0.31642397975315
             0.5442493    0.74430825237435
 p    1 1.00
             0.1687144                   1
 d    1 1.00
                   0.8                   1

35 0
 s    3 1.00
             18.731137    0.03349459952309
             2.8253937    0.23472694665786
             0.6401217    0.81375731841339
 s    1 1.00
             0.1612778                   1

36 0
 s    6 1.00
             3047.5249  0.0018347001629433
             457.36951    0.01403730124668
             103.94869   0.068842606114048
             29.210155    0.23218442062076
              9.286663    0.46794134155879
              3.163927    0.36231203217765
 s    3 1.00
             7.8682724   -0.11933240861517
             1.8812885   -0.16085421161283
             0.5442493     1.1434564825515
 s    1 1.00
             0.1687144                   1
 p    3 1.00
             7.8682724   0.068999095584993
             1.8812885    0.31642397975315
             0.5442493    0.74430825237435
 p    1 1.00
             0.1687144                   1
 d    1 1.00
                   0.8                   1

37 0
 s    3 1.00
             18.731137    0.03349459952309
             2.8253937    0.23472694665786
             0.6401217    0.81375731841339
 s    1 1.00
             0.1612778                   1

38 0
 s    3 1.00
             18.731137    0.03349459952309
             2.8253937    0.23472694665786
             0.6401217    0.81375731841339
 s    1 1.00
             0.1612778                   1

39 0
 s    6 1.00
             3047.5249  0.0018347001629433
             457.36951    0.01403730124668
             103.94869   0.068842606114048
             29.210155    0.23218442062076
              9.286663    0.46794134155879
              3.163927    0.36231203217765
 s    3 1.00
             7.8682724   -0.11933240861517
             1.8812885   -0.16085421161283
             0.5442493     1.1434564825515
 s    1 1.00
             0.1687144                   1
 p    3 1.00
             7.8682724   0.068999095584993
             1.8812885    0.31642397975315
             0.5442493    0.74430825237435
 p    1 1.00
             0.1687144                   1
 d    1 1.00
                   0.8                   1

40 0
 s    6 1.00
             3047.5249  0.0018347001629433
             457.36951    0.01403730124668
             103.94869   0.068842606114048
             29.210155    0.23218442062076
              9.286663    0.46794134155879
              3.163927    0.36231203217765
 s    3 1.00
             7.8682724   -0.11933240861517
             1.8812885   -0.16085421161283
             0.5442493     1.1434564825515
 s    1 1.00
             0.1687144                   1
 p    3 1.00
             7.8682724   0.068999095584993
             1.8812885    0.31642397975315
             0.5442493    0.74430825237435
 p    1 1.00
             0.1687144                   1
 d    1 1.00
                   0.8                   1

41 0
 s    3 1.00
             18.731137    0.03349459952309
             2.8253937    0.23472694665786
             0.6401217    0.81375731841339
 s    1 1.00
             0.1612778                   1

42 0
 s    6 1.00
             5484.6717   0.001831099805527
             825.23495   0.013950098518422
             188.04696    0.06844509273075
               52.9645    0.23271427528445
              16.89757    0.47019295006289
             5.7996353    0.35852086192309
 s    3 1.00
             15.539616   -0.11077750382508
             3.5999336   -0.14802630511126
             1.0137618     1.1307670390447
 s    1 1.00
             0.2700058                   1
 p    3 1.00
             15.539616   0.070874299543311
             3.5999336    0.33975279781076
             1.0137618    0.72715859531445
 p    1 1.00
             0.2700058                   1
 d    1 1.00
                   0.8                   1

43 0
 s    3 1.00
             18.731137    0.03349459952309
             2.8253937    0.23472694665786
             0.6401217    0.81375731841339
 s    1 1.00
             0.1612778                   1

[5d]
[7f]
[9g]

[MO]
 Sym= A
 Ene=               0
 Spin= Alpha
 Occup=    1.00000
   1    1.2953719484066e-05
   2    9.1842922090699e-05
   3    -0.0012493637050695
   4    3.4200720287948e-05
   5    -1.5245423482144e-05
   6    -1.8219020992343e-05
   7    3.8576145896816e-05
   8    -0.00010016081116428
   9    0.0012302558773411
  10    -3.7697153323573e-05
  11    -3.769681509182e-05
  12    -4.79104787939e-06
  13    -4.4598655469581e-06
  14    1.2055568889272e-06
  15    3.6981137044155e-05
  16    -2.309911395991e-06
  17    -2.8558268083707e-05
  18    -0.00013969179113849
  19    0.0026174751370554
  20    2.6594320502757e-05
  21    1.8671162224825e-05
  22    -8.0344923011098e-05
  23    0.0016731581556396
  24    0.00016521194526582
  25    0.00042013419731883
  26    4.5930325454318e-05
  27    -2.4804268502383e-05
  28    -3.4051253004411e-06
  29    2.609903135167e-05
  30    2.586289812155e-05
  31    5.5635646798086e-05
  32    0.00035204610839447
  33    8.9290475512894e-05
  34    0.0003434711464362
  35    -0.0055920150121418
  36    -0.00019212186906455
  37    -2.9437055940535e-05
  38    7.8659537393211e-05
  39    -0.0025934807544435
  40    0.0005781452501893
  41    -0.0014225532541051
  42    2.0826142659975e-05
  43    4.598980377774e-05
  44    4.1342396282579e-05
  45    -0.00015168471873212
  46    5.8807114265805e-06
  47    -5.1335977296533e-05
  48    -0.00050752261033091
  49    -5.9284467828362e-05
  50    0.00027760278199794
  51    0.0042510757868625
  52    0.00061086897897984
  53    2.0576937851942e-06
  54    -0.0001067524163376
  55    -0.0043751496000816
  56    0.00019596374611062
  57    0.00019983083483837
  58    -0.00018959537828553
  59    2.617258800921e-05
  60    9.7149550412594e-05
  61    0.00011166450195391
  62    -2.3196967528892e-05
  63    0.00036612737083363
  64    0.00030052583582759
  65    3.248536691336e-07
  66    -1.4507507973171e-06
  67    8.3877803532279e-08
  68    9.0693501036156e-07
  69    9.3849073090504e-07
  70    -6.270387836105e-07
  71    9.1022516875627e-07
  72    -5.7614578183948e-08
  73    -2.4167785352552e-06
  74    -2.2400211627383e-06
  75    1.0139994463775e-06
  76    -3.1452974148622e-07
  77    -1.9344292621547e-07
  78    -8.5687125639673e-08
  79    -1.5702063719056e-07
  80    -1.9537710262834e-07
  81    -2.6857211138611e-07
  82    -1.7034574166992e-06
  83    -2.8812832980622e-07
  84    -2.4614079293095e-06
  85    -3.4232156561177e-06
  86    2.2407149255817e-07
  87    -8.5265264629253e-07
  88    -3.0727397075099e-08
  89    -2.5844213374462e-06
  90    1.0223221567704e-05
  91    4.4208730194551e-06
  92    1.4840782394728e-07
  93    2.1879264574736e-07
  94    -7.2368773597609e-07
  95    4.4357960484758e-07
  96    -1.1428331730709e-07
  97    -1.3406094216398e-06
  98    -2.2738683806654e-06
  99    1.0850112327905e-06
 100    2.7655634424444e-06
 101    7.2432465445954e-07
 102    3.4198154180684e-06
 103    -8.2135405858043e-05
 104    2.4503625618574e-06
 105    5.3418640736285e-07
 106    9.1521079438314e-07
 107    2.0168263520716e-05
 108    -2.2901278556186e-05
 109    3.8465450035208e-05
 110    -5.9915230330075e-07
 111    -1.5415135625421e-06
 112    6.5752445293034e-07
 113    1.3610893969929e-08
 114    1.0936057523726e-06
 115    -3.1112053666794e-07
 116    -2.8670761497086e-06
 117    1.7162520440775e-05
 118    -1.4063194194189e-07
 119    -1.4732305225835e-06
 120    1.5147291758165e-06
 121    -1.0444742358952e-05
 122    1.6675604735691e-05
 123    -4.2707926576399e-06
 124    -7.2287512248749e-07
 125    1.1324735928094e-07
 126    1.1202978614501e-06
 127    5.2511295384019e-07
 128    -2.0560863332481e-07
 129    -1.0037037703413e-06
 130    -5.1471793299212e-06
 131     3.15072322134e-05
 132    -4.5192142422076e-06
 133    1.1427959838306e-06
 134    2.3178633965459e-06
 135    9.6614421896819e-05
 136    -1.8510962068243e-05
 137    -5.6891663381684e-05
 138    1.9732207027116e-06
 139    3.1020831989861e-07
 140    -2.5198969044939e-06
 141    2.4303663439861e-07
 142    -2.4824915370672e-06
 143    -6.1161072515358e-07
 144    -3.2877678511092e-06
 145    6.7127560749064e-05
 146    -5.5589642318907e-07
 147    -2.1702553308536e-08
 148    -4.875272551078e-06
 149    3.2829583701207e-05
 150    -3.3680041584422e-05
 151    1.700637582928e-05
 152    3.7838578529623e-07
 153    -1.6103243385936e-07
 154    1.7919944677708e-06
 155    6.3793612047516e-07
 156    -7.6590779131332e-09
 157    -6.5303523831334e-07
 158    -5.5459769272164e-06
 159    2.9478730663447e-05
 160    -7.7651396516319e-07
 161    -3.6215304641396e-07
 162    7.2107815527639e-07
 163    5.6786155370225e-06
 164    -1.1686161584981e-05
 165    -3.8594361601495e-06
 166    -5.8170262879132e-07
 167    -7.1578004256684e-08
 168    2.2009440496327e-08
 169    -7.630080059945e-07
 170    -1.9141589453838e-07
 171    1.8516988361287e-08
 172    5.9602542768837e-07
 173    -7.623400161848e-08
 174    9.8145307263471e-07
 175    4.120542121096e-08
 176    -1.8933908701549e-06
 177    -1.4969364161707e-05
 178    5.3797713238958e-07
 179    -2.986051270239e-06
 180    1.7589152347211e-07
 181    -1.4622056652887e-06
 182    2.0128189264173e-07
 183    -1.0255270049118e-06
 184    -1.0520215942316e-06
 185    5.9882053133195e-07
 186    4.3732681944161e-06
 187    -3.4546477271621e-05
 188    1.1609373664546e-06
 189    3.2713289506799e-07
 190    1.3887776435792e-06
 191    3.4945601589028e-06
 192    7.8039491610898e-06
 193    1.5035624068635e-05
 194    -7.7313482971263e-07
 195    -9.4942928470088e-07
 196    -1.0726530306734e-06
 197    6.1911879722379e-07
 198    -5.4596475462711e-07
 199    1.6332962178555e-06
 200    -1.1191932186592e-06
 201    5.9290951556219e-07
 202    9.3233748657017e-07
 203    1.1706952678954e-06
 204    7.0188576641259e-06
 205    -2.858332830234e-06
 206    4.4623252580111e-09
 207    -2.9195714231289e-06
 208    4.7583646587213e-07
 209    -2.041895922833e-06
 210    -3.5860767492995e-06
 211    -1.3956090339912e-06
 212    -2.5480870997702e-06
 213    -7.7604197456092e-07
 214    3.6456001962902e-06
 215    3.3952890363799e-06
 216    -1.7585778038147e-05
 217    -1.1630683079926e-06
 218    -3.0551852016975e-06
 219    -8.4435667480807e-08
 220    3.8873980015472e-06
 221    4.621462679037e-06
 222    2.8879927366672e-05
 223    -0.00039743967784462
 224    -3.0671324188133e-06
 225    -5.5731389765419e-06
 226    5.7846348981782e-06
 227    -0.00011574280816353
 228    -4.9093982523742e-05
 229    0.00018652437013446
 230    -7.6545991814363e-06
 231    6.6816855458891e-06
 232    6.977937785825e-06
 233    -3.2147731159534e-06
 234    -3.0346620319891e-06
 235    -4.7473269742263e-06
 236    -2.2534851130787e-05
 237    0.00062589976186086
 238    7.554176149899e-06
 239    8.6988650441828e-06
 240    -2.1608198247669e-05
 241    -0.0002428366671567
 242    -7.0501561735245e-05
 243    5.9538813101963e-05
 244    1.1332109812045e-05
 245    -6.5933011696403e-06
 246    -7.8501776289659e-06
 247    4.8991934051514e-07
 248    -2.8493415545991e-08
 249    2.5198202991662e-06
 250    1.1751196492373e-05
 251    2.8168358811264e-06
 252    1.3893237559846e-05
 253    -0.00053996695958874
 254    7.642796315524e-06
 255    3.5072431955336e-06
 256    2.7347682394045e-05
 257    -0.00032947525835548
 258    -8.8225994198385e-05
 259    -0.00024150672430815
 260    -4.0881385736672e-06
 261    -1.70643617205e-06
 262    6.2709594647857e-06
 263    -3.4553524894313e-07
 264    -8.4130429991047e-06
 265    1.8523137750659e-05
 266    5.1993840895758e-06
 267    -2.3861062332378e-05
 268    -0.00010659672470047
 269    -7.0439126026311e-05
 270    1.2642223674286e-05
 271     0.003353239505882
 272    1.4284776736249e-05
 273    -9.9005117519804e-05
 274    0.0002781204005518
 275    0.0026265941295543
 276    0.00090145808648167
 277    -0.0026724714617167
 278    -0.00011807664766438
 279    -0.00032973726790666
 280    4.0182167101805e-05