[Molden Format]
made by pyscf v[2.0.1]
[Atoms] (AU)
C   1   6     0.69100024066471     0.64692934207205    -3.48223131169301
H   2   1     2.68052439830868     1.13355088658700    -3.25784032593313
C   3   6    -0.36286361513219     0.85440132524594    -5.97030179418974
H   4   1    -2.35448549047279     0.36322488579172    -6.17995817793143
C   5   6     0.93697958957450     1.61209284601821    -8.05828437677121
H   6   1    -0.04002876534153     1.70579051152009    -9.86870372539436
C   7   6     3.55882871340184     2.30532870411993    -8.01809862923490
H   8   1     4.51217335653741     2.20318273111775    -6.19041637810672
H   9   1     1.55630230933075    -1.92953025305990    12.99630010416247
C   10   6     0.75233899775814    -2.21270439606481    11.10705728102219
H   11   1    -0.43433408177274    -3.90944857546550    11.22216085340412
C   12   6     2.86362581178706    -2.63237380607947     9.17926416456045
H   13   1     4.39038949912609    -1.24955421540245     9.49899813497433
H   14   1     3.74629220191363    -4.48798724300892     9.47414880959024
C   15   6     2.02478325613682    -2.42177285709634     6.44560829588644
C   16   6     3.88048732735477    -3.58795445234514     4.61402886975252
C   17   6    -0.18412382258602    -1.30464291234259     5.76021113872346
C   18   6    -2.10044360464350    -0.26837831858460     7.71610340967100
C   19   6    -3.08956938670431     2.35282328359417     6.88693925039594
C   20   6    -4.37372924086464    -2.09766595989678     7.93610724222001
C   21   6    -0.83850430601230     0.06372213486173    10.33002307638377
H   22   1     0.38411922151109     1.74281358582432    10.27380136542181
H   23   1    -2.30980003007874     0.45460143924521    11.73986301809809
H   24   1     4.58527064644668    -5.38706904487420     5.36778158031719
H   25   1     5.54944938085014    -2.37631462192748     4.35398898413318
H   26   1     3.06633019150423    -3.94118377050688     2.75255466040884
H   27   1    -4.17727778763735     2.26573369139522     5.12914900961283
H   28   1    -1.52662344944051     3.68001877445626     6.59540397144508
H   29   1    -4.32916174397830     3.13643051467482     8.35225460090378
H   30   1    -5.32329548508442    -2.36691813602939     6.11583672749896
H   31   1    -5.77989366602257    -1.33896741843465     9.25748940450990
H   32   1    -3.79310905208926    -3.96389819310853     8.61386170102686
C   33   6    -1.01100794811226    -1.06331657314144     3.11929490449947
C   34   6     0.37686231036534    -0.33275864505552     1.09165013605873
H   35   1    -3.01671213906703    -1.40297922279997     2.77827895090944
C   36   6    -0.64382707979370    -0.11591880174385    -1.42063131251064
H   37   1     2.35569259782137     0.17174499283897     1.33641070251401
H   38   1    -2.63317482980319    -0.60229203511219    -1.66119700387645
C   39   6     4.92949292707610     3.06752929189425   -10.04715344157890
C   40   6     7.59555456141448     3.73329481661799    -9.81073387339210
H   41   1     4.09542353861424     3.21030697797155   -11.92110945203513
O   42   8     8.93835728030826     4.43020973545744   -11.55200196938216
H   43   1     8.37079058468688     3.56000927179912    -7.85902689076443
[GTO]
1 0
 s    6 1.00
             3047.5249  0.0018347001629433
             457.36951    0.01403730124668
             103.94869   0.068842606114048
             29.210155    0.23218442062076
              9.286663    0.46794134155879
              3.163927    0.36231203217765
 s    3 1.00
             7.8682724   -0.11933240861517
             1.8812885   -0.16085421161283
             0.5442493     1.1434564825515
 s    1 1.00
             0.1687144                   1
 p    3 1.00
             7.8682724   0.068999095584993
             1.8812885    0.31642397975315
             0.5442493    0.74430825237435
 p    1 1.00
             0.1687144                   1
 d    1 1.00
                   0.8                   1

2 0
 s    3 1.00
             18.731137    0.03349459952309
             2.8253937    0.23472694665786
             0.6401217    0.81375731841339
 s    1 1.00
             0.1612778                   1

3 0
 s    6 1.00
             3047.5249  0.0018347001629433
             457.36951    0.01403730124668
             103.94869   0.068842606114048
             29.210155    0.23218442062076
              9.286663    0.46794134155879
              3.163927    0.36231203217765
 s    3 1.00
             7.8682724   -0.11933240861517
             1.8812885   -0.16085421161283
             0.5442493     1.1434564825515
 s    1 1.00
             0.1687144                   1
 p    3 1.00
             7.8682724   0.068999095584993
             1.8812885    0.31642397975315
             0.5442493    0.74430825237435
 p    1 1.00
             0.1687144                   1
 d    1 1.00
                   0.8                   1

4 0
 s    3 1.00
             18.731137    0.03349459952309
             2.8253937    0.23472694665786
             0.6401217    0.81375731841339
 s    1 1.00
             0.1612778                   1

5 0
 s    6 1.00
             3047.5249  0.0018347001629433
             457.36951    0.01403730124668
             103.94869   0.068842606114048
             29.210155    0.23218442062076
              9.286663    0.46794134155879
              3.163927    0.36231203217765
 s    3 1.00
             7.8682724   -0.11933240861517
             1.8812885   -0.16085421161283
             0.5442493     1.1434564825515
 s    1 1.00
             0.1687144                   1
 p    3 1.00
             7.8682724   0.068999095584993
             1.8812885    0.31642397975315
             0.5442493    0.74430825237435
 p    1 1.00
             0.1687144                   1
 d    1 1.00
                   0.8                   1

6 0
 s    3 1.00
             18.731137    0.03349459952309
             2.8253937    0.23472694665786
             0.6401217    0.81375731841339
 s    1 1.00
             0.1612778                   1

7 0
 s    6 1.00
             3047.5249  0.0018347001629433
             457.36951    0.01403730124668
             103.94869   0.068842606114048
             29.210155    0.23218442062076
              9.286663    0.46794134155879
              3.163927    0.36231203217765
 s    3 1.00
             7.8682724   -0.11933240861517
             1.8812885   -0.16085421161283
             0.5442493     1.1434564825515
 s    1 1.00
             0.1687144                   1
 p    3 1.00
             7.8682724   0.068999095584993
             1.8812885    0.31642397975315
             0.5442493    0.74430825237435
 p    1 1.00
             0.1687144                   1
 d    1 1.00
                   0.8                   1

8 0
 s    3 1.00
             18.731137    0.03349459952309
             2.8253937    0.23472694665786
             0.6401217    0.81375731841339
 s    1 1.00
             0.1612778                   1

9 0
 s    3 1.00
             18.731137    0.03349459952309
             2.8253937    0.23472694665786
             0.6401217    0.81375731841339
 s    1 1.00
             0.1612778                   1

10 0
 s    6 1.00
             3047.5249  0.0018347001629433
             457.36951    0.01403730124668
             103.94869   0.068842606114048
             29.210155    0.23218442062076
              9.286663    0.46794134155879
              3.163927    0.36231203217765
 s    3 1.00
             7.8682724   -0.11933240861517
             1.8812885   -0.16085421161283
             0.5442493     1.1434564825515
 s    1 1.00
             0.1687144                   1
 p    3 1.00
             7.8682724   0.068999095584993
             1.8812885    0.31642397975315
             0.5442493    0.74430825237435
 p    1 1.00
             0.1687144                   1
 d    1 1.00
                   0.8                   1

11 0
 s    3 1.00
             18.731137    0.03349459952309
             2.8253937    0.23472694665786
             0.6401217    0.81375731841339
 s    1 1.00
             0.1612778                   1

12 0
 s    6 1.00
             3047.5249  0.0018347001629433
             457.36951    0.01403730124668
             103.94869   0.068842606114048
             29.210155    0.23218442062076
              9.286663    0.46794134155879
              3.163927    0.36231203217765
 s    3 1.00
             7.8682724   -0.11933240861517
             1.8812885   -0.16085421161283
             0.5442493     1.1434564825515
 s    1 1.00
             0.1687144                   1
 p    3 1.00
             7.8682724   0.068999095584993
             1.8812885    0.31642397975315
             0.5442493    0.74430825237435
 p    1 1.00
             0.1687144                   1
 d    1 1.00
                   0.8                   1

13 0
 s    3 1.00
             18.731137    0.03349459952309
             2.8253937    0.23472694665786
             0.6401217    0.81375731841339
 s    1 1.00
             0.1612778                   1

14 0
 s    3 1.00
             18.731137    0.03349459952309
             2.8253937    0.23472694665786
             0.6401217    0.81375731841339
 s    1 1.00
             0.1612778                   1

15 0
 s    6 1.00
             3047.5249  0.0018347001629433
             457.36951    0.01403730124668
             103.94869   0.068842606114048
             29.210155    0.23218442062076
              9.286663    0.46794134155879
              3.163927    0.36231203217765
 s    3 1.00
             7.8682724   -0.11933240861517
             1.8812885   -0.16085421161283
             0.5442493     1.1434564825515
 s    1 1.00
             0.1687144                   1
 p    3 1.00
             7.8682724   0.068999095584993
             1.8812885    0.31642397975315
             0.5442493    0.74430825237435
 p    1 1.00
             0.1687144                   1
 d    1 1.00
                   0.8                   1

16 0
 s    6 1.00
             3047.5249  0.0018347001629433
             457.36951    0.01403730124668
             103.94869   0.068842606114048
             29.210155    0.23218442062076
              9.286663    0.46794134155879
              3.163927    0.36231203217765
 s    3 1.00
             7.8682724   -0.11933240861517
             1.8812885   -0.16085421161283
             0.5442493     1.1434564825515
 s    1 1.00
             0.1687144                   1
 p    3 1.00
             7.8682724   0.068999095584993
             1.8812885    0.31642397975315
             0.5442493    0.74430825237435
 p    1 1.00
             0.1687144                   1
 d    1 1.00
                   0.8                   1

17 0
 s    6 1.00
             3047.5249  0.0018347001629433
             457.36951    0.01403730124668
             103.94869   0.068842606114048
             29.210155    0.23218442062076
              9.286663    0.46794134155879
              3.163927    0.36231203217765
 s    3 1.00
             7.8682724   -0.11933240861517
             1.8812885   -0.16085421161283
             0.5442493     1.1434564825515
 s    1 1.00
             0.1687144                   1
 p    3 1.00
             7.8682724   0.068999095584993
             1.8812885    0.31642397975315
             0.5442493    0.74430825237435
 p    1 1.00
             0.1687144                   1
 d    1 1.00
                   0.8                   1

18 0
 s    6 1.00
             3047.5249  0.0018347001629433
             457.36951    0.01403730124668
             103.94869   0.068842606114048
             29.210155    0.23218442062076
              9.286663    0.46794134155879
              3.163927    0.36231203217765
 s    3 1.00
             7.8682724   -0.11933240861517
             1.8812885   -0.16085421161283
             0.5442493     1.1434564825515
 s    1 1.00
             0.1687144                   1
 p    3 1.00
             7.8682724   0.068999095584993
             1.8812885    0.31642397975315
             0.5442493    0.74430825237435
 p    1 1.00
             0.1687144                   1
 d    1 1.00
                   0.8                   1

19 0
 s    6 1.00
             3047.5249  0.0018347001629433
             457.36951    0.01403730124668
             103.94869   0.068842606114048
             29.210155    0.23218442062076
              9.286663    0.46794134155879
              3.163927    0.36231203217765
 s    3 1.00
             7.8682724   -0.11933240861517
             1.8812885   -0.16085421161283
             0.5442493     1.1434564825515
 s    1 1.00
             0.1687144                   1
 p    3 1.00
             7.8682724   0.068999095584993
             1.8812885    0.31642397975315
             0.5442493    0.74430825237435
 p    1 1.00
             0.1687144                   1
 d    1 1.00
                   0.8                   1

20 0
 s    6 1.00
             3047.5249  0.0018347001629433
             457.36951    0.01403730124668
             103.94869   0.068842606114048
             29.210155    0.23218442062076
              9.286663    0.46794134155879
              3.163927    0.36231203217765
 s    3 1.00
             7.8682724   -0.11933240861517
             1.8812885   -0.16085421161283
             0.5442493     1.1434564825515
 s    1 1.00
             0.1687144                   1
 p    3 1.00
             7.8682724   0.068999095584993
             1.8812885    0.31642397975315
             0.5442493    0.74430825237435
 p    1 1.00
             0.1687144                   1
 d    1 1.00
                   0.8                   1

21 0
 s    6 1.00
             3047.5249  0.0018347001629433
             457.36951    0.01403730124668
             103.94869   0.068842606114048
             29.210155    0.23218442062076
              9.286663    0.46794134155879
              3.163927    0.36231203217765
 s    3 1.00
             7.8682724   -0.11933240861517
             1.8812885   -0.16085421161283
             0.5442493     1.1434564825515
 s    1 1.00
             0.1687144                   1
 p    3 1.00
             7.8682724   0.068999095584993
             1.8812885    0.31642397975315
             0.5442493    0.74430825237435
 p    1 1.00
             0.1687144                   1
 d    1 1.00
                   0.8                   1

22 0
 s    3 1.00
             18.731137    0.03349459952309
             2.8253937    0.23472694665786
             0.6401217    0.81375731841339
 s    1 1.00
             0.1612778                   1

23 0
 s    3 1.00
             18.731137    0.03349459952309
             2.8253937    0.23472694665786
             0.6401217    0.81375731841339
 s    1 1.00
             0.1612778                   1

24 0
 s    3 1.00
             18.731137    0.03349459952309
             2.8253937    0.23472694665786
             0.6401217    0.81375731841339
 s    1 1.00
             0.1612778                   1

25 0
 s    3 1.00
             18.731137    0.03349459952309
             2.8253937    0.23472694665786
             0.6401217    0.81375731841339
 s    1 1.00
             0.1612778                   1

26 0
 s    3 1.00
             18.731137    0.03349459952309
             2.8253937    0.23472694665786
             0.6401217    0.81375731841339
 s    1 1.00
             0.1612778                   1

27 0
 s    3 1.00
             18.731137    0.03349459952309
             2.8253937    0.23472694665786
             0.6401217    0.81375731841339
 s    1 1.00
             0.1612778                   1

28 0
 s    3 1.00
             18.731137    0.03349459952309
             2.8253937    0.23472694665786
             0.6401217    0.81375731841339
 s    1 1.00
             0.1612778                   1

29 0
 s    3 1.00
             18.731137    0.03349459952309
             2.8253937    0.23472694665786
             0.6401217    0.81375731841339
 s    1 1.00
             0.1612778                   1

30 0
 s    3 1.00
             18.731137    0.03349459952309
             2.8253937    0.23472694665786
             0.6401217    0.81375731841339
 s    1 1.00
             0.1612778                   1

31 0
 s    3 1.00
             18.731137    0.03349459952309
             2.8253937    0.23472694665786
             0.6401217    0.81375731841339
 s    1 1.00
             0.1612778                   1

32 0
 s    3 1.00
             18.731137    0.03349459952309
             2.8253937    0.23472694665786
             0.6401217    0.81375731841339
 s    1 1.00
             0.1612778                   1

33 0
 s    6 1.00
             3047.5249  0.0018347001629433
             457.36951    0.01403730124668
             103.94869   0.068842606114048
             29.210155    0.23218442062076
              9.286663    0.46794134155879
              3.163927    0.36231203217765
 s    3 1.00
             7.8682724   -0.11933240861517
             1.8812885   -0.16085421161283
             0.5442493     1.1434564825515
 s    1 1.00
             0.1687144                   1
 p    3 1.00
             7.8682724   0.068999095584993
             1.8812885    0.31642397975315
             0.5442493    0.74430825237435
 p    1 1.00
             0.1687144                   1
 d    1 1.00
                   0.8                   1

34 0
 s    6 1.00
             3047.5249  0.0018347001629433
             457.36951    0.01403730124668
             103.94869   0.068842606114048
             29.210155    0.23218442062076
              9.286663    0.46794134155879
              3.163927    0.36231203217765
 s    3 1.00
             7.8682724   -0.11933240861517
             1.8812885   -0.16085421161283
             0.5442493     1.1434564825515
 s    1 1.00
             0.1687144                   1
 p    3 1.00
             7.8682724   0.068999095584993
             1.8812885    0.31642397975315
             0.5442493    0.74430825237435
 p    1 1.00
             0.1687144                   1
 d    1 1.00
                   0.8                   1

35 0
 s    3 1.00
             18.731137    0.03349459952309
             2.8253937    0.23472694665786
             0.6401217    0.81375731841339
 s    1 1.00
             0.1612778                   1

36 0
 s    6 1.00
             3047.5249  0.0018347001629433
             457.36951    0.01403730124668
             103.94869   0.068842606114048
             29.210155    0.23218442062076
              9.286663    0.46794134155879
              3.163927    0.36231203217765
 s    3 1.00
             7.8682724   -0.11933240861517
             1.8812885   -0.16085421161283
             0.5442493     1.1434564825515
 s    1 1.00
             0.1687144                   1
 p    3 1.00
             7.8682724   0.068999095584993
             1.8812885    0.31642397975315
             0.5442493    0.74430825237435
 p    1 1.00
             0.1687144                   1
 d    1 1.00
                   0.8                   1

37 0
 s    3 1.00
             18.731137    0.03349459952309
             2.8253937    0.23472694665786
             0.6401217    0.81375731841339
 s    1 1.00
             0.1612778                   1

38 0
 s    3 1.00
             18.731137    0.03349459952309
             2.8253937    0.23472694665786
             0.6401217    0.81375731841339
 s    1 1.00
             0.1612778                   1

39 0
 s    6 1.00
             3047.5249  0.0018347001629433
             457.36951    0.01403730124668
             103.94869   0.068842606114048
             29.210155    0.23218442062076
              9.286663    0.46794134155879
              3.163927    0.36231203217765
 s    3 1.00
             7.8682724   -0.11933240861517
             1.8812885   -0.16085421161283
             0.5442493     1.1434564825515
 s    1 1.00
             0.1687144                   1
 p    3 1.00
             7.8682724   0.068999095584993
             1.8812885    0.31642397975315
             0.5442493    0.74430825237435
 p    1 1.00
             0.1687144                   1
 d    1 1.00
                   0.8                   1

40 0
 s    6 1.00
             3047.5249  0.0018347001629433
             457.36951    0.01403730124668
             103.94869   0.068842606114048
             29.210155    0.23218442062076
              9.286663    0.46794134155879
              3.163927    0.36231203217765
 s    3 1.00
             7.8682724   -0.11933240861517
             1.8812885   -0.16085421161283
             0.5442493     1.1434564825515
 s    1 1.00
             0.1687144                   1
 p    3 1.00
             7.8682724   0.068999095584993
             1.8812885    0.31642397975315
             0.5442493    0.74430825237435
 p    1 1.00
             0.1687144                   1
 d    1 1.00
                   0.8                   1

41 0
 s    3 1.00
             18.731137    0.03349459952309
             2.8253937    0.23472694665786
             0.6401217    0.81375731841339
 s    1 1.00
             0.1612778                   1

42 0
 s    6 1.00
             5484.6717   0.001831099805527
             825.23495   0.013950098518422
             188.04696    0.06844509273075
               52.9645    0.23271427528445
              16.89757    0.47019295006289
             5.7996353    0.35852086192309
 s    3 1.00
             15.539616   -0.11077750382508
             3.5999336   -0.14802630511126
             1.0137618     1.1307670390447
 s    1 1.00
             0.2700058                   1
 p    3 1.00
             15.539616   0.070874299543311
             3.5999336    0.33975279781076
             1.0137618    0.72715859531445
 p    1 1.00
             0.2700058                   1
 d    1 1.00
                   0.8                   1

43 0
 s    3 1.00
             18.731137    0.03349459952309
             2.8253937    0.23472694665786
             0.6401217    0.81375731841339
 s    1 1.00
             0.1612778                   1

[5d]
[7f]
[9g]

[MO]
 Sym= A
 Ene=               0
 Spin= Alpha
 Occup=    1.00000
   1    -1.5783140106459e-05
   2    -0.00010215552062884
   3    0.0014735635246339
   4    -3.2174710433414e-05
   5    -1.2841911409651e-05
   6    2.1392351200433e-05
   7    -9.7599460405859e-05
   8    0.00031379582576043
   9    -0.0017295153826482
  10    4.5393591398328e-05
  11    5.4035201151809e-05
  12    -2.2176524287193e-06
  13    7.248051750066e-06
  14    -7.0649435697574e-06
  15    -5.4556997455164e-05
  16    9.0289812611413e-05
  17    3.7812297455984e-05
  18    0.00021202794468607
  19    -0.0033244543533035
  20    -1.6915315995979e-05
  21    -2.1563442788834e-05
  22    8.6974410900447e-05
  23    -0.0020870355110169
  24    -0.00042343606782854
  25    -0.00068549819619781
  26    -4.8452803743365e-05
  27    2.1534268759252e-05
  28    3.0163485747929e-05
  29    -2.8105471017081e-05
  30    -2.2424198425794e-05
  31    -7.8369953482003e-05
  32    -0.00047168632580543
  33    -9.6975075094536e-05
  34    -0.00039688691965872
  35    0.0062227466844895
  36    0.00017733164105428
  37    6.1238312996764e-05
  38    -7.0792953614412e-05
  39    0.0028161029788547
  40    0.00036049212677932
  41    0.0020018316730195
  42    -1.3940946328954e-05
  43    -2.3529979409659e-05
  44    -3.6132527650677e-05
  45    0.00014453144217389
  46    9.0324738173048e-05
  47    6.9992984125726e-05
  48    0.00062625802964932
  49    6.1351172961507e-05
  50    -0.00026891553698287
  51    -0.0044527372187138
  52    -0.00059845933927723
  53    -0.00017236162394462
  54    6.2859475743782e-05
  55    0.0046519065132836
  56     0.001231173539085
  57    6.5712683277126e-05
  58    0.00021716427342359
  59    -5.3142154487306e-05
  60    -6.8697357227605e-05
  61    -9.8832077792417e-05
  62    -4.2078899858399e-05
  63    -0.00034856795977847
  64    -0.00040045539804974
  65    -3.7081818388837e-07
  66    1.8963007640947e-06
  67    -1.368967252515e-07
  68    -1.3523275511742e-06
  69    -1.0015600154878e-06
  70    8.4059737368297e-07
  71    -1.2475425579529e-06
  72    2.041282297791e-07
  73    3.0964843584924e-06
  74    3.0422197980517e-06
  75    -1.9333132880545e-06
  76    3.8722007605979e-07
  77    2.1652932467023e-07
  78    7.9399165226998e-08
  79    1.7608167283302e-07
  80    1.9105711846215e-07
  81    3.8030398449023e-07
  82    2.0595189849836e-06
  83    3.282336777335e-07
  84    2.745750144427e-06
  85    -3.1972179429243e-06
  86    7.2834900260297e-09
  87    8.351566852311e-07
  88    3.1848755730574e-07
  89    3.5582226271491e-06
  90    -1.3213175789499e-05
  91    -2.6493545744969e-06
  92    -1.4349340549344e-07
  93    -3.0730680503803e-07
  94    1.001531233004e-06
  95    -4.7024725334788e-07
  96    2.9851597416005e-08
  97    1.7533831326241e-06
  98    2.4148199431581e-06
  99    -1.1100174934103e-06
 100    -3.1136136151942e-06
 101    -6.9023482834779e-07
 102    -3.3630459346607e-06
 103    8.8512937595033e-05
 104    -2.0958930929347e-06
 105    -4.617777334909e-07
 106    -1.5418484187616e-06
 107    -2.5036531620911e-05
 108    3.3980426571935e-05
 109    -2.7179997049186e-05
 110    5.7465623016095e-07
 111    1.5579084695653e-06
 112    -6.9013949608199e-07
 113    -4.4110625688665e-07
 114    -1.4726440097746e-06
 115    2.7080808804954e-07
 116    2.5671897277289e-06
 117    -9.8523650523106e-06
 118    3.7643093966386e-08
 119    1.8579099783773e-06
 120    -1.3298782559898e-06
 121    6.5753323859578e-06
 122    -1.7311732801148e-05
 123    8.048333645169e-06
 124    7.323200385451e-07
 125    -3.9218085806176e-07
 126    -1.245254050366e-06
 127    -3.296805356451e-07
 128    -1.4021077452464e-08
 129    8.9151345722152e-07
 130    3.9050143751093e-06
 131    -2.5980257426871e-07
 132    5.4087937873374e-06
 133    -1.2426537202193e-07
 134    -2.2650670221922e-06
 135    -0.00011616182287217
 136    9.1625436262845e-06
 137    2.8782610472509e-05
 138    -1.5411902164807e-06
 139    5.2693682071686e-07
 140    3.2576079305367e-06
 141    -2.5045118248395e-08
 142    2.8836769378833e-06
 143    2.5057654585349e-07
 144    3.5296199892729e-07
 145    -5.8947947729927e-05
 146    7.0820477889415e-07
 147    -6.0822683931266e-07
 148    6.0614994340069e-06
 149    -2.948413456587e-05
 150    4.6323550602876e-05
 151    -2.9714003757572e-05
 152    -5.0295170904236e-07
 153    -1.0168195183499e-07
 154    -2.4132273093826e-06
 155    -5.9121844518672e-07
 156    -6.0473125175857e-07
 157    9.1512810721404e-07
 158    8.0439290328193e-06
 159    -4.3742274548027e-05
 160    1.0438431544361e-06
 161    6.8857470150915e-07
 162    -1.5678953519518e-06
 163    -1.2100082079205e-05
 164    1.7704582552968e-05
 165    5.6711340625186e-06
 166    1.1320803099004e-06
 167    -3.310302175347e-07
 168    4.9950080048112e-08
 169    1.0125701714233e-06
 170    5.3256702541404e-07
 171    -4.1024064487968e-08
 172    -1.01917919551e-06
 173    1.6809686172793e-06
 174    -1.4529821632936e-06
 175    -2.3323493236215e-07
 176    2.599785414623e-06
 177    2.0831592150994e-05
 178    1.3014089617436e-06
 179    4.9224649515673e-06
 180    -2.747986740634e-07
 181    1.9015836939981e-06
 182    -1.1000112992201e-07
 183    1.2448152780785e-06
 184    1.4988559712501e-06
 185    -7.9239911469085e-07
 186    -6.3076745911199e-06
 187    4.1675143369685e-05
 188    -1.4437776373319e-06
 189    -3.9380578870006e-07
 190    -1.0653604831232e-06
 191    -4.4070928546006e-06
 192    -1.0844725335711e-05
 193    -1.8597909051517e-05
 194    8.1363957846229e-07
 195    1.162087021043e-06
 196    1.667851412345e-06
 197    -6.463014652654e-07
 198    6.5052569654083e-07
 199    -2.0975676467016e-06
 200    1.6757227182637e-06
 201    -7.0735234493219e-07
 202    -1.1399018404205e-07
 203    -1.5160762742782e-06
 204    -7.5544218537193e-06
 205    3.0861906138431e-06
 206    5.2083731472863e-07
 207    2.6095895824218e-06
 208    1.5393539085581e-06
 209    3.5047376839274e-06
 210    2.4431798713073e-06
 211    2.3547211492227e-06
 212    4.8072362124256e-06
 213    7.7096404663015e-07
 214    -5.8168517570678e-06
 215    -4.7362590351199e-06
 216    2.5304304144436e-05
 217    1.4966946419676e-06
 218    4.148040814541e-06
 219    3.2600846604806e-07
 220    -4.9201896434174e-06
 221    -6.0698014165485e-06
 222    -3.8664152284555e-05
 223    0.00049006582241261
 224    6.5710106741308e-06
 225    2.6952895098351e-06
 226    -6.1420151024384e-06
 227    0.00012355442539922
 228    7.5938395687414e-05
 229    -0.00028818913249583
 230    9.693087712158e-06
 231    -1.0465508767071e-05
 232    -9.157032454447e-06
 233    4.5466157342236e-06
 234    4.5318644234332e-06
 235    6.4600848656392e-06
 236    2.9262715737565e-05
 237    -0.00085091159482685
 238    -1.0974444523771e-05
 239    -8.7723107535523e-06
 240    3.0216257054845e-05
 241    0.0003218159939783
 242    9.3210325699243e-05
 243    -4.9505538228681e-05
 244    -1.7010412691561e-05
 245    9.8495883120282e-06
 246    8.1491846692214e-06
 247    5.2077069398578e-07
 248    -1.777421450604e-06
 249    -6.9479905258112e-06
 250    -2.3563988017152e-05
 251    -6.0835250573338e-06
 252    -3.5509862219797e-05
 253    0.0008921342404012
 254    -1.3861936872671e-05
 255    2.6961792879254e-06
 256    -3.3652279144327e-05
 257    0.0005419154907251
 258    9.8116319709025e-05
 259      0.00024689264419
 260    9.2289560783247e-06
 261    -4.8101429485268e-06
 262    -6.603582770329e-06
 263    8.6428831997582e-06
 264    6.5093747957109e-06
 265    -2.1998696065742e-05
 266    -1.3511226222164e-05
 267    3.082658235678e-05
 268    0.00016743382351743
 269    7.2879687264862e-05
 270    3.5262297687456e-06
 271    -0.0036136641615052
 272    1.9600313961438e-06
 273    5.7312229489293e-05
 274    -0.00029012121310061
 275    -0.0026769846840351
 276    -0.0011870065895276
 277    0.0024247784692594
 278    0.0001673266888338
 279    0.00031203848863814
 280    5.9434352960491e-05