[Molden Format]
made by pyscf v[2.0.1]
[Atoms] (AU)
C   1   6     0.69100024066471     0.64692934207205    -3.48223131169301
H   2   1     2.68052439830868     1.13355088658700    -3.25784032593313
C   3   6    -0.36286361513219     0.85440132524594    -5.97030179418974
H   4   1    -2.35448549047279     0.36322488579172    -6.17995817793143
C   5   6     0.93697958957450     1.61209284601821    -8.05828437677121
H   6   1     1.06549067678056     3.62267689696451    -8.48487489511106
C   7   6     2.16736557798100    -0.10534186648568    -9.75912299477448
H   8   1     2.02320928491733    -2.11383137749881    -9.30645195914250
H   9   1     1.55630230933075    -1.92953025305990    12.99630010416247
C   10   6     0.75233899775814    -2.21270439606481    11.10705728102219
H   11   1    -0.43433408177274    -3.90944857546550    11.22216085340412
C   12   6     2.86362581178706    -2.63237380607947     9.17926416456045
H   13   1     4.39038949912609    -1.24955421540245     9.49899813497433
H   14   1     3.74629220191363    -4.48798724300892     9.47414880959024
C   15   6     2.02478325613682    -2.42177285709634     6.44560829588644
C   16   6     3.88048732735477    -3.58795445234514     4.61402886975252
C   17   6    -0.18412382258602    -1.30464291234259     5.76021113872346
C   18   6    -2.10044360464350    -0.26837831858460     7.71610340967100
C   19   6    -3.08956938670431     2.35282328359417     6.88693925039594
C   20   6    -4.37372924086464    -2.09766595989678     7.93610724222001
C   21   6    -0.83850430601230     0.06372213486173    10.33002307638377
H   22   1     0.38411922151109     1.74281358582432    10.27380136542181
H   23   1    -2.30980003007874     0.45460143924521    11.73986301809809
H   24   1     4.58527064644668    -5.38706904487420     5.36778158031719
H   25   1     5.54944938085014    -2.37631462192748     4.35398898413318
H   26   1     3.06633019150423    -3.94118377050688     2.75255466040884
H   27   1    -4.17727778763735     2.26573369139522     5.12914900961283
H   28   1    -1.52662344944051     3.68001877445626     6.59540397144508
H   29   1    -4.32916174397830     3.13643051467482     8.35225460090378
H   30   1    -5.32329548508442    -2.36691813602939     6.11583672749896
H   31   1    -5.77989366602257    -1.33896741843465     9.25748940450990
H   32   1    -3.79310905208926    -3.96389819310853     8.61386170102686
C   33   6    -1.01100794811226    -1.06331657314144     3.11929490449947
C   34   6     0.37686231036534    -0.33275864505552     1.09165013605873
H   35   1    -3.01671213906703    -1.40297922279997     2.77827895090944
C   36   6    -0.64382707979370    -0.11591880174385    -1.42063131251064
H   37   1     2.35569259782137     0.17174499283897     1.33641070251401
H   38   1    -2.63317482980319    -0.60229203511219    -1.66119700387645
C   39   6     3.47875288242203     0.56169257871714   -11.85961387583028
C   40   6     4.66516051155728    -1.33401759756945   -13.47384510134906
H   41   1     3.69428385946791     2.52875803282145   -12.41815504578381
O   42   8     5.86788117255002    -0.86880199432758   -15.38639878207248
H   43   1     4.39675898316744    -3.32256790318547   -12.83056660829343
[GTO]
1 0
 s    6 1.00
             3047.5249  0.0018347001629433
             457.36951    0.01403730124668
             103.94869   0.068842606114048
             29.210155    0.23218442062076
              9.286663    0.46794134155879
              3.163927    0.36231203217765
 s    3 1.00
             7.8682724   -0.11933240861517
             1.8812885   -0.16085421161283
             0.5442493     1.1434564825515
 s    1 1.00
             0.1687144                   1
 p    3 1.00
             7.8682724   0.068999095584993
             1.8812885    0.31642397975315
             0.5442493    0.74430825237435
 p    1 1.00
             0.1687144                   1
 d    1 1.00
                   0.8                   1

2 0
 s    3 1.00
             18.731137    0.03349459952309
             2.8253937    0.23472694665786
             0.6401217    0.81375731841339
 s    1 1.00
             0.1612778                   1

3 0
 s    6 1.00
             3047.5249  0.0018347001629433
             457.36951    0.01403730124668
             103.94869   0.068842606114048
             29.210155    0.23218442062076
              9.286663    0.46794134155879
              3.163927    0.36231203217765
 s    3 1.00
             7.8682724   -0.11933240861517
             1.8812885   -0.16085421161283
             0.5442493     1.1434564825515
 s    1 1.00
             0.1687144                   1
 p    3 1.00
             7.8682724   0.068999095584993
             1.8812885    0.31642397975315
             0.5442493    0.74430825237435
 p    1 1.00
             0.1687144                   1
 d    1 1.00
                   0.8                   1

4 0
 s    3 1.00
             18.731137    0.03349459952309
             2.8253937    0.23472694665786
             0.6401217    0.81375731841339
 s    1 1.00
             0.1612778                   1

5 0
 s    6 1.00
             3047.5249  0.0018347001629433
             457.36951    0.01403730124668
             103.94869   0.068842606114048
             29.210155    0.23218442062076
              9.286663    0.46794134155879
              3.163927    0.36231203217765
 s    3 1.00
             7.8682724   -0.11933240861517
             1.8812885   -0.16085421161283
             0.5442493     1.1434564825515
 s    1 1.00
             0.1687144                   1
 p    3 1.00
             7.8682724   0.068999095584993
             1.8812885    0.31642397975315
             0.5442493    0.74430825237435
 p    1 1.00
             0.1687144                   1
 d    1 1.00
                   0.8                   1

6 0
 s    3 1.00
             18.731137    0.03349459952309
             2.8253937    0.23472694665786
             0.6401217    0.81375731841339
 s    1 1.00
             0.1612778                   1

7 0
 s    6 1.00
             3047.5249  0.0018347001629433
             457.36951    0.01403730124668
             103.94869   0.068842606114048
             29.210155    0.23218442062076
              9.286663    0.46794134155879
              3.163927    0.36231203217765
 s    3 1.00
             7.8682724   -0.11933240861517
             1.8812885   -0.16085421161283
             0.5442493     1.1434564825515
 s    1 1.00
             0.1687144                   1
 p    3 1.00
             7.8682724   0.068999095584993
             1.8812885    0.31642397975315
             0.5442493    0.74430825237435
 p    1 1.00
             0.1687144                   1
 d    1 1.00
                   0.8                   1

8 0
 s    3 1.00
             18.731137    0.03349459952309
             2.8253937    0.23472694665786
             0.6401217    0.81375731841339
 s    1 1.00
             0.1612778                   1

9 0
 s    3 1.00
             18.731137    0.03349459952309
             2.8253937    0.23472694665786
             0.6401217    0.81375731841339
 s    1 1.00
             0.1612778                   1

10 0
 s    6 1.00
             3047.5249  0.0018347001629433
             457.36951    0.01403730124668
             103.94869   0.068842606114048
             29.210155    0.23218442062076
              9.286663    0.46794134155879
              3.163927    0.36231203217765
 s    3 1.00
             7.8682724   -0.11933240861517
             1.8812885   -0.16085421161283
             0.5442493     1.1434564825515
 s    1 1.00
             0.1687144                   1
 p    3 1.00
             7.8682724   0.068999095584993
             1.8812885    0.31642397975315
             0.5442493    0.74430825237435
 p    1 1.00
             0.1687144                   1
 d    1 1.00
                   0.8                   1

11 0
 s    3 1.00
             18.731137    0.03349459952309
             2.8253937    0.23472694665786
             0.6401217    0.81375731841339
 s    1 1.00
             0.1612778                   1

12 0
 s    6 1.00
             3047.5249  0.0018347001629433
             457.36951    0.01403730124668
             103.94869   0.068842606114048
             29.210155    0.23218442062076
              9.286663    0.46794134155879
              3.163927    0.36231203217765
 s    3 1.00
             7.8682724   -0.11933240861517
             1.8812885   -0.16085421161283
             0.5442493     1.1434564825515
 s    1 1.00
             0.1687144                   1
 p    3 1.00
             7.8682724   0.068999095584993
             1.8812885    0.31642397975315
             0.5442493    0.74430825237435
 p    1 1.00
             0.1687144                   1
 d    1 1.00
                   0.8                   1

13 0
 s    3 1.00
             18.731137    0.03349459952309
             2.8253937    0.23472694665786
             0.6401217    0.81375731841339
 s    1 1.00
             0.1612778                   1

14 0
 s    3 1.00
             18.731137    0.03349459952309
             2.8253937    0.23472694665786
             0.6401217    0.81375731841339
 s    1 1.00
             0.1612778                   1

15 0
 s    6 1.00
             3047.5249  0.0018347001629433
             457.36951    0.01403730124668
             103.94869   0.068842606114048
             29.210155    0.23218442062076
              9.286663    0.46794134155879
              3.163927    0.36231203217765
 s    3 1.00
             7.8682724   -0.11933240861517
             1.8812885   -0.16085421161283
             0.5442493     1.1434564825515
 s    1 1.00
             0.1687144                   1
 p    3 1.00
             7.8682724   0.068999095584993
             1.8812885    0.31642397975315
             0.5442493    0.74430825237435
 p    1 1.00
             0.1687144                   1
 d    1 1.00
                   0.8                   1

16 0
 s    6 1.00
             3047.5249  0.0018347001629433
             457.36951    0.01403730124668
             103.94869   0.068842606114048
             29.210155    0.23218442062076
              9.286663    0.46794134155879
              3.163927    0.36231203217765
 s    3 1.00
             7.8682724   -0.11933240861517
             1.8812885   -0.16085421161283
             0.5442493     1.1434564825515
 s    1 1.00
             0.1687144                   1
 p    3 1.00
             7.8682724   0.068999095584993
             1.8812885    0.31642397975315
             0.5442493    0.74430825237435
 p    1 1.00
             0.1687144                   1
 d    1 1.00
                   0.8                   1

17 0
 s    6 1.00
             3047.5249  0.0018347001629433
             457.36951    0.01403730124668
             103.94869   0.068842606114048
             29.210155    0.23218442062076
              9.286663    0.46794134155879
              3.163927    0.36231203217765
 s    3 1.00
             7.8682724   -0.11933240861517
             1.8812885   -0.16085421161283
             0.5442493     1.1434564825515
 s    1 1.00
             0.1687144                   1
 p    3 1.00
             7.8682724   0.068999095584993
             1.8812885    0.31642397975315
             0.5442493    0.74430825237435
 p    1 1.00
             0.1687144                   1
 d    1 1.00
                   0.8                   1

18 0
 s    6 1.00
             3047.5249  0.0018347001629433
             457.36951    0.01403730124668
             103.94869   0.068842606114048
             29.210155    0.23218442062076
              9.286663    0.46794134155879
              3.163927    0.36231203217765
 s    3 1.00
             7.8682724   -0.11933240861517
             1.8812885   -0.16085421161283
             0.5442493     1.1434564825515
 s    1 1.00
             0.1687144                   1
 p    3 1.00
             7.8682724   0.068999095584993
             1.8812885    0.31642397975315
             0.5442493    0.74430825237435
 p    1 1.00
             0.1687144                   1
 d    1 1.00
                   0.8                   1

19 0
 s    6 1.00
             3047.5249  0.0018347001629433
             457.36951    0.01403730124668
             103.94869   0.068842606114048
             29.210155    0.23218442062076
              9.286663    0.46794134155879
              3.163927    0.36231203217765
 s    3 1.00
             7.8682724   -0.11933240861517
             1.8812885   -0.16085421161283
             0.5442493     1.1434564825515
 s    1 1.00
             0.1687144                   1
 p    3 1.00
             7.8682724   0.068999095584993
             1.8812885    0.31642397975315
             0.5442493    0.74430825237435
 p    1 1.00
             0.1687144                   1
 d    1 1.00
                   0.8                   1

20 0
 s    6 1.00
             3047.5249  0.0018347001629433
             457.36951    0.01403730124668
             103.94869   0.068842606114048
             29.210155    0.23218442062076
              9.286663    0.46794134155879
              3.163927    0.36231203217765
 s    3 1.00
             7.8682724   -0.11933240861517
             1.8812885   -0.16085421161283
             0.5442493     1.1434564825515
 s    1 1.00
             0.1687144                   1
 p    3 1.00
             7.8682724   0.068999095584993
             1.8812885    0.31642397975315
             0.5442493    0.74430825237435
 p    1 1.00
             0.1687144                   1
 d    1 1.00
                   0.8                   1

21 0
 s    6 1.00
             3047.5249  0.0018347001629433
             457.36951    0.01403730124668
             103.94869   0.068842606114048
             29.210155    0.23218442062076
              9.286663    0.46794134155879
              3.163927    0.36231203217765
 s    3 1.00
             7.8682724   -0.11933240861517
             1.8812885   -0.16085421161283
             0.5442493     1.1434564825515
 s    1 1.00
             0.1687144                   1
 p    3 1.00
             7.8682724   0.068999095584993
             1.8812885    0.31642397975315
             0.5442493    0.74430825237435
 p    1 1.00
             0.1687144                   1
 d    1 1.00
                   0.8                   1

22 0
 s    3 1.00
             18.731137    0.03349459952309
             2.8253937    0.23472694665786
             0.6401217    0.81375731841339
 s    1 1.00
             0.1612778                   1

23 0
 s    3 1.00
             18.731137    0.03349459952309
             2.8253937    0.23472694665786
             0.6401217    0.81375731841339
 s    1 1.00
             0.1612778                   1

24 0
 s    3 1.00
             18.731137    0.03349459952309
             2.8253937    0.23472694665786
             0.6401217    0.81375731841339
 s    1 1.00
             0.1612778                   1

25 0
 s    3 1.00
             18.731137    0.03349459952309
             2.8253937    0.23472694665786
             0.6401217    0.81375731841339
 s    1 1.00
             0.1612778                   1

26 0
 s    3 1.00
             18.731137    0.03349459952309
             2.8253937    0.23472694665786
             0.6401217    0.81375731841339
 s    1 1.00
             0.1612778                   1

27 0
 s    3 1.00
             18.731137    0.03349459952309
             2.8253937    0.23472694665786
             0.6401217    0.81375731841339
 s    1 1.00
             0.1612778                   1

28 0
 s    3 1.00
             18.731137    0.03349459952309
             2.8253937    0.23472694665786
             0.6401217    0.81375731841339
 s    1 1.00
             0.1612778                   1

29 0
 s    3 1.00
             18.731137    0.03349459952309
             2.8253937    0.23472694665786
             0.6401217    0.81375731841339
 s    1 1.00
             0.1612778                   1

30 0
 s    3 1.00
             18.731137    0.03349459952309
             2.8253937    0.23472694665786
             0.6401217    0.81375731841339
 s    1 1.00
             0.1612778                   1

31 0
 s    3 1.00
             18.731137    0.03349459952309
             2.8253937    0.23472694665786
             0.6401217    0.81375731841339
 s    1 1.00
             0.1612778                   1

32 0
 s    3 1.00
             18.731137    0.03349459952309
             2.8253937    0.23472694665786
             0.6401217    0.81375731841339
 s    1 1.00
             0.1612778                   1

33 0
 s    6 1.00
             3047.5249  0.0018347001629433
             457.36951    0.01403730124668
             103.94869   0.068842606114048
             29.210155    0.23218442062076
              9.286663    0.46794134155879
              3.163927    0.36231203217765
 s    3 1.00
             7.8682724   -0.11933240861517
             1.8812885   -0.16085421161283
             0.5442493     1.1434564825515
 s    1 1.00
             0.1687144                   1
 p    3 1.00
             7.8682724   0.068999095584993
             1.8812885    0.31642397975315
             0.5442493    0.74430825237435
 p    1 1.00
             0.1687144                   1
 d    1 1.00
                   0.8                   1

34 0
 s    6 1.00
             3047.5249  0.0018347001629433
             457.36951    0.01403730124668
             103.94869   0.068842606114048
             29.210155    0.23218442062076
              9.286663    0.46794134155879
              3.163927    0.36231203217765
 s    3 1.00
             7.8682724   -0.11933240861517
             1.8812885   -0.16085421161283
             0.5442493     1.1434564825515
 s    1 1.00
             0.1687144                   1
 p    3 1.00
             7.8682724   0.068999095584993
             1.8812885    0.31642397975315
             0.5442493    0.74430825237435
 p    1 1.00
             0.1687144                   1
 d    1 1.00
                   0.8                   1

35 0
 s    3 1.00
             18.731137    0.03349459952309
             2.8253937    0.23472694665786
             0.6401217    0.81375731841339
 s    1 1.00
             0.1612778                   1

36 0
 s    6 1.00
             3047.5249  0.0018347001629433
             457.36951    0.01403730124668
             103.94869   0.068842606114048
             29.210155    0.23218442062076
              9.286663    0.46794134155879
              3.163927    0.36231203217765
 s    3 1.00
             7.8682724   -0.11933240861517
             1.8812885   -0.16085421161283
             0.5442493     1.1434564825515
 s    1 1.00
             0.1687144                   1
 p    3 1.00
             7.8682724   0.068999095584993
             1.8812885    0.31642397975315
             0.5442493    0.74430825237435
 p    1 1.00
             0.1687144                   1
 d    1 1.00
                   0.8                   1

37 0
 s    3 1.00
             18.731137    0.03349459952309
             2.8253937    0.23472694665786
             0.6401217    0.81375731841339
 s    1 1.00
             0.1612778                   1

38 0
 s    3 1.00
             18.731137    0.03349459952309
             2.8253937    0.23472694665786
             0.6401217    0.81375731841339
 s    1 1.00
             0.1612778                   1

39 0
 s    6 1.00
             3047.5249  0.0018347001629433
             457.36951    0.01403730124668
             103.94869   0.068842606114048
             29.210155    0.23218442062076
              9.286663    0.46794134155879
              3.163927    0.36231203217765
 s    3 1.00
             7.8682724   -0.11933240861517
             1.8812885   -0.16085421161283
             0.5442493     1.1434564825515
 s    1 1.00
             0.1687144                   1
 p    3 1.00
             7.8682724   0.068999095584993
             1.8812885    0.31642397975315
             0.5442493    0.74430825237435
 p    1 1.00
             0.1687144                   1
 d    1 1.00
                   0.8                   1

40 0
 s    6 1.00
             3047.5249  0.0018347001629433
             457.36951    0.01403730124668
             103.94869   0.068842606114048
             29.210155    0.23218442062076
              9.286663    0.46794134155879
              3.163927    0.36231203217765
 s    3 1.00
             7.8682724   -0.11933240861517
             1.8812885   -0.16085421161283
             0.5442493     1.1434564825515
 s    1 1.00
             0.1687144                   1
 p    3 1.00
             7.8682724   0.068999095584993
             1.8812885    0.31642397975315
             0.5442493    0.74430825237435
 p    1 1.00
             0.1687144                   1
 d    1 1.00
                   0.8                   1

41 0
 s    3 1.00
             18.731137    0.03349459952309
             2.8253937    0.23472694665786
             0.6401217    0.81375731841339
 s    1 1.00
             0.1612778                   1

42 0
 s    6 1.00
             5484.6717   0.001831099805527
             825.23495   0.013950098518422
             188.04696    0.06844509273075
               52.9645    0.23271427528445
              16.89757    0.47019295006289
             5.7996353    0.35852086192309
 s    3 1.00
             15.539616   -0.11077750382508
             3.5999336   -0.14802630511126
             1.0137618     1.1307670390447
 s    1 1.00
             0.2700058                   1
 p    3 1.00
             15.539616   0.070874299543311
             3.5999336    0.33975279781076
             1.0137618    0.72715859531445
 p    1 1.00
             0.2700058                   1
 d    1 1.00
                   0.8                   1

43 0
 s    3 1.00
             18.731137    0.03349459952309
             2.8253937    0.23472694665786
             0.6401217    0.81375731841339
 s    1 1.00
             0.1612778                   1

[5d]
[7f]
[9g]

[MO]
 Sym= A
 Ene=               0
 Spin= Alpha
 Occup=    1.00000
   1    -5.0736566075667e-07
   2    -2.1794370960242e-05
   3    6.2882189321409e-06
   4    -9.6755537723469e-07
   5    -1.227923058942e-05
   6    2.0841849171737e-05
   7    3.0133774121948e-05
   8    8.3903666604533e-05
   9    -0.0003683621965548
  10    6.7891353928065e-07
  11    1.0566097471213e-05
  12    2.3035657344032e-06
  13    1.3451307081052e-05
  14    -7.4014190103538e-06
  15    -1.4881540119284e-05
  16    1.6477350840113e-05
  17    5.1349672006199e-06
  18    0.00016356593329564
  19    0.00042691170890496
  20    5.8486228093779e-05
  21    -3.1990650467154e-06
  22    -7.8413935656938e-05
  23    0.00016531587781951
  24    -9.7832255418509e-05
  25    -0.00061123472202966
  26    1.8939719095595e-05
  27    -2.1863455154954e-05
  28    8.3066295812224e-06
  29    4.079014086395e-05
  30    -2.2035591655476e-06
  31    -9.5191095719131e-06
  32    3.134729269764e-05
  33    7.6545258704466e-05
  34    0.00028371285550941
  35    -0.0043603433702285
  36    -0.00011290834080252
  37    7.9041012558345e-05
  38    0.00020791852351779
  39    -0.00045317499429866
  40    0.0019041613202786
  41    0.00054942402062171
  42    -2.4402758113577e-05
  43    0.00010418753545703
  44    -6.7530123080234e-05
  45    2.9343160139639e-05
  46    5.1678450728335e-05
  47    -9.9656805511018e-06
  48    -0.00024888820303103
  49    -5.362937782054e-05
  50    0.0003077704252832
  51    0.0035961636105366
  52    0.00028870631904929
  53    -0.00033741672207611
  54    -0.00042824940069801
  55    -0.0015995307416619
  56    0.0024655692230869
  57    0.0021736310412084
  58    -1.901317699364e-05
  59    3.2866128556938e-05
  60    0.00017951333918674
  61    2.0093359985451e-05
  62    -0.00011299145077563
  63    0.00039400595531974
  64    0.00013603431012331
  65    -2.3324700518248e-07
  66    -4.6767488647253e-07
  67    -6.1472704900674e-08
  68    -4.9915988382646e-07
  69    2.8772563617291e-06
  70    3.0411298554876e-07
  71    -3.9327081395894e-07
  72    8.9863385774117e-08
  73    3.4058000167544e-07
  74    1.2855947695015e-06
  75    2.4712019774099e-07
  76    -4.8969633586053e-08
  77    -1.2694072789686e-07
  78    4.7601418055998e-08
  79    6.6698681711317e-08
  80    -1.0449709949994e-07
  81    8.6405057771547e-08
  82    -1.8941437189875e-08
  83    -2.401599393972e-08
  84    -1.0400475547404e-07
  85    -1.2313915404488e-05
  86    5.4821996433209e-07
  87    6.7787070606335e-08
  88    6.8381955652537e-07
  89    3.2808459862232e-06
  90    -4.4463038421187e-06
  91    2.6760884550249e-06
  92    1.855677954957e-07
  93    -3.1324592667318e-07
  94    2.8762621555819e-07
  95    2.0433197246875e-08
  96    -1.912363654974e-07
  97    3.7523123084317e-07
  98    2.6401251913712e-08
  99    1.2294635429386e-07
 100    -6.6384609241174e-07
 101     3.76022071682e-08
 102    -1.1798352599441e-06
 103    1.3382407406627e-05
 104    1.0636491241628e-06
 105    2.0313629848654e-07
 106    -5.1164396685989e-07
 107    -1.8351385716973e-05
 108    1.8817374075962e-05
 109    2.8928847360452e-05
 110    -5.5576278450864e-07
 111    -4.9355612118761e-07
 112    2.4249554692348e-07
 113    3.9786001301936e-07
 114    -4.8441215591001e-07
 115    -5.0664317225877e-07
 116    -4.3630518959818e-06
 117    3.5684554175428e-05
 118    -6.8207547372704e-07
 119    1.0622289969173e-06
 120    6.0315723549157e-07
 121    -8.1360590149498e-06
 122    7.8697450902244e-07
 123    2.5546166320704e-06
 124    -5.54649095853e-08
 125    -1.6234750729377e-07
 126    -9.7605857213096e-08
 127    4.6036267931699e-08
 128    -3.711686144211e-07
 129    -8.4191467917419e-07
 130    -8.7135548055785e-06
 131    4.8578489843368e-05
 132    -1.985324393627e-07
 133    -1.3820716283584e-06
 134    3.6185953898238e-06
 135    -2.4895831680439e-05
 136    2.7032523785944e-07
 137    -7.7855557367769e-05
 138    2.4596105310793e-06
 139    1.4370289638522e-06
 140    4.1831003358954e-07
 141    4.411767328428e-07
 142    1.8892000827739e-07
 143    -5.1675229516716e-07
 144    -3.318302763156e-06
 145    1.8973901808726e-05
 146    6.1480178601969e-07
 147    5.7194257480408e-07
 148    -2.0906010702654e-08
 149    1.1639088998369e-05
 150    -6.0423204752332e-06
 151    -2.840388311034e-06
 152    -1.0307957209006e-06
 153    -3.3542542292679e-07
 154    -9.6443437733709e-08
 155    6.6936279716648e-07
 156    -7.4519531169067e-07
 157    -1.3310792145751e-08
 158    1.1258912928127e-06
 159    1.2215831962324e-06
 160    7.6067851463612e-07
 161    -3.3945924043205e-07
 162    -2.3496997384993e-07
 163    -6.3809847123135e-06
 164    2.9084238921992e-07
 165    8.1008610118711e-07
 166     4.04120329833e-07
 167    -1.0889166741495e-07
 168    -9.9642628075312e-09
 169    -1.0870564547889e-07
 170    2.7649579314795e-07
 171    7.2467355327493e-08
 172    -5.2939958076482e-07
 173    -1.6362606756698e-06
 174    -8.3232091541594e-07
 175    -2.6355373169489e-07
 176    8.0815487852808e-07
 177    -2.4709462778266e-07
 178    1.3238119234219e-06
 179    -1.9077352329776e-06
 180    1.3645835939031e-07
 181    1.768619578954e-07
 182    1.3701758788483e-08
 183    -3.5286127245088e-07
 184    1.7178115440583e-07
 185    -2.6225571279136e-07
 186    -3.0138874467545e-06
 187    2.0705187462794e-06
 188    -1.4756717887389e-07
 189    1.4957392538959e-07
 190    1.2187548594895e-06
 191    2.6052098583619e-06
 192    7.5630241618651e-07
 193    -5.3292571560555e-06
 194    3.4098959749914e-07
 195    -5.422242921353e-08
 196    1.7252224161218e-07
 197    7.1487064576262e-08
 198    -9.7530612063314e-08
 199    -7.9717762292155e-07
 200    -1.4278581446502e-06
 201    1.6625696517036e-07
 202    3.6139108044142e-06
 203    -1.5695400642432e-06
 204    -1.622209749233e-06
 205    -4.8761272658362e-07
 206    -2.8110395052611e-06
 207    1.4334102252789e-06
 208    -1.1585703222884e-05
 209    1.1482960488503e-06
 210    -4.2854601318912e-06
 211    4.8280662133261e-07
 212    2.6821769363409e-06
 213    -3.8417149692405e-07
 214    -2.7170185336808e-06
 215    -5.8510088159852e-07
 216    5.6369197556867e-07
 217    4.3515956726633e-07
 218    1.2865503936708e-06
 219    2.1435869763811e-07
 220    9.3457333409378e-07
 221    -8.890814441927e-07
 222    -7.7219275869577e-06
 223    -2.7517442914562e-06
 224    1.3196823579653e-06
 225    -3.285128762748e-06
 226    2.6646489543152e-06
 227    1.388763034687e-05
 228    2.2982282151652e-05
 229    -9.3527170994694e-05
 230    -1.1551279181224e-06
 231    -3.9441842159392e-06
 232    -2.1477675306258e-06
 233    1.7204823784881e-06
 234    2.8311903631123e-06
 235    -8.6144450730535e-07
 236    -1.1687689542004e-05
 237    1.9499776201486e-05
 238    -1.7770254720632e-06
 239    6.9282961063934e-06
 240    5.884210966959e-06
 241    -2.001962381189e-05
 242    -4.2063036981324e-06
 243    -8.7214830047568e-05
 244    1.7328613859979e-06
 245    6.6284437772053e-06
 246    1.702250257853e-06
 247    2.4275576433544e-06
 248    1.5094134694848e-06
 249    -3.9452263168181e-06
 250    1.0483419267302e-05
 251    -4.4695340487775e-06
 252    -2.7038385168809e-05
 253    0.00024991605808318
 254    5.2951600406754e-06
 255    -5.1415416455998e-06
 256    4.3392557924691e-06
 257    0.00010776381525075
 258    0.00010646900050544
 259    -0.0002337159461572
 260    1.8881227359563e-06
 261    -1.2078831583359e-05
 262    -5.0443803218602e-06
 263    7.5808906729941e-06
 264    5.9528297418717e-06
 265    -4.9392062633085e-06
 266    2.6514397845102e-05
 267    -8.010288435355e-06
 268    3.9366658790444e-05
 269    -6.8545281323499e-05
 270    2.4404369677491e-05
 271    0.0031104710287935
 272    -0.00011170623887871
 273    -0.00024105005325591
 274    0.00014130587443391
 275    0.0020077253911182
 276    0.00057486137201707
 277    -0.003221333032058
 278    0.00021806829835768
 279    -0.00021153540039899
 280    0.00014371907685183