[Molden Format]
made by pyscf v[2.0.1]
[Atoms] (AU)
C   1   6     0.69100024069495     0.64692934212497    -3.48223131168734
H   2   1     2.68052439835215     1.13355088667581    -3.25784032595959
C   3   6    -0.36286361514353     0.85440132525350    -5.97030179416329
H   4   1    -2.35448549056350     0.36322488588432    -6.17995817799568
C   5   6     0.93697958950647     1.61209284601065    -8.05828437675987
H   6   1     2.92721069186250     2.10853558287052    -7.87534295441726
C   7   6    -0.17413039189613     1.80008207487984   -10.52534301739428
H   8   1    -2.16943049770440     1.29533627648343   -10.67939296478009
H   9   1     1.55630230933264    -1.92953025311848    12.99630010417381
C   10   6     0.75233899783373    -2.21270439606859    11.10705728099195
H   11   1    -0.43433408176896    -3.90944857543337    11.22216085348160
C   12   6     2.86362581169447    -2.63237380608325     9.17926416459635
H   13   1     4.39038949906562    -1.24955421532309     9.49899813488174
H   14   1     3.74629220184371    -4.48798724298246     9.47414880962803
C   15   6     2.02478325622942    -2.42177285713224     6.44560829586187
C   16   6     3.88048732732831    -3.58795445236593     4.61402886975252
C   17   6    -0.18412382264649    -1.30464291231236     5.76021113881606
C   18   6    -2.10044360460382    -0.26837831862807     7.71610340970501
C   19   6    -3.08956938678556     2.35282328352614     6.88693925042618
C   20   6    -4.37372924094212    -2.09766595985142     7.93610724215954
C   21   6    -0.83850430593104     0.06372213486551    10.33002307643668
H   22   1     0.38411922142983     1.74281358590180    10.27380136539346
H   23   1    -2.30980003011276     0.45460143923765    11.73986301804329
H   24   1     4.58527064636731    -5.38706904479673     5.36778158023404
H   25   1     5.54944938091628    -2.37631462201630     4.35398898404058
H   26   1     3.06633019144754    -3.94118377051822     2.75255466032570
H   27   1    -4.17727778763546     2.26573369145191     5.12914900957504
H   28   1    -1.52662344935358     3.68001877441469     6.59540397151878
H   29   1    -4.32916174393862     3.13643051473529     8.35225460094913
H   30   1    -5.32329548507875    -2.36691813603695     6.11583672741581
H   31   1    -5.77989366598289    -1.33896741838552     9.25748940451935
H   32   1    -3.79310905209871    -3.96389819308585     8.61386170106276
C   33   6    -1.01100794815762    -1.06331657313199     3.11929490450892
C   34   6     0.37686231029920    -0.33275864510088     1.09165013596992
H   35   1    -3.01671213911428    -1.40297922289257     2.77827895090755
C   36   6    -0.64382707979748    -0.11591880174763    -1.42063131255788
H   37   1     2.35569259790262     0.17174499287298     1.33641070253857
H   38   1    -2.63317482972383    -0.60229203504227    -1.66119700396716
C   39   6     1.04406642127022     2.54697835791677   -12.65486785204246
C   40   6    -0.25769856063703     2.67711278008941   -15.08293200861523
H   41   1     3.03094671002655     3.07573165426063   -12.63261900496242
O   42   8     0.71886931482866     3.33224024015006   -17.06735820381613
H   43   1    -2.28855418566595     2.11893682007881   -15.01778643592878
[GTO]
1 0
 s    6 1.00
             3047.5249  0.0018347001629433
             457.36951    0.01403730124668
             103.94869   0.068842606114048
             29.210155    0.23218442062076
              9.286663    0.46794134155879
              3.163927    0.36231203217765
 s    3 1.00
             7.8682724   -0.11933240861517
             1.8812885   -0.16085421161283
             0.5442493     1.1434564825515
 s    1 1.00
             0.1687144                   1
 p    3 1.00
             7.8682724   0.068999095584993
             1.8812885    0.31642397975315
             0.5442493    0.74430825237435
 p    1 1.00
             0.1687144                   1
 d    1 1.00
                   0.8                   1

2 0
 s    3 1.00
             18.731137    0.03349459952309
             2.8253937    0.23472694665786
             0.6401217    0.81375731841339
 s    1 1.00
             0.1612778                   1

3 0
 s    6 1.00
             3047.5249  0.0018347001629433
             457.36951    0.01403730124668
             103.94869   0.068842606114048
             29.210155    0.23218442062076
              9.286663    0.46794134155879
              3.163927    0.36231203217765
 s    3 1.00
             7.8682724   -0.11933240861517
             1.8812885   -0.16085421161283
             0.5442493     1.1434564825515
 s    1 1.00
             0.1687144                   1
 p    3 1.00
             7.8682724   0.068999095584993
             1.8812885    0.31642397975315
             0.5442493    0.74430825237435
 p    1 1.00
             0.1687144                   1
 d    1 1.00
                   0.8                   1

4 0
 s    3 1.00
             18.731137    0.03349459952309
             2.8253937    0.23472694665786
             0.6401217    0.81375731841339
 s    1 1.00
             0.1612778                   1

5 0
 s    6 1.00
             3047.5249  0.0018347001629433
             457.36951    0.01403730124668
             103.94869   0.068842606114048
             29.210155    0.23218442062076
              9.286663    0.46794134155879
              3.163927    0.36231203217765
 s    3 1.00
             7.8682724   -0.11933240861517
             1.8812885   -0.16085421161283
             0.5442493     1.1434564825515
 s    1 1.00
             0.1687144                   1
 p    3 1.00
             7.8682724   0.068999095584993
             1.8812885    0.31642397975315
             0.5442493    0.74430825237435
 p    1 1.00
             0.1687144                   1
 d    1 1.00
                   0.8                   1

6 0
 s    3 1.00
             18.731137    0.03349459952309
             2.8253937    0.23472694665786
             0.6401217    0.81375731841339
 s    1 1.00
             0.1612778                   1

7 0
 s    6 1.00
             3047.5249  0.0018347001629433
             457.36951    0.01403730124668
             103.94869   0.068842606114048
             29.210155    0.23218442062076
              9.286663    0.46794134155879
              3.163927    0.36231203217765
 s    3 1.00
             7.8682724   -0.11933240861517
             1.8812885   -0.16085421161283
             0.5442493     1.1434564825515
 s    1 1.00
             0.1687144                   1
 p    3 1.00
             7.8682724   0.068999095584993
             1.8812885    0.31642397975315
             0.5442493    0.74430825237435
 p    1 1.00
             0.1687144                   1
 d    1 1.00
                   0.8                   1

8 0
 s    3 1.00
             18.731137    0.03349459952309
             2.8253937    0.23472694665786
             0.6401217    0.81375731841339
 s    1 1.00
             0.1612778                   1

9 0
 s    3 1.00
             18.731137    0.03349459952309
             2.8253937    0.23472694665786
             0.6401217    0.81375731841339
 s    1 1.00
             0.1612778                   1

10 0
 s    6 1.00
             3047.5249  0.0018347001629433
             457.36951    0.01403730124668
             103.94869   0.068842606114048
             29.210155    0.23218442062076
              9.286663    0.46794134155879
              3.163927    0.36231203217765
 s    3 1.00
             7.8682724   -0.11933240861517
             1.8812885   -0.16085421161283
             0.5442493     1.1434564825515
 s    1 1.00
             0.1687144                   1
 p    3 1.00
             7.8682724   0.068999095584993
             1.8812885    0.31642397975315
             0.5442493    0.74430825237435
 p    1 1.00
             0.1687144                   1
 d    1 1.00
                   0.8                   1

11 0
 s    3 1.00
             18.731137    0.03349459952309
             2.8253937    0.23472694665786
             0.6401217    0.81375731841339
 s    1 1.00
             0.1612778                   1

12 0
 s    6 1.00
             3047.5249  0.0018347001629433
             457.36951    0.01403730124668
             103.94869   0.068842606114048
             29.210155    0.23218442062076
              9.286663    0.46794134155879
              3.163927    0.36231203217765
 s    3 1.00
             7.8682724   -0.11933240861517
             1.8812885   -0.16085421161283
             0.5442493     1.1434564825515
 s    1 1.00
             0.1687144                   1
 p    3 1.00
             7.8682724   0.068999095584993
             1.8812885    0.31642397975315
             0.5442493    0.74430825237435
 p    1 1.00
             0.1687144                   1
 d    1 1.00
                   0.8                   1

13 0
 s    3 1.00
             18.731137    0.03349459952309
             2.8253937    0.23472694665786
             0.6401217    0.81375731841339
 s    1 1.00
             0.1612778                   1

14 0
 s    3 1.00
             18.731137    0.03349459952309
             2.8253937    0.23472694665786
             0.6401217    0.81375731841339
 s    1 1.00
             0.1612778                   1

15 0
 s    6 1.00
             3047.5249  0.0018347001629433
             457.36951    0.01403730124668
             103.94869   0.068842606114048
             29.210155    0.23218442062076
              9.286663    0.46794134155879
              3.163927    0.36231203217765
 s    3 1.00
             7.8682724   -0.11933240861517
             1.8812885   -0.16085421161283
             0.5442493     1.1434564825515
 s    1 1.00
             0.1687144                   1
 p    3 1.00
             7.8682724   0.068999095584993
             1.8812885    0.31642397975315
             0.5442493    0.74430825237435
 p    1 1.00
             0.1687144                   1
 d    1 1.00
                   0.8                   1

16 0
 s    6 1.00
             3047.5249  0.0018347001629433
             457.36951    0.01403730124668
             103.94869   0.068842606114048
             29.210155    0.23218442062076
              9.286663    0.46794134155879
              3.163927    0.36231203217765
 s    3 1.00
             7.8682724   -0.11933240861517
             1.8812885   -0.16085421161283
             0.5442493     1.1434564825515
 s    1 1.00
             0.1687144                   1
 p    3 1.00
             7.8682724   0.068999095584993
             1.8812885    0.31642397975315
             0.5442493    0.74430825237435
 p    1 1.00
             0.1687144                   1
 d    1 1.00
                   0.8                   1

17 0
 s    6 1.00
             3047.5249  0.0018347001629433
             457.36951    0.01403730124668
             103.94869   0.068842606114048
             29.210155    0.23218442062076
              9.286663    0.46794134155879
              3.163927    0.36231203217765
 s    3 1.00
             7.8682724   -0.11933240861517
             1.8812885   -0.16085421161283
             0.5442493     1.1434564825515
 s    1 1.00
             0.1687144                   1
 p    3 1.00
             7.8682724   0.068999095584993
             1.8812885    0.31642397975315
             0.5442493    0.74430825237435
 p    1 1.00
             0.1687144                   1
 d    1 1.00
                   0.8                   1

18 0
 s    6 1.00
             3047.5249  0.0018347001629433
             457.36951    0.01403730124668
             103.94869   0.068842606114048
             29.210155    0.23218442062076
              9.286663    0.46794134155879
              3.163927    0.36231203217765
 s    3 1.00
             7.8682724   -0.11933240861517
             1.8812885   -0.16085421161283
             0.5442493     1.1434564825515
 s    1 1.00
             0.1687144                   1
 p    3 1.00
             7.8682724   0.068999095584993
             1.8812885    0.31642397975315
             0.5442493    0.74430825237435
 p    1 1.00
             0.1687144                   1
 d    1 1.00
                   0.8                   1

19 0
 s    6 1.00
             3047.5249  0.0018347001629433
             457.36951    0.01403730124668
             103.94869   0.068842606114048
             29.210155    0.23218442062076
              9.286663    0.46794134155879
              3.163927    0.36231203217765
 s    3 1.00
             7.8682724   -0.11933240861517
             1.8812885   -0.16085421161283
             0.5442493     1.1434564825515
 s    1 1.00
             0.1687144                   1
 p    3 1.00
             7.8682724   0.068999095584993
             1.8812885    0.31642397975315
             0.5442493    0.74430825237435
 p    1 1.00
             0.1687144                   1
 d    1 1.00
                   0.8                   1

20 0
 s    6 1.00
             3047.5249  0.0018347001629433
             457.36951    0.01403730124668
             103.94869   0.068842606114048
             29.210155    0.23218442062076
              9.286663    0.46794134155879
              3.163927    0.36231203217765
 s    3 1.00
             7.8682724   -0.11933240861517
             1.8812885   -0.16085421161283
             0.5442493     1.1434564825515
 s    1 1.00
             0.1687144                   1
 p    3 1.00
             7.8682724   0.068999095584993
             1.8812885    0.31642397975315
             0.5442493    0.74430825237435
 p    1 1.00
             0.1687144                   1
 d    1 1.00
                   0.8                   1

21 0
 s    6 1.00
             3047.5249  0.0018347001629433
             457.36951    0.01403730124668
             103.94869   0.068842606114048
             29.210155    0.23218442062076
              9.286663    0.46794134155879
              3.163927    0.36231203217765
 s    3 1.00
             7.8682724   -0.11933240861517
             1.8812885   -0.16085421161283
             0.5442493     1.1434564825515
 s    1 1.00
             0.1687144                   1
 p    3 1.00
             7.8682724   0.068999095584993
             1.8812885    0.31642397975315
             0.5442493    0.74430825237435
 p    1 1.00
             0.1687144                   1
 d    1 1.00
                   0.8                   1

22 0
 s    3 1.00
             18.731137    0.03349459952309
             2.8253937    0.23472694665786
             0.6401217    0.81375731841339
 s    1 1.00
             0.1612778                   1

23 0
 s    3 1.00
             18.731137    0.03349459952309
             2.8253937    0.23472694665786
             0.6401217    0.81375731841339
 s    1 1.00
             0.1612778                   1

24 0
 s    3 1.00
             18.731137    0.03349459952309
             2.8253937    0.23472694665786
             0.6401217    0.81375731841339
 s    1 1.00
             0.1612778                   1

25 0
 s    3 1.00
             18.731137    0.03349459952309
             2.8253937    0.23472694665786
             0.6401217    0.81375731841339
 s    1 1.00
             0.1612778                   1

26 0
 s    3 1.00
             18.731137    0.03349459952309
             2.8253937    0.23472694665786
             0.6401217    0.81375731841339
 s    1 1.00
             0.1612778                   1

27 0
 s    3 1.00
             18.731137    0.03349459952309
             2.8253937    0.23472694665786
             0.6401217    0.81375731841339
 s    1 1.00
             0.1612778                   1

28 0
 s    3 1.00
             18.731137    0.03349459952309
             2.8253937    0.23472694665786
             0.6401217    0.81375731841339
 s    1 1.00
             0.1612778                   1

29 0
 s    3 1.00
             18.731137    0.03349459952309
             2.8253937    0.23472694665786
             0.6401217    0.81375731841339
 s    1 1.00
             0.1612778                   1

30 0
 s    3 1.00
             18.731137    0.03349459952309
             2.8253937    0.23472694665786
             0.6401217    0.81375731841339
 s    1 1.00
             0.1612778                   1

31 0
 s    3 1.00
             18.731137    0.03349459952309
             2.8253937    0.23472694665786
             0.6401217    0.81375731841339
 s    1 1.00
             0.1612778                   1

32 0
 s    3 1.00
             18.731137    0.03349459952309
             2.8253937    0.23472694665786
             0.6401217    0.81375731841339
 s    1 1.00
             0.1612778                   1

33 0
 s    6 1.00
             3047.5249  0.0018347001629433
             457.36951    0.01403730124668
             103.94869   0.068842606114048
             29.210155    0.23218442062076
              9.286663    0.46794134155879
              3.163927    0.36231203217765
 s    3 1.00
             7.8682724   -0.11933240861517
             1.8812885   -0.16085421161283
             0.5442493     1.1434564825515
 s    1 1.00
             0.1687144                   1
 p    3 1.00
             7.8682724   0.068999095584993
             1.8812885    0.31642397975315
             0.5442493    0.74430825237435
 p    1 1.00
             0.1687144                   1
 d    1 1.00
                   0.8                   1

34 0
 s    6 1.00
             3047.5249  0.0018347001629433
             457.36951    0.01403730124668
             103.94869   0.068842606114048
             29.210155    0.23218442062076
              9.286663    0.46794134155879
              3.163927    0.36231203217765
 s    3 1.00
             7.8682724   -0.11933240861517
             1.8812885   -0.16085421161283
             0.5442493     1.1434564825515
 s    1 1.00
             0.1687144                   1
 p    3 1.00
             7.8682724   0.068999095584993
             1.8812885    0.31642397975315
             0.5442493    0.74430825237435
 p    1 1.00
             0.1687144                   1
 d    1 1.00
                   0.8                   1

35 0
 s    3 1.00
             18.731137    0.03349459952309
             2.8253937    0.23472694665786
             0.6401217    0.81375731841339
 s    1 1.00
             0.1612778                   1

36 0
 s    6 1.00
             3047.5249  0.0018347001629433
             457.36951    0.01403730124668
             103.94869   0.068842606114048
             29.210155    0.23218442062076
              9.286663    0.46794134155879
              3.163927    0.36231203217765
 s    3 1.00
             7.8682724   -0.11933240861517
             1.8812885   -0.16085421161283
             0.5442493     1.1434564825515
 s    1 1.00
             0.1687144                   1
 p    3 1.00
             7.8682724   0.068999095584993
             1.8812885    0.31642397975315
             0.5442493    0.74430825237435
 p    1 1.00
             0.1687144                   1
 d    1 1.00
                   0.8                   1

37 0
 s    3 1.00
             18.731137    0.03349459952309
             2.8253937    0.23472694665786
             0.6401217    0.81375731841339
 s    1 1.00
             0.1612778                   1

38 0
 s    3 1.00
             18.731137    0.03349459952309
             2.8253937    0.23472694665786
             0.6401217    0.81375731841339
 s    1 1.00
             0.1612778                   1

39 0
 s    6 1.00
             3047.5249  0.0018347001629433
             457.36951    0.01403730124668
             103.94869   0.068842606114048
             29.210155    0.23218442062076
              9.286663    0.46794134155879
              3.163927    0.36231203217765
 s    3 1.00
             7.8682724   -0.11933240861517
             1.8812885   -0.16085421161283
             0.5442493     1.1434564825515
 s    1 1.00
             0.1687144                   1
 p    3 1.00
             7.8682724   0.068999095584993
             1.8812885    0.31642397975315
             0.5442493    0.74430825237435
 p    1 1.00
             0.1687144                   1
 d    1 1.00
                   0.8                   1

40 0
 s    6 1.00
             3047.5249  0.0018347001629433
             457.36951    0.01403730124668
             103.94869   0.068842606114048
             29.210155    0.23218442062076
              9.286663    0.46794134155879
              3.163927    0.36231203217765
 s    3 1.00
             7.8682724   -0.11933240861517
             1.8812885   -0.16085421161283
             0.5442493     1.1434564825515
 s    1 1.00
             0.1687144                   1
 p    3 1.00
             7.8682724   0.068999095584993
             1.8812885    0.31642397975315
             0.5442493    0.74430825237435
 p    1 1.00
             0.1687144                   1
 d    1 1.00
                   0.8                   1

41 0
 s    3 1.00
             18.731137    0.03349459952309
             2.8253937    0.23472694665786
             0.6401217    0.81375731841339
 s    1 1.00
             0.1612778                   1

42 0
 s    6 1.00
             5484.6717   0.001831099805527
             825.23495   0.013950098518422
             188.04696    0.06844509273075
               52.9645    0.23271427528445
              16.89757    0.47019295006289
             5.7996353    0.35852086192309
 s    3 1.00
             15.539616   -0.11077750382508
             3.5999336   -0.14802630511126
             1.0137618     1.1307670390447
 s    1 1.00
             0.2700058                   1
 p    3 1.00
             15.539616   0.070874299543311
             3.5999336    0.33975279781076
             1.0137618    0.72715859531445
 p    1 1.00
             0.2700058                   1
 d    1 1.00
                   0.8                   1

43 0
 s    3 1.00
             18.731137    0.03349459952309
             2.8253937    0.23472694665786
             0.6401217    0.81375731841339
 s    1 1.00
             0.1612778                   1

[5d]
[7f]
[9g]

[MO]
 Sym= A
 Ene=               0
 Spin= Alpha
 Occup=    1.00000
   1    -0.0040283741418302
   2    -7.2949414872967e-05
   3    -0.00055448503737136
   4    2.4297803487576e-05
   5    1.4341924398739e-05
   6    -4.0108394910899e-05
   7    -0.00011527293856039
   8    -0.00036511935706979
   9    0.0017020906587673
  10    -1.0525744730566e-05
  11    -4.3879270290632e-05
  12    -5.9880716632793e-06
  13    -1.2921289221591e-05
  14    2.1415448018227e-06
  15    9.0591029550703e-05
  16    -0.00011857681635584
  17    -0.016662010452618
  18    -0.00031804214055617
  19    0.00013467457598185
  20    -9.9818598858128e-05
  21    1.4701134105911e-05
  22    -0.00020913679784107
  23    0.00082221339843066
  24    -6.2688357596751e-05
  25    0.0014324177480741
  26    7.6639406415879e-05
  27    8.4459967181983e-06
  28    7.5434503762398e-06
  29    -0.00013663201474775
  30    -8.0820476555988e-05
  31    0.00018677088494573
  32    0.00060654424182558
  33     -0.01160386067892
  34    0.0013543346473828
  35    -0.0082710668417635
  36    -0.00046392793696203
  37    0.00012983972122489
  38    -0.0012912313722759
  39    -2.2128550424583e-05
  40    -0.0008624911026227
  41    0.0043547989970483
  42      0.00102073920243
  43    0.0010320031090821
  44    -0.0001286714555506
  45    0.00027882669574843
  46    -5.0325203720711e-05
  47    0.00047687175958482
  48    0.00068964249300963
  49     -0.99480443727165
  50    -0.038093691031165
  51     0.031488326244803
  52    -0.00059648520449983
  53    -0.0001072972861771
  54    -0.00026974207885551
  55    0.0038125008327476
  56    0.00096863185157995
  57    0.00028194770325538
  58    -0.00085971962009721
  59    0.00032022056227503
  60    0.00044756901547895
  61    -0.00020087745555999
  62    -0.00020973320797709
  63    0.0012380313426375
  64    -0.0045147691439645
  65    8.5672038455233e-07
  66    9.4099877519088e-07
  67    -2.3212110805341e-08
  68    1.2348438043003e-06
  69    -4.3174873757325e-06
  70    -7.1386355136698e-07
  71    1.1167039101157e-06
  72    -1.7802779695211e-07
  73    -2.6474034489916e-06
  74    -3.723466542366e-06
  75    -1.1470809425819e-06
  76    5.5805086310717e-08
  77    1.8886278067839e-07
  78    -2.1125520352656e-07
  79    -2.085728550461e-07
  80    1.6572034106054e-07
  81    -4.5839462103598e-07
  82    -7.9829672068237e-07
  83    -3.9270553353513e-07
  84    9.2071423585723e-07
  85    2.8415498713623e-05
  86    -1.7843311452862e-06
  87    4.4567439621224e-07
  88    -3.4998793131152e-06
  89    -8.7564800991829e-06
  90    1.3444924919921e-05
  91    -5.928509460077e-06
  92    -4.5098444293149e-07
  93    7.4280743530175e-07
  94    -7.3897360739531e-07
  95    8.518206602193e-08
  96    4.0572289736418e-07
  97    -1.1898631162536e-06
  98    -1.7817604366791e-06
  99    -6.0778544612411e-07
 100    2.6089864146713e-06
 101    9.2936642286624e-07
 102    4.9267649085293e-07
 103    -4.1401437588643e-05
 104    7.1125219158834e-07
 105    -1.4556594677041e-06
 106    2.8184821890911e-06
 107    5.4093705819348e-05
 108    -4.7513787126291e-05
 109    -6.3488074899211e-05
 110    1.6032718458307e-06
 111    6.4462118241719e-07
 112    -3.9537525157588e-07
 113    -4.2190507461843e-07
 114    1.5427172713937e-06
 115    1.5345688780927e-06
 116    9.2962677743169e-06
 117    -7.8185223664147e-05
 118    1.1577001275101e-06
 119    -1.3119748784195e-06
 120    -1.7457775341029e-06
 121    1.9427460445431e-05
 122    -1.1155389596149e-05
 123    -9.8651849725605e-06
 124    -1.2353781714862e-10
 125    8.7318023842715e-07
 126    -1.4203964121451e-07
 127    -5.7338786359081e-07
 128    7.4503276284847e-07
 129    2.8090275422464e-07
 130    1.8470427786772e-05
 131    -0.00010235347128549
 132    -6.6418171909708e-06
 133    -1.0323605599287e-06
 134    -1.2542394229323e-05
 135    7.0589407129696e-05
 136    -7.8222022742257e-06
 137    0.00016866282477375
 138    -4.7648937235322e-06
 139    -3.1844946161577e-06
 140    -7.0611351970178e-07
 141    -7.2446454481601e-07
 142    -8.5892287861826e-07
 143    1.1164900368542e-06
 144    9.3057722624926e-06
 145    -3.4523446213808e-05
 146    -1.3738314979262e-06
 147    -6.8632316997415e-07
 148    -3.2566307256643e-06
 149    -1.6820898652289e-05
 150    8.0933621949651e-06
 151    2.3907750810109e-05
 152    2.5377975732361e-06
 153    1.2402216603329e-06
 154    7.509205114114e-07
 155    -1.5104438949379e-06
 156    1.8319779523264e-06
 157    -5.1473013759249e-07
 158    -3.0377499086634e-06
 159    9.4305440890395e-06
 160    -1.5396777779617e-06
 161    -3.610182026208e-07
 162    2.6325100780006e-07
 163    1.3638694348034e-05
 164    -4.5337894481701e-06
 165    -5.8237870976925e-06
 166    -1.3594474747588e-06
 167    5.2223642557526e-07
 168    1.9304463279693e-07
 169    -9.1948380301116e-08
 170    -5.8570121429868e-07
 171      8.5990960771e-08
 172    -1.2891778577121e-07
 173    1.1274081402107e-05
 174    1.5632633586465e-06
 175    3.0022827855476e-07
 176    -3.1378495801952e-06
 177    -6.8432694567257e-06
 178    -3.6409065216215e-06
 179    -9.9818820563237e-07
 180    -2.7485510648681e-09
 181    -9.6928042739138e-07
 182    -2.6516729235871e-07
 183    6.0403574740722e-07
 184    -6.6081248406555e-07
 185    6.0120617693765e-07
 186    8.5237817251577e-06
 187    -2.0125828434101e-05
 188    5.9681813704502e-07
 189    9.8624597888805e-08
 190    -2.3840851587223e-06
 191    -2.7535101376613e-06
 192    1.6409628494954e-06
 193    1.7509732142744e-05
 194    -9.7710713768511e-07
 195    -2.7342603983788e-07
 196    -7.5609547702088e-07
 197    -8.9246171966736e-08
 198    1.3829867214927e-07
 199    2.2520304949449e-06
 200    2.3673425990491e-06
 201    1.0331299041006e-07
 202    -7.0213892279458e-06
 203    2.9746317430607e-06
 204    -2.7739330980681e-07
 205    6.9683518776874e-07
 206    7.9791782165675e-06
 207    -1.0852509773449e-06
 208    1.328853719118e-05
 209    -2.3501056794035e-06
 210    4.5061862034855e-06
 211    -1.8883075453174e-06
 212    -5.4503681193415e-06
 213    1.1632620123897e-07
 214    5.4879589198865e-06
 215    3.2850981971177e-06
 216    -1.4264369157072e-05
 217    -1.3623126128929e-06
 218    -3.8632540999861e-06
 219    -1.0743585245783e-06
 220    -1.2982538639308e-06
 221    9.4827516261193e-06
 222    1.6888934613733e-05
 223    -0.00013553154904038
 224    -3.8695028965937e-06
 225    -3.4204846364205e-06
 226    8.9040588013961e-06
 227    -4.0367963825662e-05
 228    -6.3897182006062e-05
 229    0.00029376192158421
 230    -4.1632284512466e-07
 231    1.1543600283394e-05
 232    5.1936181418916e-06
 233    -6.3616227991218e-06
 234    -5.686632128765e-06
 235    -6.1953653460086e-06
 236    3.9760743490723e-05
 237    0.00020522026974184
 238    1.5047969325013e-05
 239    1.3086767965357e-05
 240    -4.5870895410178e-05
 241    -2.4628019906784e-05
 242    -3.6693051738798e-05
 243    0.00017540921596369
 244    1.7900425495733e-06
 245    -1.5763957350814e-05
 246    -3.2388663276869e-06
 247    -7.1290229231101e-06
 248    -9.3797506450411e-07
 249    3.5054227098723e-06
 250    5.5102308737817e-06
 251    3.9976087726608e-05
 252    0.0001106225767655
 253    -0.0009256132907092
 254    -2.466865211277e-05
 255    -9.2624038330677e-06
 256    1.5611907661176e-05
 257    -0.00057215783990317
 258    -0.00025124804799181
 259    0.00049639815075728
 260    -3.4008111297568e-06
 261    2.8628761765876e-05
 262    1.2819190165319e-05
 263    -1.3863174843439e-05
 264    -1.4961907295353e-05
 265     2.60908403716e-05
 266    -3.6526306761712e-05
 267    5.7646584925161e-05
 268    -0.00021789448977081
 269    0.00016706324112227
 270    -0.00016988052472432
 271    -0.011388830234069
 272    -0.0026896627405676
 273    -0.0013460056871141
 274     0.003164463360907
 275    -0.00051024681190032
 276    0.00059727185082908
 277    -0.0037237626842171
 278    0.00075186713235746
 279    -0.0011793720498834