[Molden Format]
made by pyscf v[2.0.1]
[Atoms] (AU)
C   1   6     0.69100024066471     0.64692934207205    -3.48223131169301
H   2   1     2.68052439830868     1.13355088658700    -3.25784032593313
C   3   6    -0.36286361513219     0.85440132524594    -5.97030179418974
H   4   1    -2.35448549047279     0.36322488579172    -6.17995817793143
C   5   6     0.93697958957450     1.61209284601821    -8.05828437677121
H   6   1     0.88481995546627     3.59633991549139    -8.60690604548455
C   7   6     2.39466048338875    -0.07229584893402    -9.60563204708460
H   8   1     2.43004158789144    -2.05446799383120    -9.03164251308345
H   9   1     1.55630230933075    -1.92953025305990    12.99630010416247
C   10   6     0.75233899775814    -2.21270439606481    11.10705728102219
H   11   1    -0.43433408177274    -3.90944857546550    11.22216085340412
C   12   6     2.86362581178706    -2.63237380607947     9.17926416456045
H   13   1     4.39038949912609    -1.24955421540245     9.49899813497433
H   14   1     3.74629220191363    -4.48798724300892     9.47414880959024
C   15   6     2.02478325613682    -2.42177285709634     6.44560829588644
C   16   6     3.88048732735477    -3.58795445234514     4.61402886975252
C   17   6    -0.18412382258602    -1.30464291234259     5.76021113872346
C   18   6    -2.10044360464350    -0.26837831858460     7.71610340967100
C   19   6    -3.08956938670431     2.35282328359417     6.88693925039594
C   20   6    -4.37372924086464    -2.09766595989678     7.93610724222001
C   21   6    -0.83850430601230     0.06372213486173    10.33002307638377
H   22   1     0.38411922151109     1.74281358582432    10.27380136542181
H   23   1    -2.30980003007874     0.45460143924521    11.73986301809809
H   24   1     4.58527064644668    -5.38706904487420     5.36778158031719
H   25   1     5.54944938085014    -2.37631462192748     4.35398898413318
H   26   1     3.06633019150423    -3.94118377050688     2.75255466040884
H   27   1    -4.17727778763735     2.26573369139522     5.12914900961283
H   28   1    -1.52662344944051     3.68001877445626     6.59540397144508
H   29   1    -4.32916174397830     3.13643051467482     8.35225460090378
H   30   1    -5.32329548508442    -2.36691813602939     6.11583672749896
H   31   1    -5.77989366602257    -1.33896741843465     9.25748940450990
H   32   1    -3.79310905208926    -3.96389819310853     8.61386170102686
C   33   6    -1.01100794811226    -1.06331657314144     3.11929490449947
C   34   6     0.37686231036534    -0.33275864505552     1.09165013605873
H   35   1    -3.01671213906703    -1.40297922279997     2.77827895090944
C   36   6    -0.64382707979370    -0.11591880174385    -1.42063131251064
H   37   1     2.35569259782137     0.17174499283897     1.33641070251401
H   38   1    -2.63317482980319    -0.60229203511219    -1.66119700387645
C   39   6     3.71533383510959     0.59576232705089   -11.69997054074953
C   40   6     5.14333780052268    -1.26490852400141   -13.15108433486960
H   41   1     3.75910290759049     2.53760054456126   -12.37459410036833
O   42   8     6.36836167706676    -0.79692659131490   -15.04874962161569
H   43   1     5.04579305514285    -3.22830651971947   -12.39231411193817
[GTO]
1 0
 s    6 1.00
             3047.5249  0.0018347001629433
             457.36951    0.01403730124668
             103.94869   0.068842606114048
             29.210155    0.23218442062076
              9.286663    0.46794134155879
              3.163927    0.36231203217765
 s    3 1.00
             7.8682724   -0.11933240861517
             1.8812885   -0.16085421161283
             0.5442493     1.1434564825515
 s    1 1.00
             0.1687144                   1
 p    3 1.00
             7.8682724   0.068999095584993
             1.8812885    0.31642397975315
             0.5442493    0.74430825237435
 p    1 1.00
             0.1687144                   1
 d    1 1.00
                   0.8                   1

2 0
 s    3 1.00
             18.731137    0.03349459952309
             2.8253937    0.23472694665786
             0.6401217    0.81375731841339
 s    1 1.00
             0.1612778                   1

3 0
 s    6 1.00
             3047.5249  0.0018347001629433
             457.36951    0.01403730124668
             103.94869   0.068842606114048
             29.210155    0.23218442062076
              9.286663    0.46794134155879
              3.163927    0.36231203217765
 s    3 1.00
             7.8682724   -0.11933240861517
             1.8812885   -0.16085421161283
             0.5442493     1.1434564825515
 s    1 1.00
             0.1687144                   1
 p    3 1.00
             7.8682724   0.068999095584993
             1.8812885    0.31642397975315
             0.5442493    0.74430825237435
 p    1 1.00
             0.1687144                   1
 d    1 1.00
                   0.8                   1

4 0
 s    3 1.00
             18.731137    0.03349459952309
             2.8253937    0.23472694665786
             0.6401217    0.81375731841339
 s    1 1.00
             0.1612778                   1

5 0
 s    6 1.00
             3047.5249  0.0018347001629433
             457.36951    0.01403730124668
             103.94869   0.068842606114048
             29.210155    0.23218442062076
              9.286663    0.46794134155879
              3.163927    0.36231203217765
 s    3 1.00
             7.8682724   -0.11933240861517
             1.8812885   -0.16085421161283
             0.5442493     1.1434564825515
 s    1 1.00
             0.1687144                   1
 p    3 1.00
             7.8682724   0.068999095584993
             1.8812885    0.31642397975315
             0.5442493    0.74430825237435
 p    1 1.00
             0.1687144                   1
 d    1 1.00
                   0.8                   1

6 0
 s    3 1.00
             18.731137    0.03349459952309
             2.8253937    0.23472694665786
             0.6401217    0.81375731841339
 s    1 1.00
             0.1612778                   1

7 0
 s    6 1.00
             3047.5249  0.0018347001629433
             457.36951    0.01403730124668
             103.94869   0.068842606114048
             29.210155    0.23218442062076
              9.286663    0.46794134155879
              3.163927    0.36231203217765
 s    3 1.00
             7.8682724   -0.11933240861517
             1.8812885   -0.16085421161283
             0.5442493     1.1434564825515
 s    1 1.00
             0.1687144                   1
 p    3 1.00
             7.8682724   0.068999095584993
             1.8812885    0.31642397975315
             0.5442493    0.74430825237435
 p    1 1.00
             0.1687144                   1
 d    1 1.00
                   0.8                   1

8 0
 s    3 1.00
             18.731137    0.03349459952309
             2.8253937    0.23472694665786
             0.6401217    0.81375731841339
 s    1 1.00
             0.1612778                   1

9 0
 s    3 1.00
             18.731137    0.03349459952309
             2.8253937    0.23472694665786
             0.6401217    0.81375731841339
 s    1 1.00
             0.1612778                   1

10 0
 s    6 1.00
             3047.5249  0.0018347001629433
             457.36951    0.01403730124668
             103.94869   0.068842606114048
             29.210155    0.23218442062076
              9.286663    0.46794134155879
              3.163927    0.36231203217765
 s    3 1.00
             7.8682724   -0.11933240861517
             1.8812885   -0.16085421161283
             0.5442493     1.1434564825515
 s    1 1.00
             0.1687144                   1
 p    3 1.00
             7.8682724   0.068999095584993
             1.8812885    0.31642397975315
             0.5442493    0.74430825237435
 p    1 1.00
             0.1687144                   1
 d    1 1.00
                   0.8                   1

11 0
 s    3 1.00
             18.731137    0.03349459952309
             2.8253937    0.23472694665786
             0.6401217    0.81375731841339
 s    1 1.00
             0.1612778                   1

12 0
 s    6 1.00
             3047.5249  0.0018347001629433
             457.36951    0.01403730124668
             103.94869   0.068842606114048
             29.210155    0.23218442062076
              9.286663    0.46794134155879
              3.163927    0.36231203217765
 s    3 1.00
             7.8682724   -0.11933240861517
             1.8812885   -0.16085421161283
             0.5442493     1.1434564825515
 s    1 1.00
             0.1687144                   1
 p    3 1.00
             7.8682724   0.068999095584993
             1.8812885    0.31642397975315
             0.5442493    0.74430825237435
 p    1 1.00
             0.1687144                   1
 d    1 1.00
                   0.8                   1

13 0
 s    3 1.00
             18.731137    0.03349459952309
             2.8253937    0.23472694665786
             0.6401217    0.81375731841339
 s    1 1.00
             0.1612778                   1

14 0
 s    3 1.00
             18.731137    0.03349459952309
             2.8253937    0.23472694665786
             0.6401217    0.81375731841339
 s    1 1.00
             0.1612778                   1

15 0
 s    6 1.00
             3047.5249  0.0018347001629433
             457.36951    0.01403730124668
             103.94869   0.068842606114048
             29.210155    0.23218442062076
              9.286663    0.46794134155879
              3.163927    0.36231203217765
 s    3 1.00
             7.8682724   -0.11933240861517
             1.8812885   -0.16085421161283
             0.5442493     1.1434564825515
 s    1 1.00
             0.1687144                   1
 p    3 1.00
             7.8682724   0.068999095584993
             1.8812885    0.31642397975315
             0.5442493    0.74430825237435
 p    1 1.00
             0.1687144                   1
 d    1 1.00
                   0.8                   1

16 0
 s    6 1.00
             3047.5249  0.0018347001629433
             457.36951    0.01403730124668
             103.94869   0.068842606114048
             29.210155    0.23218442062076
              9.286663    0.46794134155879
              3.163927    0.36231203217765
 s    3 1.00
             7.8682724   -0.11933240861517
             1.8812885   -0.16085421161283
             0.5442493     1.1434564825515
 s    1 1.00
             0.1687144                   1
 p    3 1.00
             7.8682724   0.068999095584993
             1.8812885    0.31642397975315
             0.5442493    0.74430825237435
 p    1 1.00
             0.1687144                   1
 d    1 1.00
                   0.8                   1

17 0
 s    6 1.00
             3047.5249  0.0018347001629433
             457.36951    0.01403730124668
             103.94869   0.068842606114048
             29.210155    0.23218442062076
              9.286663    0.46794134155879
              3.163927    0.36231203217765
 s    3 1.00
             7.8682724   -0.11933240861517
             1.8812885   -0.16085421161283
             0.5442493     1.1434564825515
 s    1 1.00
             0.1687144                   1
 p    3 1.00
             7.8682724   0.068999095584993
             1.8812885    0.31642397975315
             0.5442493    0.74430825237435
 p    1 1.00
             0.1687144                   1
 d    1 1.00
                   0.8                   1

18 0
 s    6 1.00
             3047.5249  0.0018347001629433
             457.36951    0.01403730124668
             103.94869   0.068842606114048
             29.210155    0.23218442062076
              9.286663    0.46794134155879
              3.163927    0.36231203217765
 s    3 1.00
             7.8682724   -0.11933240861517
             1.8812885   -0.16085421161283
             0.5442493     1.1434564825515
 s    1 1.00
             0.1687144                   1
 p    3 1.00
             7.8682724   0.068999095584993
             1.8812885    0.31642397975315
             0.5442493    0.74430825237435
 p    1 1.00
             0.1687144                   1
 d    1 1.00
                   0.8                   1

19 0
 s    6 1.00
             3047.5249  0.0018347001629433
             457.36951    0.01403730124668
             103.94869   0.068842606114048
             29.210155    0.23218442062076
              9.286663    0.46794134155879
              3.163927    0.36231203217765
 s    3 1.00
             7.8682724   -0.11933240861517
             1.8812885   -0.16085421161283
             0.5442493     1.1434564825515
 s    1 1.00
             0.1687144                   1
 p    3 1.00
             7.8682724   0.068999095584993
             1.8812885    0.31642397975315
             0.5442493    0.74430825237435
 p    1 1.00
             0.1687144                   1
 d    1 1.00
                   0.8                   1

20 0
 s    6 1.00
             3047.5249  0.0018347001629433
             457.36951    0.01403730124668
             103.94869   0.068842606114048
             29.210155    0.23218442062076
              9.286663    0.46794134155879
              3.163927    0.36231203217765
 s    3 1.00
             7.8682724   -0.11933240861517
             1.8812885   -0.16085421161283
             0.5442493     1.1434564825515
 s    1 1.00
             0.1687144                   1
 p    3 1.00
             7.8682724   0.068999095584993
             1.8812885    0.31642397975315
             0.5442493    0.74430825237435
 p    1 1.00
             0.1687144                   1
 d    1 1.00
                   0.8                   1

21 0
 s    6 1.00
             3047.5249  0.0018347001629433
             457.36951    0.01403730124668
             103.94869   0.068842606114048
             29.210155    0.23218442062076
              9.286663    0.46794134155879
              3.163927    0.36231203217765
 s    3 1.00
             7.8682724   -0.11933240861517
             1.8812885   -0.16085421161283
             0.5442493     1.1434564825515
 s    1 1.00
             0.1687144                   1
 p    3 1.00
             7.8682724   0.068999095584993
             1.8812885    0.31642397975315
             0.5442493    0.74430825237435
 p    1 1.00
             0.1687144                   1
 d    1 1.00
                   0.8                   1

22 0
 s    3 1.00
             18.731137    0.03349459952309
             2.8253937    0.23472694665786
             0.6401217    0.81375731841339
 s    1 1.00
             0.1612778                   1

23 0
 s    3 1.00
             18.731137    0.03349459952309
             2.8253937    0.23472694665786
             0.6401217    0.81375731841339
 s    1 1.00
             0.1612778                   1

24 0
 s    3 1.00
             18.731137    0.03349459952309
             2.8253937    0.23472694665786
             0.6401217    0.81375731841339
 s    1 1.00
             0.1612778                   1

25 0
 s    3 1.00
             18.731137    0.03349459952309
             2.8253937    0.23472694665786
             0.6401217    0.81375731841339
 s    1 1.00
             0.1612778                   1

26 0
 s    3 1.00
             18.731137    0.03349459952309
             2.8253937    0.23472694665786
             0.6401217    0.81375731841339
 s    1 1.00
             0.1612778                   1

27 0
 s    3 1.00
             18.731137    0.03349459952309
             2.8253937    0.23472694665786
             0.6401217    0.81375731841339
 s    1 1.00
             0.1612778                   1

28 0
 s    3 1.00
             18.731137    0.03349459952309
             2.8253937    0.23472694665786
             0.6401217    0.81375731841339
 s    1 1.00
             0.1612778                   1

29 0
 s    3 1.00
             18.731137    0.03349459952309
             2.8253937    0.23472694665786
             0.6401217    0.81375731841339
 s    1 1.00
             0.1612778                   1

30 0
 s    3 1.00
             18.731137    0.03349459952309
             2.8253937    0.23472694665786
             0.6401217    0.81375731841339
 s    1 1.00
             0.1612778                   1

31 0
 s    3 1.00
             18.731137    0.03349459952309
             2.8253937    0.23472694665786
             0.6401217    0.81375731841339
 s    1 1.00
             0.1612778                   1

32 0
 s    3 1.00
             18.731137    0.03349459952309
             2.8253937    0.23472694665786
             0.6401217    0.81375731841339
 s    1 1.00
             0.1612778                   1

33 0
 s    6 1.00
             3047.5249  0.0018347001629433
             457.36951    0.01403730124668
             103.94869   0.068842606114048
             29.210155    0.23218442062076
              9.286663    0.46794134155879
              3.163927    0.36231203217765
 s    3 1.00
             7.8682724   -0.11933240861517
             1.8812885   -0.16085421161283
             0.5442493     1.1434564825515
 s    1 1.00
             0.1687144                   1
 p    3 1.00
             7.8682724   0.068999095584993
             1.8812885    0.31642397975315
             0.5442493    0.74430825237435
 p    1 1.00
             0.1687144                   1
 d    1 1.00
                   0.8                   1

34 0
 s    6 1.00
             3047.5249  0.0018347001629433
             457.36951    0.01403730124668
             103.94869   0.068842606114048
             29.210155    0.23218442062076
              9.286663    0.46794134155879
              3.163927    0.36231203217765
 s    3 1.00
             7.8682724   -0.11933240861517
             1.8812885   -0.16085421161283
             0.5442493     1.1434564825515
 s    1 1.00
             0.1687144                   1
 p    3 1.00
             7.8682724   0.068999095584993
             1.8812885    0.31642397975315
             0.5442493    0.74430825237435
 p    1 1.00
             0.1687144                   1
 d    1 1.00
                   0.8                   1

35 0
 s    3 1.00
             18.731137    0.03349459952309
             2.8253937    0.23472694665786
             0.6401217    0.81375731841339
 s    1 1.00
             0.1612778                   1

36 0
 s    6 1.00
             3047.5249  0.0018347001629433
             457.36951    0.01403730124668
             103.94869   0.068842606114048
             29.210155    0.23218442062076
              9.286663    0.46794134155879
              3.163927    0.36231203217765
 s    3 1.00
             7.8682724   -0.11933240861517
             1.8812885   -0.16085421161283
             0.5442493     1.1434564825515
 s    1 1.00
             0.1687144                   1
 p    3 1.00
             7.8682724   0.068999095584993
             1.8812885    0.31642397975315
             0.5442493    0.74430825237435
 p    1 1.00
             0.1687144                   1
 d    1 1.00
                   0.8                   1

37 0
 s    3 1.00
             18.731137    0.03349459952309
             2.8253937    0.23472694665786
             0.6401217    0.81375731841339
 s    1 1.00
             0.1612778                   1

38 0
 s    3 1.00
             18.731137    0.03349459952309
             2.8253937    0.23472694665786
             0.6401217    0.81375731841339
 s    1 1.00
             0.1612778                   1

39 0
 s    6 1.00
             3047.5249  0.0018347001629433
             457.36951    0.01403730124668
             103.94869   0.068842606114048
             29.210155    0.23218442062076
              9.286663    0.46794134155879
              3.163927    0.36231203217765
 s    3 1.00
             7.8682724   -0.11933240861517
             1.8812885   -0.16085421161283
             0.5442493     1.1434564825515
 s    1 1.00
             0.1687144                   1
 p    3 1.00
             7.8682724   0.068999095584993
             1.8812885    0.31642397975315
             0.5442493    0.74430825237435
 p    1 1.00
             0.1687144                   1
 d    1 1.00
                   0.8                   1

40 0
 s    6 1.00
             3047.5249  0.0018347001629433
             457.36951    0.01403730124668
             103.94869   0.068842606114048
             29.210155    0.23218442062076
              9.286663    0.46794134155879
              3.163927    0.36231203217765
 s    3 1.00
             7.8682724   -0.11933240861517
             1.8812885   -0.16085421161283
             0.5442493     1.1434564825515
 s    1 1.00
             0.1687144                   1
 p    3 1.00
             7.8682724   0.068999095584993
             1.8812885    0.31642397975315
             0.5442493    0.74430825237435
 p    1 1.00
             0.1687144                   1
 d    1 1.00
                   0.8                   1

41 0
 s    3 1.00
             18.731137    0.03349459952309
             2.8253937    0.23472694665786
             0.6401217    0.81375731841339
 s    1 1.00
             0.1612778                   1

42 0
 s    6 1.00
             5484.6717   0.001831099805527
             825.23495   0.013950098518422
             188.04696    0.06844509273075
               52.9645    0.23271427528445
              16.89757    0.47019295006289
             5.7996353    0.35852086192309
 s    3 1.00
             15.539616   -0.11077750382508
             3.5999336   -0.14802630511126
             1.0137618     1.1307670390447
 s    1 1.00
             0.2700058                   1
 p    3 1.00
             15.539616   0.070874299543311
             3.5999336    0.33975279781076
             1.0137618    0.72715859531445
 p    1 1.00
             0.2700058                   1
 d    1 1.00
                   0.8                   1

43 0
 s    3 1.00
             18.731137    0.03349459952309
             2.8253937    0.23472694665786
             0.6401217    0.81375731841339
 s    1 1.00
             0.1612778                   1

[5d]
[7f]
[9g]

[MO]
 Sym= A
 Ene=               0
 Spin= Alpha
 Occup=    1.00000
   1     0.014171958272904
   2    -0.0012352072233562
   3    0.0078553466405876
   4    0.00042369484162004
   5    -0.00017521026807923
   6    0.0013277213595984
   7    0.00086192270455839
   8    0.0014816932657439
   9    -0.0061662428860864
  10    -0.0010156924628714
  11    -0.00097217462216509
  12    0.00015664112588143
  13    -0.0002081571793321
  14    5.9192801657793e-05
  15    -0.0004901075055336
  16    -0.00093681111876761
  17      0.99475313731015
  18     0.039324758376332
  19    -0.031711747487386
  20    0.0010549086820804
  21    0.00021406407205784
  22    -0.00066896757222451
  23    -0.0041405477986512
  24    -0.0012505282363714
  25    -0.00087915353478359
  26    0.0008040081818015
  27    -0.0003248375113299
  28    -0.00034683094704873
  29    0.00027352428158615
  30    0.00021286997708757
  31    -0.0013195370646358
  32    0.0041850852956463
  33     0.014042461269238
  34    -0.00033224761113533
  35    0.0013979485524698
  36    0.00095864817213231
  37    0.00036941684359528
  38    -0.0012965721093169
  39    -0.002903476276632
  40    0.0037036135701856
  41    0.0043600314887039
  42    -0.00066209427305013
  43    0.0013275576969354
  44    0.00053963742530313
  45    -0.00039736670674929
  46    -0.00041326460932386
  47    -0.00060942899816113
  48    -0.00062450852635387
  49    0.00023478425792347
  50    -0.00056907303964473
  51    0.00017393160722874
  52    0.00032077753809842
  53    1.7862931332102e-05
  54    -0.00042368322716689
  55    -0.0056464333999779
  56    0.0010953803577316
  57      0.00740257830608
  58    -0.00017908658921638
  59    -1.4375855478064e-05
  60    0.00014641578346498
  61    -0.0002333832875772
  62    -0.00025268802085934
  63    -0.00053812685778202
  64    0.00022583865405661
  65    -4.6320069190339e-06
  66    -5.6614360087427e-06
  67    1.0169414963555e-06
  68    -4.1117065220003e-06
  69    4.2820759912758e-06
  70    2.5096755951458e-06
  71    -6.4683700899462e-06
  72    1.0959627812893e-06
  73    1.0404196227537e-05
  74    2.7763060871314e-05
  75    6.2255802511859e-06
  76    -5.72359090106e-07
  77    -5.4569723473282e-07
  78    6.8007874696572e-07
  79    6.4204502636527e-07
  80    -4.9998568453217e-08
  81    3.4314121136635e-06
  82    1.6250303493668e-05
  83    2.1204275367213e-06
  84    -2.283240786964e-06
  85    -9.6338001245425e-05
  86    1.0218274265278e-05
  87    2.9446369948454e-06
  88    1.8240826766362e-05
  89    3.1089249774699e-05
  90    -7.0286832420166e-05
  91    2.6123538702578e-05
  92    1.319353315987e-06
  93    -2.3711833861083e-06
  94    4.6396653697403e-06
  95    -3.8373365886117e-07
  96    -7.8689299613855e-07
  97    1.3223764182877e-05
  98    2.3658135087884e-05
  99    -3.0045299060621e-06
 100    -2.1029315101193e-05
 101    -2.8806420138194e-06
 102    -9.6386828286052e-06
 103    0.00022340415996719
 104    -1.5974778682189e-05
 105    -2.2285809493565e-05
 106    -5.5943658034712e-06
 107    -0.00022123002702874
 108    0.00018847155163457
 109    0.00018788297856979
 110    -8.0374147623129e-06
 111    -3.07202172686e-06
 112    1.0854331667295e-06
 113    1.8722873440697e-06
 114    -6.2557867871622e-06
 115    -6.3096856564569e-06
 116    -3.249761292924e-05
 117    0.0002856300639066
 118    -6.2734771672908e-06
 119    8.9430969353572e-06
 120    1.2101109733809e-05
 121    -6.8756999798213e-05
 122    2.9616317952838e-05
 123    4.4818298437777e-05
 124    9.6910075550094e-07
 125    -3.6962284253402e-06
 126    -2.7650047735781e-06
 127    1.6490536245863e-06
 128    -2.2972393400723e-06
 129    7.9999421874361e-06
 130    -8.3584721701788e-05
 131    0.00013572467949594
 132    2.298547683311e-05
 133    -7.3318201987774e-07
 134    0.00010566368164158
 135    -0.00034312384965017
 136    2.9799711801866e-05
 137    -0.0004540153352954
 138    1.3665862872601e-05
 139    9.9196991008326e-06
 140    4.1472367040924e-06
 141    3.6189516385218e-06
 142    6.2715161751389e-06
 143    -1.1088925221164e-05
 144    -1.4509324612783e-05
 145    0.00010978864469185
 146    2.1027092256192e-05
 147    -1.0319216429264e-05
 148    -1.9553786976337e-05
 149    5.8000876593172e-05
 150    -2.7860989186273e-05
 151    -7.7350165435695e-05
 152    -1.006954675607e-05
 153    -5.3067373402722e-06
 154    -3.290685489505e-06
 155    5.3293846645577e-06
 156    -5.8428075215867e-06
 157    7.932176310447e-07
 158    1.5334914720292e-05
 159    -2.7255862335436e-05
 160    7.2113640042377e-06
 161    -3.1282869317764e-06
 162    1.4517304803031e-06
 163    -5.5584663285167e-05
 164    1.9498395852181e-05
 165    1.6056279572615e-05
 166    3.9293197914464e-06
 167    -1.5357774827017e-06
 168    2.8450518865589e-07
 169    5.5992121038101e-07
 170    1.5137062556906e-06
 171    -1.6509575172993e-06
 172    -1.202621470905e-05
 173    2.7378047500235e-05
 174    -2.6578215660793e-06
 175    1.827506712317e-06
 176    1.0568707391579e-05
 177    -9.2651096589976e-06
 178    2.1016169827703e-06
 179    -3.5084894938081e-05
 180    1.2835631829221e-06
 181    4.1014937530736e-06
 182    3.8660761243608e-07
 183    -7.7298721318336e-07
 184    1.7048435154387e-06
 185    3.5786657939922e-07
 186    -3.7295893165504e-05
 187    4.824184946593e-05
 188    3.0084155822341e-06
 189    4.6577185407387e-06
 190    2.5446113004067e-05
 191    7.713307578001e-06
 192    -5.7345093642783e-06
 193    -5.303069895629e-05
 194    4.0546002643785e-06
 195    4.8708407317084e-07
 196    3.4984790791071e-06
 197    -5.8855075266612e-07
 198    3.6252418880189e-07
 199    -7.7026184371237e-06
 200    -2.1025872380867e-07
 201    5.0856301717514e-06
 202    3.8355312448693e-05
 203    -1.3971898005592e-05
 204    -5.1789314476557e-06
 205    3.0939461226344e-06
 206    -2.550679768502e-05
 207    6.4252823033095e-06
 208    -6.7110447410188e-05
 209    7.9910230049666e-06
 210    -3.3764536060914e-05
 211    5.9400268951795e-06
 212    1.7520694208352e-05
 213    2.5800120495732e-06
 214    -1.7592099399824e-05
 215    -6.0067078726033e-06
 216    -4.5529079379639e-05
 217    4.258737429697e-06
 218    1.5536372849331e-05
 219    -2.633654770117e-07
 220    1.4230067298452e-06
 221    -8.9538037109717e-05
 222    6.4197171183328e-05
 223    0.0010174838075985
 224    0.0001007922275176
 225    5.7275437052146e-05
 226    -0.00020903693447307
 227    0.00069366002350485
 228    0.00034814541781271
 229    -0.0010710838022169
 230    -1.4692786026185e-06
 231    -4.9526949399663e-05
 232    -2.1581150743849e-05
 233    2.6446069876878e-05
 234    2.542150816049e-05
 235    0.00014656330344624
 236    -0.00033282426250417
 237    -0.00058879481877782
 238    -0.0002052500583903
 239    -0.00017275317514705
 240    0.00056475417921619
 241    0.00024090658345432
 242    0.00030372865182871
 243    -0.001404986839449
 244    2.9741062139124e-06
 245    6.8583531019061e-05
 246    1.4827439399593e-05
 247    1.5427006309742e-05
 248    -4.7307447958699e-06
 249    -1.9390203252125e-05
 250    0.00031737203777576
 251    -0.00034672500866385
 252    -0.00048720556187383
 253    0.0022911495686111
 254    -0.00048041064785291
 255    -0.00011066148308585
 256    -0.00019382682209473
 257    -0.00014074295174159
 258    0.00035057649447812
 259    -0.0019732974804377
 260    -8.3273682049777e-05
 261    -3.7142014268418e-05
 262    -1.6007828477175e-05
 263    0.00016166412854353
 264    9.6054975437259e-05
 265    -0.00026389785641023
 266    0.00017886390993679
 267    0.00020431216215438
 268    -0.0002426560553328
 269    -2.7357841279061e-05
 270    -0.00055504275853836
 271    0.0073673154210516
 272    -2.4049182742775e-05
 273    -0.00014657866515735
 274    9.3278269841154e-05
 275    -0.0014855855381501
 276    -0.0030533825030997
 277    0.0030614970151597
 278    9.8104345280046e-05
 279    -0.00019002707690216
 280    -0.00010536436776307
 281    -2.4339751190349e-05