[Molden Format]
made by pyscf v[2.0.1]
[Atoms] (AU)
C   1   6     0.69100024066471     0.64692934207205    -3.48223131169301
H   2   1     2.68052439830868     1.13355088658700    -3.25784032593313
C   3   6    -0.36286361513219     0.85440132524594    -5.97030179418974
H   4   1    -2.35448549047279     0.36322488579172    -6.17995817793143
C   5   6     0.93697958957450     1.61209284601821    -8.05828437677121
H   6   1     2.28684852848462     3.15852966115860    -7.89296704602693
C   7   6     0.63106041134958     0.47904579632082   -10.50346361691732
H   8   1    -0.72718870892227    -1.06897620367389   -10.63951300078030
H   9   1     1.55630230933075    -1.92953025305990    12.99630010416247
C   10   6     0.75233899775814    -2.21270439606481    11.10705728102219
H   11   1    -0.43433408177274    -3.90944857546550    11.22216085340412
C   12   6     2.86362581178706    -2.63237380607947     9.17926416456045
H   13   1     4.39038949912609    -1.24955421540245     9.49899813497433
H   14   1     3.74629220191363    -4.48798724300892     9.47414880959024
C   15   6     2.02478325613682    -2.42177285709634     6.44560829588644
C   16   6     3.88048732735477    -3.58795445234514     4.61402886975252
C   17   6    -0.18412382258602    -1.30464291234259     5.76021113872346
C   18   6    -2.10044360464350    -0.26837831858460     7.71610340967100
C   19   6    -3.08956938670431     2.35282328359417     6.88693925039594
C   20   6    -4.37372924086464    -2.09766595989678     7.93610724222001
C   21   6    -0.83850430601230     0.06372213486173    10.33002307638377
H   22   1     0.38411922151109     1.74281358582432    10.27380136542181
H   23   1    -2.30980003007874     0.45460143924521    11.73986301809809
H   24   1     4.58527064644668    -5.38706904487420     5.36778158031719
H   25   1     5.54944938085014    -2.37631462192748     4.35398898413318
H   26   1     3.06633019150423    -3.94118377050688     2.75255466040884
H   27   1    -4.17727778763735     2.26573369139522     5.12914900961283
H   28   1    -1.52662344944051     3.68001877445626     6.59540397144508
H   29   1    -4.32916174397830     3.13643051467482     8.35225460090378
H   30   1    -5.32329548508442    -2.36691813602939     6.11583672749896
H   31   1    -5.77989366602257    -1.33896741843465     9.25748940450990
H   32   1    -3.79310905208926    -3.96389819310853     8.61386170102686
C   33   6    -1.01100794811226    -1.06331657314144     3.11929490449947
C   34   6     0.37686231036534    -0.33275864505552     1.09165013605873
H   35   1    -3.01671213906703    -1.40297922279997     2.77827895090944
C   36   6    -0.64382707979370    -0.11591880174385    -1.42063131251064
H   37   1     2.35569259782137     0.17174499283897     1.33641070251401
H   38   1    -2.63317482980319    -0.60229203511219    -1.66119700387645
C   39   6     1.88057107480096     1.17167710004378   -12.63318625924474
C   40   6     1.43424299107759    -0.10242214041261   -15.03828188134704
H   41   1     3.25774949416826     2.69847908646217   -12.62832443574420
O   42   8     2.48751113017790     0.42264932688836   -17.02215443525925
H   43   1     0.01015752982003    -1.65333508727432   -14.95564685399208
[GTO]
1 0
 s    6 1.00
             3047.5249  0.0018347001629433
             457.36951    0.01403730124668
             103.94869   0.068842606114048
             29.210155    0.23218442062076
              9.286663    0.46794134155879
              3.163927    0.36231203217765
 s    3 1.00
             7.8682724   -0.11933240861517
             1.8812885   -0.16085421161283
             0.5442493     1.1434564825515
 s    1 1.00
             0.1687144                   1
 p    3 1.00
             7.8682724   0.068999095584993
             1.8812885    0.31642397975315
             0.5442493    0.74430825237435
 p    1 1.00
             0.1687144                   1
 d    1 1.00
                   0.8                   1

2 0
 s    3 1.00
             18.731137    0.03349459952309
             2.8253937    0.23472694665786
             0.6401217    0.81375731841339
 s    1 1.00
             0.1612778                   1

3 0
 s    6 1.00
             3047.5249  0.0018347001629433
             457.36951    0.01403730124668
             103.94869   0.068842606114048
             29.210155    0.23218442062076
              9.286663    0.46794134155879
              3.163927    0.36231203217765
 s    3 1.00
             7.8682724   -0.11933240861517
             1.8812885   -0.16085421161283
             0.5442493     1.1434564825515
 s    1 1.00
             0.1687144                   1
 p    3 1.00
             7.8682724   0.068999095584993
             1.8812885    0.31642397975315
             0.5442493    0.74430825237435
 p    1 1.00
             0.1687144                   1
 d    1 1.00
                   0.8                   1

4 0
 s    3 1.00
             18.731137    0.03349459952309
             2.8253937    0.23472694665786
             0.6401217    0.81375731841339
 s    1 1.00
             0.1612778                   1

5 0
 s    6 1.00
             3047.5249  0.0018347001629433
             457.36951    0.01403730124668
             103.94869   0.068842606114048
             29.210155    0.23218442062076
              9.286663    0.46794134155879
              3.163927    0.36231203217765
 s    3 1.00
             7.8682724   -0.11933240861517
             1.8812885   -0.16085421161283
             0.5442493     1.1434564825515
 s    1 1.00
             0.1687144                   1
 p    3 1.00
             7.8682724   0.068999095584993
             1.8812885    0.31642397975315
             0.5442493    0.74430825237435
 p    1 1.00
             0.1687144                   1
 d    1 1.00
                   0.8                   1

6 0
 s    3 1.00
             18.731137    0.03349459952309
             2.8253937    0.23472694665786
             0.6401217    0.81375731841339
 s    1 1.00
             0.1612778                   1

7 0
 s    6 1.00
             3047.5249  0.0018347001629433
             457.36951    0.01403730124668
             103.94869   0.068842606114048
             29.210155    0.23218442062076
              9.286663    0.46794134155879
              3.163927    0.36231203217765
 s    3 1.00
             7.8682724   -0.11933240861517
             1.8812885   -0.16085421161283
             0.5442493     1.1434564825515
 s    1 1.00
             0.1687144                   1
 p    3 1.00
             7.8682724   0.068999095584993
             1.8812885    0.31642397975315
             0.5442493    0.74430825237435
 p    1 1.00
             0.1687144                   1
 d    1 1.00
                   0.8                   1

8 0
 s    3 1.00
             18.731137    0.03349459952309
             2.8253937    0.23472694665786
             0.6401217    0.81375731841339
 s    1 1.00
             0.1612778                   1

9 0
 s    3 1.00
             18.731137    0.03349459952309
             2.8253937    0.23472694665786
             0.6401217    0.81375731841339
 s    1 1.00
             0.1612778                   1

10 0
 s    6 1.00
             3047.5249  0.0018347001629433
             457.36951    0.01403730124668
             103.94869   0.068842606114048
             29.210155    0.23218442062076
              9.286663    0.46794134155879
              3.163927    0.36231203217765
 s    3 1.00
             7.8682724   -0.11933240861517
             1.8812885   -0.16085421161283
             0.5442493     1.1434564825515
 s    1 1.00
             0.1687144                   1
 p    3 1.00
             7.8682724   0.068999095584993
             1.8812885    0.31642397975315
             0.5442493    0.74430825237435
 p    1 1.00
             0.1687144                   1
 d    1 1.00
                   0.8                   1

11 0
 s    3 1.00
             18.731137    0.03349459952309
             2.8253937    0.23472694665786
             0.6401217    0.81375731841339
 s    1 1.00
             0.1612778                   1

12 0
 s    6 1.00
             3047.5249  0.0018347001629433
             457.36951    0.01403730124668
             103.94869   0.068842606114048
             29.210155    0.23218442062076
              9.286663    0.46794134155879
              3.163927    0.36231203217765
 s    3 1.00
             7.8682724   -0.11933240861517
             1.8812885   -0.16085421161283
             0.5442493     1.1434564825515
 s    1 1.00
             0.1687144                   1
 p    3 1.00
             7.8682724   0.068999095584993
             1.8812885    0.31642397975315
             0.5442493    0.74430825237435
 p    1 1.00
             0.1687144                   1
 d    1 1.00
                   0.8                   1

13 0
 s    3 1.00
             18.731137    0.03349459952309
             2.8253937    0.23472694665786
             0.6401217    0.81375731841339
 s    1 1.00
             0.1612778                   1

14 0
 s    3 1.00
             18.731137    0.03349459952309
             2.8253937    0.23472694665786
             0.6401217    0.81375731841339
 s    1 1.00
             0.1612778                   1

15 0
 s    6 1.00
             3047.5249  0.0018347001629433
             457.36951    0.01403730124668
             103.94869   0.068842606114048
             29.210155    0.23218442062076
              9.286663    0.46794134155879
              3.163927    0.36231203217765
 s    3 1.00
             7.8682724   -0.11933240861517
             1.8812885   -0.16085421161283
             0.5442493     1.1434564825515
 s    1 1.00
             0.1687144                   1
 p    3 1.00
             7.8682724   0.068999095584993
             1.8812885    0.31642397975315
             0.5442493    0.74430825237435
 p    1 1.00
             0.1687144                   1
 d    1 1.00
                   0.8                   1

16 0
 s    6 1.00
             3047.5249  0.0018347001629433
             457.36951    0.01403730124668
             103.94869   0.068842606114048
             29.210155    0.23218442062076
              9.286663    0.46794134155879
              3.163927    0.36231203217765
 s    3 1.00
             7.8682724   -0.11933240861517
             1.8812885   -0.16085421161283
             0.5442493     1.1434564825515
 s    1 1.00
             0.1687144                   1
 p    3 1.00
             7.8682724   0.068999095584993
             1.8812885    0.31642397975315
             0.5442493    0.74430825237435
 p    1 1.00
             0.1687144                   1
 d    1 1.00
                   0.8                   1

17 0
 s    6 1.00
             3047.5249  0.0018347001629433
             457.36951    0.01403730124668
             103.94869   0.068842606114048
             29.210155    0.23218442062076
              9.286663    0.46794134155879
              3.163927    0.36231203217765
 s    3 1.00
             7.8682724   -0.11933240861517
             1.8812885   -0.16085421161283
             0.5442493     1.1434564825515
 s    1 1.00
             0.1687144                   1
 p    3 1.00
             7.8682724   0.068999095584993
             1.8812885    0.31642397975315
             0.5442493    0.74430825237435
 p    1 1.00
             0.1687144                   1
 d    1 1.00
                   0.8                   1

18 0
 s    6 1.00
             3047.5249  0.0018347001629433
             457.36951    0.01403730124668
             103.94869   0.068842606114048
             29.210155    0.23218442062076
              9.286663    0.46794134155879
              3.163927    0.36231203217765
 s    3 1.00
             7.8682724   -0.11933240861517
             1.8812885   -0.16085421161283
             0.5442493     1.1434564825515
 s    1 1.00
             0.1687144                   1
 p    3 1.00
             7.8682724   0.068999095584993
             1.8812885    0.31642397975315
             0.5442493    0.74430825237435
 p    1 1.00
             0.1687144                   1
 d    1 1.00
                   0.8                   1

19 0
 s    6 1.00
             3047.5249  0.0018347001629433
             457.36951    0.01403730124668
             103.94869   0.068842606114048
             29.210155    0.23218442062076
              9.286663    0.46794134155879
              3.163927    0.36231203217765
 s    3 1.00
             7.8682724   -0.11933240861517
             1.8812885   -0.16085421161283
             0.5442493     1.1434564825515
 s    1 1.00
             0.1687144                   1
 p    3 1.00
             7.8682724   0.068999095584993
             1.8812885    0.31642397975315
             0.5442493    0.74430825237435
 p    1 1.00
             0.1687144                   1
 d    1 1.00
                   0.8                   1

20 0
 s    6 1.00
             3047.5249  0.0018347001629433
             457.36951    0.01403730124668
             103.94869   0.068842606114048
             29.210155    0.23218442062076
              9.286663    0.46794134155879
              3.163927    0.36231203217765
 s    3 1.00
             7.8682724   -0.11933240861517
             1.8812885   -0.16085421161283
             0.5442493     1.1434564825515
 s    1 1.00
             0.1687144                   1
 p    3 1.00
             7.8682724   0.068999095584993
             1.8812885    0.31642397975315
             0.5442493    0.74430825237435
 p    1 1.00
             0.1687144                   1
 d    1 1.00
                   0.8                   1

21 0
 s    6 1.00
             3047.5249  0.0018347001629433
             457.36951    0.01403730124668
             103.94869   0.068842606114048
             29.210155    0.23218442062076
              9.286663    0.46794134155879
              3.163927    0.36231203217765
 s    3 1.00
             7.8682724   -0.11933240861517
             1.8812885   -0.16085421161283
             0.5442493     1.1434564825515
 s    1 1.00
             0.1687144                   1
 p    3 1.00
             7.8682724   0.068999095584993
             1.8812885    0.31642397975315
             0.5442493    0.74430825237435
 p    1 1.00
             0.1687144                   1
 d    1 1.00
                   0.8                   1

22 0
 s    3 1.00
             18.731137    0.03349459952309
             2.8253937    0.23472694665786
             0.6401217    0.81375731841339
 s    1 1.00
             0.1612778                   1

23 0
 s    3 1.00
             18.731137    0.03349459952309
             2.8253937    0.23472694665786
             0.6401217    0.81375731841339
 s    1 1.00
             0.1612778                   1

24 0
 s    3 1.00
             18.731137    0.03349459952309
             2.8253937    0.23472694665786
             0.6401217    0.81375731841339
 s    1 1.00
             0.1612778                   1

25 0
 s    3 1.00
             18.731137    0.03349459952309
             2.8253937    0.23472694665786
             0.6401217    0.81375731841339
 s    1 1.00
             0.1612778                   1

26 0
 s    3 1.00
             18.731137    0.03349459952309
             2.8253937    0.23472694665786
             0.6401217    0.81375731841339
 s    1 1.00
             0.1612778                   1

27 0
 s    3 1.00
             18.731137    0.03349459952309
             2.8253937    0.23472694665786
             0.6401217    0.81375731841339
 s    1 1.00
             0.1612778                   1

28 0
 s    3 1.00
             18.731137    0.03349459952309
             2.8253937    0.23472694665786
             0.6401217    0.81375731841339
 s    1 1.00
             0.1612778                   1

29 0
 s    3 1.00
             18.731137    0.03349459952309
             2.8253937    0.23472694665786
             0.6401217    0.81375731841339
 s    1 1.00
             0.1612778                   1

30 0
 s    3 1.00
             18.731137    0.03349459952309
             2.8253937    0.23472694665786
             0.6401217    0.81375731841339
 s    1 1.00
             0.1612778                   1

31 0
 s    3 1.00
             18.731137    0.03349459952309
             2.8253937    0.23472694665786
             0.6401217    0.81375731841339
 s    1 1.00
             0.1612778                   1

32 0
 s    3 1.00
             18.731137    0.03349459952309
             2.8253937    0.23472694665786
             0.6401217    0.81375731841339
 s    1 1.00
             0.1612778                   1

33 0
 s    6 1.00
             3047.5249  0.0018347001629433
             457.36951    0.01403730124668
             103.94869   0.068842606114048
             29.210155    0.23218442062076
              9.286663    0.46794134155879
              3.163927    0.36231203217765
 s    3 1.00
             7.8682724   -0.11933240861517
             1.8812885   -0.16085421161283
             0.5442493     1.1434564825515
 s    1 1.00
             0.1687144                   1
 p    3 1.00
             7.8682724   0.068999095584993
             1.8812885    0.31642397975315
             0.5442493    0.74430825237435
 p    1 1.00
             0.1687144                   1
 d    1 1.00
                   0.8                   1

34 0
 s    6 1.00
             3047.5249  0.0018347001629433
             457.36951    0.01403730124668
             103.94869   0.068842606114048
             29.210155    0.23218442062076
              9.286663    0.46794134155879
              3.163927    0.36231203217765
 s    3 1.00
             7.8682724   -0.11933240861517
             1.8812885   -0.16085421161283
             0.5442493     1.1434564825515
 s    1 1.00
             0.1687144                   1
 p    3 1.00
             7.8682724   0.068999095584993
             1.8812885    0.31642397975315
             0.5442493    0.74430825237435
 p    1 1.00
             0.1687144                   1
 d    1 1.00
                   0.8                   1

35 0
 s    3 1.00
             18.731137    0.03349459952309
             2.8253937    0.23472694665786
             0.6401217    0.81375731841339
 s    1 1.00
             0.1612778                   1

36 0
 s    6 1.00
             3047.5249  0.0018347001629433
             457.36951    0.01403730124668
             103.94869   0.068842606114048
             29.210155    0.23218442062076
              9.286663    0.46794134155879
              3.163927    0.36231203217765
 s    3 1.00
             7.8682724   -0.11933240861517
             1.8812885   -0.16085421161283
             0.5442493     1.1434564825515
 s    1 1.00
             0.1687144                   1
 p    3 1.00
             7.8682724   0.068999095584993
             1.8812885    0.31642397975315
             0.5442493    0.74430825237435
 p    1 1.00
             0.1687144                   1
 d    1 1.00
                   0.8                   1

37 0
 s    3 1.00
             18.731137    0.03349459952309
             2.8253937    0.23472694665786
             0.6401217    0.81375731841339
 s    1 1.00
             0.1612778                   1

38 0
 s    3 1.00
             18.731137    0.03349459952309
             2.8253937    0.23472694665786
             0.6401217    0.81375731841339
 s    1 1.00
             0.1612778                   1

39 0
 s    6 1.00
             3047.5249  0.0018347001629433
             457.36951    0.01403730124668
             103.94869   0.068842606114048
             29.210155    0.23218442062076
              9.286663    0.46794134155879
              3.163927    0.36231203217765
 s    3 1.00
             7.8682724   -0.11933240861517
             1.8812885   -0.16085421161283
             0.5442493     1.1434564825515
 s    1 1.00
             0.1687144                   1
 p    3 1.00
             7.8682724   0.068999095584993
             1.8812885    0.31642397975315
             0.5442493    0.74430825237435
 p    1 1.00
             0.1687144                   1
 d    1 1.00
                   0.8                   1

40 0
 s    6 1.00
             3047.5249  0.0018347001629433
             457.36951    0.01403730124668
             103.94869   0.068842606114048
             29.210155    0.23218442062076
              9.286663    0.46794134155879
              3.163927    0.36231203217765
 s    3 1.00
             7.8682724   -0.11933240861517
             1.8812885   -0.16085421161283
             0.5442493     1.1434564825515
 s    1 1.00
             0.1687144                   1
 p    3 1.00
             7.8682724   0.068999095584993
             1.8812885    0.31642397975315
             0.5442493    0.74430825237435
 p    1 1.00
             0.1687144                   1
 d    1 1.00
                   0.8                   1

41 0
 s    3 1.00
             18.731137    0.03349459952309
             2.8253937    0.23472694665786
             0.6401217    0.81375731841339
 s    1 1.00
             0.1612778                   1

42 0
 s    6 1.00
             5484.6717   0.001831099805527
             825.23495   0.013950098518422
             188.04696    0.06844509273075
               52.9645    0.23271427528445
              16.89757    0.47019295006289
             5.7996353    0.35852086192309
 s    3 1.00
             15.539616   -0.11077750382508
             3.5999336   -0.14802630511126
             1.0137618     1.1307670390447
 s    1 1.00
             0.2700058                   1
 p    3 1.00
             15.539616   0.070874299543311
             3.5999336    0.33975279781076
             1.0137618    0.72715859531445
 p    1 1.00
             0.2700058                   1
 d    1 1.00
                   0.8                   1

43 0
 s    3 1.00
             18.731137    0.03349459952309
             2.8253937    0.23472694665786
             0.6401217    0.81375731841339
 s    1 1.00
             0.1612778                   1

[5d]
[7f]
[9g]

[MO]
 Sym= A
 Ene=               0
 Spin= Alpha
 Occup=    1.00000
   1    -0.010534951577576
   2    0.0012872831009642
   3    -0.0074133626093488
   4    -0.00045079331116614
   5    8.6582077208658e-05
   6    -0.0013220306749318
   7    -0.00063117105333816
   8    -0.00084585437070434
   9    0.0041644740586475
  10    0.0010887995091346
  11    0.0010295661134435
  12    -0.00014896438396544
  13    0.00024519966970416
  14    -6.2560073826884e-05
  15    0.00041849510002839
  16    0.00089169247295944
  17     -0.99445940037357
  18    -0.038550174630873
  19     0.030002464597509
  20    -0.00080551772485747
  21    -0.00020968361024028
  22    0.0003349978179913
  23    0.0035010549741432
  24    0.0010834392319483
  25    0.00013788270865743
  26    -0.00084543607850295
  27    0.00025884906188721
  28    0.0004033404120768
  29    -0.00023114261917524
  30    -0.000121183157695
  31    0.0012578098390006
  32    -0.0041217029437479
  33    -0.027311939329213
  34    0.00068055364043265
  35    -0.0055372542330006
  36    -0.0009348220100681
  37    -0.00042664211267771
  38    0.0014823996719595
  39    0.00037129017948794
  40    -0.0010014990892857
  41    -0.0051508874069425
  42    0.00072558264723792
  43    -0.0011200040837619
  44    -0.00058600929966211
  45    0.00039470479497408
  46    0.00045689760417375
  47    0.00051870385266722
  48    0.00063298069072274
  49    -0.003609589561104
  50    0.00029649691613903
  51    -0.00037580041597633
  52    -8.2492198425188e-06
  53    -0.00011291474629378
  54    0.00035577416521721
  55    0.0010663783990531
  56    0.00040853730010345
  57    -0.0044100022995035
  58    3.2055629070663e-05
  59    -8.5679213868304e-05
  60    -0.00012578218048302
  61    4.8640708190025e-05
  62    -0.00012694633505492
  63    0.00029815430016494
  64    0.00024397095093779
  65    3.6363615957367e-06
  66    6.1519901956673e-06
  67    -1.1477338166532e-06
  68    2.4761310093373e-06
  69    -3.5461917486034e-06
  70    -9.7917777470308e-07
  71    4.3972873873177e-06
  72    -1.0302190605925e-06
  73    -4.8730490403435e-06
  74    -2.1517946470712e-05
  75    -6.8653282407258e-06
  76    7.4462016574825e-07
  77    5.0279855556019e-07
  78    -4.3886036958007e-07
  79    -3.9848086314215e-07
  80    7.7265765422811e-08
  81    -2.6670236148493e-06
  82    -1.3018115064394e-05
  83    -1.7104738888166e-06
  84    3.6777516864877e-06
  85    6.5259200391493e-05
  86    -8.9946521562641e-06
  87    -2.8762177224384e-06
  88    -1.5118042637401e-05
  89    -2.1207345346062e-05
  90    4.7581906998647e-05
  91    -2.1060244984732e-05
  92    -9.9232321442611e-07
  93    1.3130872566358e-06
  94    -2.9958548722468e-06
  95    -1.3357816071966e-08
  96    4.4995056128362e-07
  97    -1.0783977854497e-05
  98    -2.0260132870013e-05
  99    2.4962172051103e-06
 100    1.578208784279e-05
 101    2.0942560985106e-06
 102    6.4978807706146e-06
 103    -0.00011748322412638
 104    1.5700497940179e-05
 105    2.1823790398737e-05
 106    1.8749483660469e-06
 107    0.0001485374825839
 108    -0.00011349553908756
 109    -0.00014172521528622
 110    6.9691923674192e-06
 111    3.6782513533438e-06
 112    -1.4156059707183e-06
 113    -2.5701353849858e-06
 114    3.4961579943455e-06
 115    5.6850932445843e-06
 116    2.7193118346225e-05
 117    -0.00022677880671534
 118    4.8883345248886e-06
 119    -7.5782147209601e-06
 120    -1.0145838545396e-05
 121    5.5219831072313e-05
 122    -3.0004070814441e-05
 123    -2.0080382949684e-05
 124    -4.2112017517535e-07
 125    2.1873039425447e-06
 126    1.9086874581783e-06
 127    -1.2504085829379e-06
 128    1.3504854257229e-06
 129    -8.6823964108614e-06
 130    7.2682679063721e-05
 131    -2.9794801341995e-05
 132    -1.5052296156732e-05
 133    6.5160215924271e-06
 134    -0.00010016707169398
 135    0.0001791733177821
 136    -2.2652331202134e-05
 137    0.00030034440885717
 138    -1.0204557308527e-05
 139    -5.5930278883128e-06
 140    -9.2050591154949e-07
 141    -2.7318815102885e-06
 142    -3.4131976095879e-06
 143    1.0032777992698e-05
 144    3.1174365377627e-06
 145    -0.00011099429902744
 146    -2.0132616410018e-05
 147    8.8033683282963e-06
 148    2.6074237491097e-05
 149    -5.6680652935617e-05
 150    6.2218108270913e-05
 151    3.1860041783881e-05
 152    7.6267225454548e-06
 153    3.9332395569995e-06
 154    6.5773777453574e-07
 155    -4.2288950098273e-06
 156    3.555389501495e-06
 157    4.5034225105508e-07
 158    -7.1098837003473e-06
 159    -1.8678910984106e-05
 160    -5.7805846003619e-06
 161    4.942954194597e-06
 162    -3.440537660009e-06
 163    3.1247251605561e-05
 164    1.4398631403779e-07
 165    -8.5326963368044e-06
 166    -1.6053219944072e-06
 167    5.5450036050992e-07
 168    -1.6725259023376e-07
 169    2.0390922894509e-07
 170    -2.8719378353127e-07
 171    1.4867893490665e-06
 172    1.0674845854618e-05
 173    -2.5237786669523e-05
 174    1.409027738387e-06
 175    -2.019312410707e-06
 176    -6.4773825783809e-06
 177    2.6667471304399e-05
 178    3.5051556214163e-06
 179    3.8635380253849e-05
 180    -1.4416008713611e-06
 181    -1.7148202761961e-06
 182    -1.3508199905449e-08
 183    1.1319573121411e-06
 184    -1.6248707462231e-07
 185    -1.6187021239443e-06
 186    2.4578409785412e-05
 187    -1.7399421770202e-06
 188    -4.6098379339952e-06
 189    -4.5195820074424e-06
 190    -2.283157582565e-05
 191    -9.6771804420371e-06
 192    -6.850171845781e-06
 193    2.4701019065973e-05
 194    -2.8964382795097e-06
 195    5.8277329640262e-07
 196    -1.2689259961336e-06
 197    2.7191516615121e-07
 198    -1.5903081006208e-09
 199    4.4834467590519e-06
 200    1.678505764358e-06
 201    -5.4098952955592e-06
 202    -3.1396457259396e-05
 203    1.1206563032401e-05
 204    1.0882942725033e-06
 205    -1.5254666883062e-06
 206    1.7383195073182e-05
 207    -6.2274214675709e-06
 208    7.1472830153397e-05
 209    -2.7916373934343e-06
 210    2.9139904665382e-05
 211    -2.1489012707798e-06
 212    -8.9118610990794e-06
 213    -1.9524062056079e-06
 214    9.2997723818454e-06
 215    1.3094338450354e-06
 216    6.7966265506901e-05
 217    -2.9158504201699e-06
 218    -1.1985154951012e-05
 219    1.4236983311811e-06
 220    -4.0824823010764e-06
 221    8.159750162018e-05
 222    -0.00011019783334702
 223    -0.00059625348519961
 224    -9.2910399989963e-05
 225    -5.7718509065956e-05
 226    0.00020856374549056
 227    -0.00055257763715723
 228    -0.00022294853024312
 229    0.0005785068234727
 230    8.4769875988288e-06
 231    2.9731418718655e-05
 232    1.1310387851548e-05
 233    -1.714593170491e-05
 234    -1.7655474404471e-05
 235    -0.00013945303668979
 236    0.00035506210441329
 237    -0.00023691058759148
 238    0.00019801379683258
 239    0.00015033818127892
 240    -0.00052684938355471
 241    7.8162343332068e-06
 242    -0.00019128236997542
 243    0.0012257504626967
 244    -2.1379346620084e-05
 245    -4.7075012629976e-05
 246    -7.3917105195397e-06
 247    -9.7500821732921e-06
 248    1.0982544004745e-08
 249    3.3843594085374e-06
 250    -0.00030434072913011
 251    0.00032947957692239
 252    0.00037384124978718
 253    -0.00073612174313959
 254    0.00045280550218477
 255    9.8708449804159e-05
 256    0.00017988050587742
 257    0.00087569372840686
 258    -0.00019997605859968
 259     0.001643407689151
 260    0.00010156017444962
 261    1.5578411023863e-05
 262    9.6124150312248e-06
 263    -0.00013858773325432
 264    -9.384931691339e-05
 265    0.0002377805975089
 266    -0.00012766105074204
 267    -0.00018387304821237
 268    0.00040761256054078
 269    -5.7429063639744e-06
 270    0.0002587787184134
 271    -0.0033685448365345
 272    8.7567802450668e-05
 273    0.00019649373004333
 274    6.6743373317281e-05
 275    0.0015771863721034
 276    0.00083676799449707
 277    -0.0015294558326452
 278    -4.434604594306e-05
 279    9.0708287756329e-05
 280    1.7820062273425e-05