[Molden Format]
made by pyscf v[2.0.1]
[Atoms] (AU)
C   1   6     0.69100024066471     0.64692934207205    -3.48223131169301
H   2   1     2.68052439830868     1.13355088658700    -3.25784032593313
C   3   6    -0.36286361513219     0.85440132524594    -5.97030179418974
H   4   1    -2.35448549047279     0.36322488579172    -6.17995817793143
C   5   6     0.93697958957450     1.61209284601821    -8.05828437677121
H   6   1     0.14022243979667     3.08603065646166    -9.25562650474843
C   7   6     3.33155915073320     0.56926267114995    -8.78956929307971
H   8   1     4.10661901770469    -0.90506612570738    -7.57081623325171
H   9   1     1.55630230933075    -1.92953025305990    12.99630010416247
C   10   6     0.75233899775814    -2.21270439606481    11.10705728102219
H   11   1    -0.43433408177274    -3.90944857546550    11.22216085340412
C   12   6     2.86362581178706    -2.63237380607947     9.17926416456045
H   13   1     4.39038949912609    -1.24955421540245     9.49899813497433
H   14   1     3.74629220191363    -4.48798724300892     9.47414880959024
C   15   6     2.02478325613682    -2.42177285709634     6.44560829588644
C   16   6     3.88048732735477    -3.58795445234514     4.61402886975252
C   17   6    -0.18412382258602    -1.30464291234259     5.76021113872346
C   18   6    -2.10044360464350    -0.26837831858460     7.71610340967100
C   19   6    -3.08956938670431     2.35282328359417     6.88693925039594
C   20   6    -4.37372924086464    -2.09766595989678     7.93610724222001
C   21   6    -0.83850430601230     0.06372213486173    10.33002307638377
H   22   1     0.38411922151109     1.74281358582432    10.27380136542181
H   23   1    -2.30980003007874     0.45460143924521    11.73986301809809
H   24   1     4.58527064644668    -5.38706904487420     5.36778158031719
H   25   1     5.54944938085014    -2.37631462192748     4.35398898413318
H   26   1     3.06633019150423    -3.94118377050688     2.75255466040884
H   27   1    -4.17727778763735     2.26573369139522     5.12914900961283
H   28   1    -1.52662344944051     3.68001877445626     6.59540397144508
H   29   1    -4.32916174397830     3.13643051467482     8.35225460090378
H   30   1    -5.32329548508442    -2.36691813602939     6.11583672749896
H   31   1    -5.77989366602257    -1.33896741843465     9.25748940450990
H   32   1    -3.79310905208926    -3.96389819310853     8.61386170102686
C   33   6    -1.01100794811226    -1.06331657314144     3.11929490449947
C   34   6     0.37686231036534    -0.33275864505552     1.09165013605873
H   35   1    -3.01671213906703    -1.40297922279997     2.77827895090944
C   36   6    -0.64382707979370    -0.11591880174385    -1.42063131251064
H   37   1     2.35569259782137     0.17174499283897     1.33641070251401
H   38   1    -2.63317482980319    -0.60229203511219    -1.66119700387645
C   39   6     4.69106502259275     1.26188352336463   -10.85081981009206
C   40   6     7.11506387067225     0.08270412537969   -11.43459041306820
H   41   1     4.02727424636240     2.71762167762249   -12.14232148362751
O   42   8     8.43283181269616     0.61123359193353   -13.25254761350674
H   43   1     7.72125158488297    -1.39686243822724   -10.06214800755086
[GTO]
1 0
 s    6 1.00
             3047.5249  0.0018347001629433
             457.36951    0.01403730124668
             103.94869   0.068842606114048
             29.210155    0.23218442062076
              9.286663    0.46794134155879
              3.163927    0.36231203217765
 s    3 1.00
             7.8682724   -0.11933240861517
             1.8812885   -0.16085421161283
             0.5442493     1.1434564825515
 s    1 1.00
             0.1687144                   1
 p    3 1.00
             7.8682724   0.068999095584993
             1.8812885    0.31642397975315
             0.5442493    0.74430825237435
 p    1 1.00
             0.1687144                   1
 d    1 1.00
                   0.8                   1

2 0
 s    3 1.00
             18.731137    0.03349459952309
             2.8253937    0.23472694665786
             0.6401217    0.81375731841339
 s    1 1.00
             0.1612778                   1

3 0
 s    6 1.00
             3047.5249  0.0018347001629433
             457.36951    0.01403730124668
             103.94869   0.068842606114048
             29.210155    0.23218442062076
              9.286663    0.46794134155879
              3.163927    0.36231203217765
 s    3 1.00
             7.8682724   -0.11933240861517
             1.8812885   -0.16085421161283
             0.5442493     1.1434564825515
 s    1 1.00
             0.1687144                   1
 p    3 1.00
             7.8682724   0.068999095584993
             1.8812885    0.31642397975315
             0.5442493    0.74430825237435
 p    1 1.00
             0.1687144                   1
 d    1 1.00
                   0.8                   1

4 0
 s    3 1.00
             18.731137    0.03349459952309
             2.8253937    0.23472694665786
             0.6401217    0.81375731841339
 s    1 1.00
             0.1612778                   1

5 0
 s    6 1.00
             3047.5249  0.0018347001629433
             457.36951    0.01403730124668
             103.94869   0.068842606114048
             29.210155    0.23218442062076
              9.286663    0.46794134155879
              3.163927    0.36231203217765
 s    3 1.00
             7.8682724   -0.11933240861517
             1.8812885   -0.16085421161283
             0.5442493     1.1434564825515
 s    1 1.00
             0.1687144                   1
 p    3 1.00
             7.8682724   0.068999095584993
             1.8812885    0.31642397975315
             0.5442493    0.74430825237435
 p    1 1.00
             0.1687144                   1
 d    1 1.00
                   0.8                   1

6 0
 s    3 1.00
             18.731137    0.03349459952309
             2.8253937    0.23472694665786
             0.6401217    0.81375731841339
 s    1 1.00
             0.1612778                   1

7 0
 s    6 1.00
             3047.5249  0.0018347001629433
             457.36951    0.01403730124668
             103.94869   0.068842606114048
             29.210155    0.23218442062076
              9.286663    0.46794134155879
              3.163927    0.36231203217765
 s    3 1.00
             7.8682724   -0.11933240861517
             1.8812885   -0.16085421161283
             0.5442493     1.1434564825515
 s    1 1.00
             0.1687144                   1
 p    3 1.00
             7.8682724   0.068999095584993
             1.8812885    0.31642397975315
             0.5442493    0.74430825237435
 p    1 1.00
             0.1687144                   1
 d    1 1.00
                   0.8                   1

8 0
 s    3 1.00
             18.731137    0.03349459952309
             2.8253937    0.23472694665786
             0.6401217    0.81375731841339
 s    1 1.00
             0.1612778                   1

9 0
 s    3 1.00
             18.731137    0.03349459952309
             2.8253937    0.23472694665786
             0.6401217    0.81375731841339
 s    1 1.00
             0.1612778                   1

10 0
 s    6 1.00
             3047.5249  0.0018347001629433
             457.36951    0.01403730124668
             103.94869   0.068842606114048
             29.210155    0.23218442062076
              9.286663    0.46794134155879
              3.163927    0.36231203217765
 s    3 1.00
             7.8682724   -0.11933240861517
             1.8812885   -0.16085421161283
             0.5442493     1.1434564825515
 s    1 1.00
             0.1687144                   1
 p    3 1.00
             7.8682724   0.068999095584993
             1.8812885    0.31642397975315
             0.5442493    0.74430825237435
 p    1 1.00
             0.1687144                   1
 d    1 1.00
                   0.8                   1

11 0
 s    3 1.00
             18.731137    0.03349459952309
             2.8253937    0.23472694665786
             0.6401217    0.81375731841339
 s    1 1.00
             0.1612778                   1

12 0
 s    6 1.00
             3047.5249  0.0018347001629433
             457.36951    0.01403730124668
             103.94869   0.068842606114048
             29.210155    0.23218442062076
              9.286663    0.46794134155879
              3.163927    0.36231203217765
 s    3 1.00
             7.8682724   -0.11933240861517
             1.8812885   -0.16085421161283
             0.5442493     1.1434564825515
 s    1 1.00
             0.1687144                   1
 p    3 1.00
             7.8682724   0.068999095584993
             1.8812885    0.31642397975315
             0.5442493    0.74430825237435
 p    1 1.00
             0.1687144                   1
 d    1 1.00
                   0.8                   1

13 0
 s    3 1.00
             18.731137    0.03349459952309
             2.8253937    0.23472694665786
             0.6401217    0.81375731841339
 s    1 1.00
             0.1612778                   1

14 0
 s    3 1.00
             18.731137    0.03349459952309
             2.8253937    0.23472694665786
             0.6401217    0.81375731841339
 s    1 1.00
             0.1612778                   1

15 0
 s    6 1.00
             3047.5249  0.0018347001629433
             457.36951    0.01403730124668
             103.94869   0.068842606114048
             29.210155    0.23218442062076
              9.286663    0.46794134155879
              3.163927    0.36231203217765
 s    3 1.00
             7.8682724   -0.11933240861517
             1.8812885   -0.16085421161283
             0.5442493     1.1434564825515
 s    1 1.00
             0.1687144                   1
 p    3 1.00
             7.8682724   0.068999095584993
             1.8812885    0.31642397975315
             0.5442493    0.74430825237435
 p    1 1.00
             0.1687144                   1
 d    1 1.00
                   0.8                   1

16 0
 s    6 1.00
             3047.5249  0.0018347001629433
             457.36951    0.01403730124668
             103.94869   0.068842606114048
             29.210155    0.23218442062076
              9.286663    0.46794134155879
              3.163927    0.36231203217765
 s    3 1.00
             7.8682724   -0.11933240861517
             1.8812885   -0.16085421161283
             0.5442493     1.1434564825515
 s    1 1.00
             0.1687144                   1
 p    3 1.00
             7.8682724   0.068999095584993
             1.8812885    0.31642397975315
             0.5442493    0.74430825237435
 p    1 1.00
             0.1687144                   1
 d    1 1.00
                   0.8                   1

17 0
 s    6 1.00
             3047.5249  0.0018347001629433
             457.36951    0.01403730124668
             103.94869   0.068842606114048
             29.210155    0.23218442062076
              9.286663    0.46794134155879
              3.163927    0.36231203217765
 s    3 1.00
             7.8682724   -0.11933240861517
             1.8812885   -0.16085421161283
             0.5442493     1.1434564825515
 s    1 1.00
             0.1687144                   1
 p    3 1.00
             7.8682724   0.068999095584993
             1.8812885    0.31642397975315
             0.5442493    0.74430825237435
 p    1 1.00
             0.1687144                   1
 d    1 1.00
                   0.8                   1

18 0
 s    6 1.00
             3047.5249  0.0018347001629433
             457.36951    0.01403730124668
             103.94869   0.068842606114048
             29.210155    0.23218442062076
              9.286663    0.46794134155879
              3.163927    0.36231203217765
 s    3 1.00
             7.8682724   -0.11933240861517
             1.8812885   -0.16085421161283
             0.5442493     1.1434564825515
 s    1 1.00
             0.1687144                   1
 p    3 1.00
             7.8682724   0.068999095584993
             1.8812885    0.31642397975315
             0.5442493    0.74430825237435
 p    1 1.00
             0.1687144                   1
 d    1 1.00
                   0.8                   1

19 0
 s    6 1.00
             3047.5249  0.0018347001629433
             457.36951    0.01403730124668
             103.94869   0.068842606114048
             29.210155    0.23218442062076
              9.286663    0.46794134155879
              3.163927    0.36231203217765
 s    3 1.00
             7.8682724   -0.11933240861517
             1.8812885   -0.16085421161283
             0.5442493     1.1434564825515
 s    1 1.00
             0.1687144                   1
 p    3 1.00
             7.8682724   0.068999095584993
             1.8812885    0.31642397975315
             0.5442493    0.74430825237435
 p    1 1.00
             0.1687144                   1
 d    1 1.00
                   0.8                   1

20 0
 s    6 1.00
             3047.5249  0.0018347001629433
             457.36951    0.01403730124668
             103.94869   0.068842606114048
             29.210155    0.23218442062076
              9.286663    0.46794134155879
              3.163927    0.36231203217765
 s    3 1.00
             7.8682724   -0.11933240861517
             1.8812885   -0.16085421161283
             0.5442493     1.1434564825515
 s    1 1.00
             0.1687144                   1
 p    3 1.00
             7.8682724   0.068999095584993
             1.8812885    0.31642397975315
             0.5442493    0.74430825237435
 p    1 1.00
             0.1687144                   1
 d    1 1.00
                   0.8                   1

21 0
 s    6 1.00
             3047.5249  0.0018347001629433
             457.36951    0.01403730124668
             103.94869   0.068842606114048
             29.210155    0.23218442062076
              9.286663    0.46794134155879
              3.163927    0.36231203217765
 s    3 1.00
             7.8682724   -0.11933240861517
             1.8812885   -0.16085421161283
             0.5442493     1.1434564825515
 s    1 1.00
             0.1687144                   1
 p    3 1.00
             7.8682724   0.068999095584993
             1.8812885    0.31642397975315
             0.5442493    0.74430825237435
 p    1 1.00
             0.1687144                   1
 d    1 1.00
                   0.8                   1

22 0
 s    3 1.00
             18.731137    0.03349459952309
             2.8253937    0.23472694665786
             0.6401217    0.81375731841339
 s    1 1.00
             0.1612778                   1

23 0
 s    3 1.00
             18.731137    0.03349459952309
             2.8253937    0.23472694665786
             0.6401217    0.81375731841339
 s    1 1.00
             0.1612778                   1

24 0
 s    3 1.00
             18.731137    0.03349459952309
             2.8253937    0.23472694665786
             0.6401217    0.81375731841339
 s    1 1.00
             0.1612778                   1

25 0
 s    3 1.00
             18.731137    0.03349459952309
             2.8253937    0.23472694665786
             0.6401217    0.81375731841339
 s    1 1.00
             0.1612778                   1

26 0
 s    3 1.00
             18.731137    0.03349459952309
             2.8253937    0.23472694665786
             0.6401217    0.81375731841339
 s    1 1.00
             0.1612778                   1

27 0
 s    3 1.00
             18.731137    0.03349459952309
             2.8253937    0.23472694665786
             0.6401217    0.81375731841339
 s    1 1.00
             0.1612778                   1

28 0
 s    3 1.00
             18.731137    0.03349459952309
             2.8253937    0.23472694665786
             0.6401217    0.81375731841339
 s    1 1.00
             0.1612778                   1

29 0
 s    3 1.00
             18.731137    0.03349459952309
             2.8253937    0.23472694665786
             0.6401217    0.81375731841339
 s    1 1.00
             0.1612778                   1

30 0
 s    3 1.00
             18.731137    0.03349459952309
             2.8253937    0.23472694665786
             0.6401217    0.81375731841339
 s    1 1.00
             0.1612778                   1

31 0
 s    3 1.00
             18.731137    0.03349459952309
             2.8253937    0.23472694665786
             0.6401217    0.81375731841339
 s    1 1.00
             0.1612778                   1

32 0
 s    3 1.00
             18.731137    0.03349459952309
             2.8253937    0.23472694665786
             0.6401217    0.81375731841339
 s    1 1.00
             0.1612778                   1

33 0
 s    6 1.00
             3047.5249  0.0018347001629433
             457.36951    0.01403730124668
             103.94869   0.068842606114048
             29.210155    0.23218442062076
              9.286663    0.46794134155879
              3.163927    0.36231203217765
 s    3 1.00
             7.8682724   -0.11933240861517
             1.8812885   -0.16085421161283
             0.5442493     1.1434564825515
 s    1 1.00
             0.1687144                   1
 p    3 1.00
             7.8682724   0.068999095584993
             1.8812885    0.31642397975315
             0.5442493    0.74430825237435
 p    1 1.00
             0.1687144                   1
 d    1 1.00
                   0.8                   1

34 0
 s    6 1.00
             3047.5249  0.0018347001629433
             457.36951    0.01403730124668
             103.94869   0.068842606114048
             29.210155    0.23218442062076
              9.286663    0.46794134155879
              3.163927    0.36231203217765
 s    3 1.00
             7.8682724   -0.11933240861517
             1.8812885   -0.16085421161283
             0.5442493     1.1434564825515
 s    1 1.00
             0.1687144                   1
 p    3 1.00
             7.8682724   0.068999095584993
             1.8812885    0.31642397975315
             0.5442493    0.74430825237435
 p    1 1.00
             0.1687144                   1
 d    1 1.00
                   0.8                   1

35 0
 s    3 1.00
             18.731137    0.03349459952309
             2.8253937    0.23472694665786
             0.6401217    0.81375731841339
 s    1 1.00
             0.1612778                   1

36 0
 s    6 1.00
             3047.5249  0.0018347001629433
             457.36951    0.01403730124668
             103.94869   0.068842606114048
             29.210155    0.23218442062076
              9.286663    0.46794134155879
              3.163927    0.36231203217765
 s    3 1.00
             7.8682724   -0.11933240861517
             1.8812885   -0.16085421161283
             0.5442493     1.1434564825515
 s    1 1.00
             0.1687144                   1
 p    3 1.00
             7.8682724   0.068999095584993
             1.8812885    0.31642397975315
             0.5442493    0.74430825237435
 p    1 1.00
             0.1687144                   1
 d    1 1.00
                   0.8                   1

37 0
 s    3 1.00
             18.731137    0.03349459952309
             2.8253937    0.23472694665786
             0.6401217    0.81375731841339
 s    1 1.00
             0.1612778                   1

38 0
 s    3 1.00
             18.731137    0.03349459952309
             2.8253937    0.23472694665786
             0.6401217    0.81375731841339
 s    1 1.00
             0.1612778                   1

39 0
 s    6 1.00
             3047.5249  0.0018347001629433
             457.36951    0.01403730124668
             103.94869   0.068842606114048
             29.210155    0.23218442062076
              9.286663    0.46794134155879
              3.163927    0.36231203217765
 s    3 1.00
             7.8682724   -0.11933240861517
             1.8812885   -0.16085421161283
             0.5442493     1.1434564825515
 s    1 1.00
             0.1687144                   1
 p    3 1.00
             7.8682724   0.068999095584993
             1.8812885    0.31642397975315
             0.5442493    0.74430825237435
 p    1 1.00
             0.1687144                   1
 d    1 1.00
                   0.8                   1

40 0
 s    6 1.00
             3047.5249  0.0018347001629433
             457.36951    0.01403730124668
             103.94869   0.068842606114048
             29.210155    0.23218442062076
              9.286663    0.46794134155879
              3.163927    0.36231203217765
 s    3 1.00
             7.8682724   -0.11933240861517
             1.8812885   -0.16085421161283
             0.5442493     1.1434564825515
 s    1 1.00
             0.1687144                   1
 p    3 1.00
             7.8682724   0.068999095584993
             1.8812885    0.31642397975315
             0.5442493    0.74430825237435
 p    1 1.00
             0.1687144                   1
 d    1 1.00
                   0.8                   1

41 0
 s    3 1.00
             18.731137    0.03349459952309
             2.8253937    0.23472694665786
             0.6401217    0.81375731841339
 s    1 1.00
             0.1612778                   1

42 0
 s    6 1.00
             5484.6717   0.001831099805527
             825.23495   0.013950098518422
             188.04696    0.06844509273075
               52.9645    0.23271427528445
              16.89757    0.47019295006289
             5.7996353    0.35852086192309
 s    3 1.00
             15.539616   -0.11077750382508
             3.5999336   -0.14802630511126
             1.0137618     1.1307670390447
 s    1 1.00
             0.2700058                   1
 p    3 1.00
             15.539616   0.070874299543311
             3.5999336    0.33975279781076
             1.0137618    0.72715859531445
 p    1 1.00
             0.2700058                   1
 d    1 1.00
                   0.8                   1

43 0
 s    3 1.00
             18.731137    0.03349459952309
             2.8253937    0.23472694665786
             0.6401217    0.81375731841339
 s    1 1.00
             0.1612778                   1

[5d]
[7f]
[9g]

[MO]
 Sym= A
 Ene=               0
 Spin= Alpha
 Occup=    1.00000
   1    -0.012293287739674
   2    0.0012370598870456
   3    -0.0081347805357811
   4    -0.00049856486264868
   5    0.00021373484339263
   6    -0.0012491205480049
   7    -0.00036765076375529
   8    -0.0012980910247445
   9    0.0044191319360495
  10    0.0010340386007513
  11     0.001042734620336
  12    -0.00012012260227221
  13    0.00023813513979524
  14    -7.314320574077e-05
  15    0.00038865375561031
  16    0.00098003039356486
  17     -0.99454057640238
  18    -0.038774645321857
  19     0.030359878416192
  20    -0.00096316574679995
  21    -0.00025083889968689
  22    0.00034069802690276
  23    0.0036844433303549
  24     0.001081453693478
  25    0.00053611364745368
  26    -0.0007852037256788
  27    0.00028810722271615
  28    0.0003637927250617
  29    -0.00020923989863607
  30    -0.00024702605247252
  31    0.0013419606735438
  32    -0.0041051631227348
  33    -0.024344612149254
  34     0.000671169486126
  35    -0.0049182384148726
  36    -0.00094400232152745
  37    -0.00045400187391253
  38    0.0013951517632776
  39    0.0027964758249849
  40    -0.00089687088224514
  41    -0.0029510270167404
  42    0.00060401689698861
  43    -0.0011855119842513
  44    -0.0006353068625476
  45    0.00041910023985345
  46    0.00047423945278234
  47    0.00047682382836677
  48    0.00015162193496426
  49    -0.0012469291628844
  50    0.00033671091935083
  51    0.0015928033571597
  52    -0.00036614909221626
  53    -0.00014844586891057
  54    0.00024196199078379
  55    0.0043795744738158
  56    0.0010165143739117
  57    -0.0039387332189872
  58    0.00012474730054995
  59    -0.00013013925916886
  60    6.0682619677238e-05
  61    -3.4807197822618e-05
  62    0.00022597666957179
  63    0.00039723902057311
  64    9.1433935522926e-05
  65    3.9343195141638e-06
  66    7.149059307508e-06
  67    -1.2819448046669e-06
  68    1.0256658308773e-06
  69    5.0649380156004e-06
  70    -6.8509817413967e-07
  71    4.8689316820152e-06
  72    -5.8321763598373e-07
  73    -8.6163170836409e-06
  74    -2.6053079723754e-05
  75    -9.3769387473409e-06
  76    6.729117652411e-07
  77    1.8561781681919e-07
  78    -2.2121106519119e-07
  79    -2.6601017056923e-07
  80    -9.9408079784316e-08
  81    -3.5664460972003e-06
  82    -1.681679008526e-05
  83    -1.6708956219509e-06
  84    4.629230949025e-06
  85    5.9463261976025e-05
  86    -8.8449721422264e-06
  87    -2.9551286052734e-06
  88    -1.5160480160103e-05
  89    -1.4251299661956e-05
  90    5.2054183740973e-05
  91    -2.1461468795367e-05
  92    -1.2039044917343e-06
  93    9.756262132651e-07
  94    -2.9752266340279e-06
  95    -4.7145632939244e-08
  96    5.8359331086886e-07
  97    -1.079165455838e-05
  98    -2.2276930567751e-05
  99    2.7672409239869e-06
 100    1.7438190084736e-05
 101    1.3950496079081e-06
 102    1.6060416554168e-06
 103    -4.8936588747439e-05
 104    1.491420690035e-05
 105    2.1891508345031e-05
 106    1.1267586011716e-06
 107    0.00012395160790557
 108    -0.00011118164082572
 109    -0.00014811953554443
 110    8.1744069036692e-06
 111    3.5932332159538e-06
 112    -1.2461753066776e-06
 113    -4.7184489780944e-07
 114    3.0106674325389e-06
 115    5.7921671628002e-06
 116    2.9048598139527e-05
 117    -0.00022277331692113
 118    3.9357346169941e-06
 119    -3.9336761323689e-06
 120    -1.2620893445558e-05
 121    6.3041266670892e-05
 122    -4.9112236000305e-05
 123    -2.2505389517523e-05
 124    -2.0942170993455e-07
 125    3.1822821040823e-06
 126    1.6815222640139e-06
 127    -2.3142055007633e-06
 128    1.7925916465866e-06
 129    -9.8330639261807e-06
 130    6.9515162461244e-05
 131    2.1681688230641e-05
 132    -1.4600526338128e-05
 133    3.7246506852112e-07
 134    -0.00010394827024535
 135    0.00012567326079643
 136    2.4181316440791e-05
 137    0.00024991612135889
 138    -5.9856240609925e-06
 139    -7.1229188005438e-06
 140    -7.9636136881616e-07
 141    -3.8896593332923e-06
 142    -4.3925822362516e-06
 143    1.1132718011748e-05
 144    1.1519367010187e-05
 145    -0.0001549455515314
 146    -2.1307057922597e-05
 147    1.0971626645756e-05
 148    2.5121104865486e-05
 149    -5.7537787931325e-05
 150    3.6951636952067e-05
 151    8.3190339523782e-05
 152    5.9137146488216e-06
 153    5.8140593359851e-06
 154    1.1959661792589e-06
 155    -3.7651297207288e-06
 156    3.9865327181185e-06
 157    -2.2642583605643e-07
 158    -1.1547643958351e-05
 159    1.9437026595235e-05
 160    -5.492425553445e-06
 161    3.3519864131178e-06
 162    -9.5040804214362e-07
 163    3.9649507050901e-05
 164    -1.7459565257468e-05
 165    -1.668022264802e-05
 166    -2.7334414722358e-06
 167    1.8821101553759e-06
 168    -2.853258407361e-08
 169    -9.134867151789e-07
 170    -4.0496344677022e-07
 171    1.9180950283756e-06
 172    1.3990418764718e-05
 173    -3.41208607389e-05
 174    2.1766795683125e-06
 175    -2.0635248114607e-06
 176    -8.3391787239154e-06
 177    1.4347042264306e-05
 178    5.4005742922169e-06
 179    3.5981913125523e-05
 180    -1.2637087124453e-06
 181    -2.6566112970436e-06
 182    -7.5886036790238e-07
 183    3.8930986469637e-07
 184    -6.2534872201795e-07
 185    -1.719076025402e-06
 186    2.4523217353429e-05
 187    -1.5704712922686e-05
 188    -4.9636218953323e-06
 189    -4.2174328032245e-06
 190    -2.3074262010369e-05
 191    3.1525588450844e-06
 192    6.4239830316522e-07
 193    2.4879947188467e-05
 194    -2.2403389989918e-06
 195    2.0857971124529e-08
 196    -2.2124279214641e-06
 197    1.8999413433584e-08
 198    -3.4106200610162e-07
 199    3.8538210679481e-06
 200    -3.254695965927e-06
 201    -4.7570593801902e-06
 202    -2.789205838729e-05
 203    9.240641300453e-06
 204    -1.0960602567928e-05
 205    -6.9374395066277e-07
 206    2.3121356456312e-05
 207    -2.2548893983164e-06
 208    5.0717710034273e-05
 209    -5.6203290849257e-06
 210    2.5845564973254e-05
 211    -4.5162784966333e-06
 212    -9.8335686072898e-06
 213    -2.2063078539536e-06
 214    1.2348428305337e-05
 215    3.1403813504659e-06
 216    6.1677892245694e-05
 217    -2.9178886890271e-06
 218    -1.6452209924698e-05
 219    1.8260885653526e-06
 220    1.0536676443472e-06
 221    8.5450775246759e-05
 222    -9.586369114546e-05
 223    -0.0008733329923497
 224    -9.5291564093731e-05
 225    -5.1754676511021e-05
 226    0.0002201674679294
 227    -0.0006481681876516
 228    -0.00026657094166116
 229    0.00060666797087858
 230    3.0836949764478e-06
 231    3.5126616272662e-05
 232    1.1560675579402e-05
 233    -2.1337279132614e-05
 234    -1.8646248311369e-05
 235    -0.00014123610994564
 236    0.00035435028540601
 237    -7.4004464305077e-05
 238    0.00019880876583567
 239     0.000169846141217
 240    -0.00054382613714933
 241    -5.9451916229895e-05
 242    -0.00031127126963956
 243    0.0013943906216913
 244    -1.6386974747476e-05
 245    -5.6960931704269e-05
 246    6.8938072148199e-07
 247    -1.3628680959176e-05
 248    1.0332500254728e-05
 249    1.3140687306701e-06
 250    -0.00031712394030227
 251    0.00033185906597437
 252    0.0003808953166011
 253    -0.00059529447204462
 254    0.00046860490793131
 255    8.0262224330595e-05
 256    0.00016929164445554
 257    0.00080172322225388
 258    8.2073503068969e-05
 259    0.0016069170739969
 260    0.00010544935880408
 261    1.4066376016044e-05
 262    -1.320178107103e-05
 263    -0.00015280640515994
 264    -6.8092386920632e-05
 265    0.00025007717436041
 266    -0.00013359381175814
 267    -0.00018310470896146
 268    0.00037847889838575
 269    1.029310397914e-05
 270    0.00039909301134405
 271    -0.0053958478489259
 272    -6.2816321556707e-05
 273    0.00016481538190273
 274    -0.00010307084078005
 275    0.00087563055071128
 276     0.001377003155999
 277    -0.0029378351799793
 278    -0.00011011817459017
 279    0.00011951221887866
 280    8.3803632504735e-05
 281    -4.3228706023681e-05