[Molden Format]
made by pyscf v[2.0.1]
[Atoms] (AU)
C   1   6     0.69100024066471     0.64692934207205    -3.48223131169301
H   2   1     2.68052439830868     1.13355088658700    -3.25784032593313
C   3   6    -0.36286361513219     0.85440132524594    -5.97030179418974
H   4   1    -2.35448549047279     0.36322488579172    -6.17995817793143
C   5   6     0.93697958957450     1.61209284601821    -8.05828437677121
H   6   1    -0.09693119212527     2.00604603919817    -9.79517014534402
C   7   6     3.63030097622708     1.92762357571405    -8.11066704391556
H   8   1     4.64038155806228     1.52704759336691    -6.35595956986227
H   9   1     1.55630230933075    -1.92953025305990    12.99630010416247
C   10   6     0.75233899775814    -2.21270439606481    11.10705728102219
H   11   1    -0.43433408177274    -3.90944857546550    11.22216085340412
C   12   6     2.86362581178706    -2.63237380607947     9.17926416456045
H   13   1     4.39038949912609    -1.24955421540245     9.49899813497433
H   14   1     3.74629220191363    -4.48798724300892     9.47414880959024
C   15   6     2.02478325613682    -2.42177285709634     6.44560829588644
C   16   6     3.88048732735477    -3.58795445234514     4.61402886975252
C   17   6    -0.18412382258602    -1.30464291234259     5.76021113872346
C   18   6    -2.10044360464350    -0.26837831858460     7.71610340967100
C   19   6    -3.08956938670431     2.35282328359417     6.88693925039594
C   20   6    -4.37372924086464    -2.09766595989678     7.93610724222001
C   21   6    -0.83850430601230     0.06372213486173    10.33002307638377
H   22   1     0.38411922151109     1.74281358582432    10.27380136542181
H   23   1    -2.30980003007874     0.45460143924521    11.73986301809809
H   24   1     4.58527064644668    -5.38706904487420     5.36778158031719
H   25   1     5.54944938085014    -2.37631462192748     4.35398898413318
H   26   1     3.06633019150423    -3.94118377050688     2.75255466040884
H   27   1    -4.17727778763735     2.26573369139522     5.12914900961283
H   28   1    -1.52662344944051     3.68001877445626     6.59540397144508
H   29   1    -4.32916174397830     3.13643051467482     8.35225460090378
H   30   1    -5.32329548508442    -2.36691813602939     6.11583672749896
H   31   1    -5.77989366602257    -1.33896741843465     9.25748940450990
H   32   1    -3.79310905208926    -3.96389819310853     8.61386170102686
C   33   6    -1.01100794811226    -1.06331657314144     3.11929490449947
C   34   6     0.37686231036534    -0.33275864505552     1.09165013605873
H   35   1    -3.01671213906703    -1.40297922279997     2.77827895090944
C   36   6    -0.64382707979370    -0.11591880174385    -1.42063131251064
H   37   1     2.35569259782137     0.17174499283897     1.33641070251401
H   38   1    -2.63317482980319    -0.60229203511219    -1.66119700387645
C   39   6     5.00345825531076     2.67452304879010   -10.14372233560053
C   40   6     7.74537676211387     2.93885238802377   -10.00575318331397
H   41   1     4.11504514624535     3.10282594680410   -11.94789724846226
O   42   8     9.09456961333047     3.59889471504076   -11.75642359916462
H   43   1     8.57474602054619     2.48152315519597    -8.12342071425648
[GTO]
1 0
 s    6 1.00
             3047.5249  0.0018347001629433
             457.36951    0.01403730124668
             103.94869   0.068842606114048
             29.210155    0.23218442062076
              9.286663    0.46794134155879
              3.163927    0.36231203217765
 s    3 1.00
             7.8682724   -0.11933240861517
             1.8812885   -0.16085421161283
             0.5442493     1.1434564825515
 s    1 1.00
             0.1687144                   1
 p    3 1.00
             7.8682724   0.068999095584993
             1.8812885    0.31642397975315
             0.5442493    0.74430825237435
 p    1 1.00
             0.1687144                   1
 d    1 1.00
                   0.8                   1

2 0
 s    3 1.00
             18.731137    0.03349459952309
             2.8253937    0.23472694665786
             0.6401217    0.81375731841339
 s    1 1.00
             0.1612778                   1

3 0
 s    6 1.00
             3047.5249  0.0018347001629433
             457.36951    0.01403730124668
             103.94869   0.068842606114048
             29.210155    0.23218442062076
              9.286663    0.46794134155879
              3.163927    0.36231203217765
 s    3 1.00
             7.8682724   -0.11933240861517
             1.8812885   -0.16085421161283
             0.5442493     1.1434564825515
 s    1 1.00
             0.1687144                   1
 p    3 1.00
             7.8682724   0.068999095584993
             1.8812885    0.31642397975315
             0.5442493    0.74430825237435
 p    1 1.00
             0.1687144                   1
 d    1 1.00
                   0.8                   1

4 0
 s    3 1.00
             18.731137    0.03349459952309
             2.8253937    0.23472694665786
             0.6401217    0.81375731841339
 s    1 1.00
             0.1612778                   1

5 0
 s    6 1.00
             3047.5249  0.0018347001629433
             457.36951    0.01403730124668
             103.94869   0.068842606114048
             29.210155    0.23218442062076
              9.286663    0.46794134155879
              3.163927    0.36231203217765
 s    3 1.00
             7.8682724   -0.11933240861517
             1.8812885   -0.16085421161283
             0.5442493     1.1434564825515
 s    1 1.00
             0.1687144                   1
 p    3 1.00
             7.8682724   0.068999095584993
             1.8812885    0.31642397975315
             0.5442493    0.74430825237435
 p    1 1.00
             0.1687144                   1
 d    1 1.00
                   0.8                   1

6 0
 s    3 1.00
             18.731137    0.03349459952309
             2.8253937    0.23472694665786
             0.6401217    0.81375731841339
 s    1 1.00
             0.1612778                   1

7 0
 s    6 1.00
             3047.5249  0.0018347001629433
             457.36951    0.01403730124668
             103.94869   0.068842606114048
             29.210155    0.23218442062076
              9.286663    0.46794134155879
              3.163927    0.36231203217765
 s    3 1.00
             7.8682724   -0.11933240861517
             1.8812885   -0.16085421161283
             0.5442493     1.1434564825515
 s    1 1.00
             0.1687144                   1
 p    3 1.00
             7.8682724   0.068999095584993
             1.8812885    0.31642397975315
             0.5442493    0.74430825237435
 p    1 1.00
             0.1687144                   1
 d    1 1.00
                   0.8                   1

8 0
 s    3 1.00
             18.731137    0.03349459952309
             2.8253937    0.23472694665786
             0.6401217    0.81375731841339
 s    1 1.00
             0.1612778                   1

9 0
 s    3 1.00
             18.731137    0.03349459952309
             2.8253937    0.23472694665786
             0.6401217    0.81375731841339
 s    1 1.00
             0.1612778                   1

10 0
 s    6 1.00
             3047.5249  0.0018347001629433
             457.36951    0.01403730124668
             103.94869   0.068842606114048
             29.210155    0.23218442062076
              9.286663    0.46794134155879
              3.163927    0.36231203217765
 s    3 1.00
             7.8682724   -0.11933240861517
             1.8812885   -0.16085421161283
             0.5442493     1.1434564825515
 s    1 1.00
             0.1687144                   1
 p    3 1.00
             7.8682724   0.068999095584993
             1.8812885    0.31642397975315
             0.5442493    0.74430825237435
 p    1 1.00
             0.1687144                   1
 d    1 1.00
                   0.8                   1

11 0
 s    3 1.00
             18.731137    0.03349459952309
             2.8253937    0.23472694665786
             0.6401217    0.81375731841339
 s    1 1.00
             0.1612778                   1

12 0
 s    6 1.00
             3047.5249  0.0018347001629433
             457.36951    0.01403730124668
             103.94869   0.068842606114048
             29.210155    0.23218442062076
              9.286663    0.46794134155879
              3.163927    0.36231203217765
 s    3 1.00
             7.8682724   -0.11933240861517
             1.8812885   -0.16085421161283
             0.5442493     1.1434564825515
 s    1 1.00
             0.1687144                   1
 p    3 1.00
             7.8682724   0.068999095584993
             1.8812885    0.31642397975315
             0.5442493    0.74430825237435
 p    1 1.00
             0.1687144                   1
 d    1 1.00
                   0.8                   1

13 0
 s    3 1.00
             18.731137    0.03349459952309
             2.8253937    0.23472694665786
             0.6401217    0.81375731841339
 s    1 1.00
             0.1612778                   1

14 0
 s    3 1.00
             18.731137    0.03349459952309
             2.8253937    0.23472694665786
             0.6401217    0.81375731841339
 s    1 1.00
             0.1612778                   1

15 0
 s    6 1.00
             3047.5249  0.0018347001629433
             457.36951    0.01403730124668
             103.94869   0.068842606114048
             29.210155    0.23218442062076
              9.286663    0.46794134155879
              3.163927    0.36231203217765
 s    3 1.00
             7.8682724   -0.11933240861517
             1.8812885   -0.16085421161283
             0.5442493     1.1434564825515
 s    1 1.00
             0.1687144                   1
 p    3 1.00
             7.8682724   0.068999095584993
             1.8812885    0.31642397975315
             0.5442493    0.74430825237435
 p    1 1.00
             0.1687144                   1
 d    1 1.00
                   0.8                   1

16 0
 s    6 1.00
             3047.5249  0.0018347001629433
             457.36951    0.01403730124668
             103.94869   0.068842606114048
             29.210155    0.23218442062076
              9.286663    0.46794134155879
              3.163927    0.36231203217765
 s    3 1.00
             7.8682724   -0.11933240861517
             1.8812885   -0.16085421161283
             0.5442493     1.1434564825515
 s    1 1.00
             0.1687144                   1
 p    3 1.00
             7.8682724   0.068999095584993
             1.8812885    0.31642397975315
             0.5442493    0.74430825237435
 p    1 1.00
             0.1687144                   1
 d    1 1.00
                   0.8                   1

17 0
 s    6 1.00
             3047.5249  0.0018347001629433
             457.36951    0.01403730124668
             103.94869   0.068842606114048
             29.210155    0.23218442062076
              9.286663    0.46794134155879
              3.163927    0.36231203217765
 s    3 1.00
             7.8682724   -0.11933240861517
             1.8812885   -0.16085421161283
             0.5442493     1.1434564825515
 s    1 1.00
             0.1687144                   1
 p    3 1.00
             7.8682724   0.068999095584993
             1.8812885    0.31642397975315
             0.5442493    0.74430825237435
 p    1 1.00
             0.1687144                   1
 d    1 1.00
                   0.8                   1

18 0
 s    6 1.00
             3047.5249  0.0018347001629433
             457.36951    0.01403730124668
             103.94869   0.068842606114048
             29.210155    0.23218442062076
              9.286663    0.46794134155879
              3.163927    0.36231203217765
 s    3 1.00
             7.8682724   -0.11933240861517
             1.8812885   -0.16085421161283
             0.5442493     1.1434564825515
 s    1 1.00
             0.1687144                   1
 p    3 1.00
             7.8682724   0.068999095584993
             1.8812885    0.31642397975315
             0.5442493    0.74430825237435
 p    1 1.00
             0.1687144                   1
 d    1 1.00
                   0.8                   1

19 0
 s    6 1.00
             3047.5249  0.0018347001629433
             457.36951    0.01403730124668
             103.94869   0.068842606114048
             29.210155    0.23218442062076
              9.286663    0.46794134155879
              3.163927    0.36231203217765
 s    3 1.00
             7.8682724   -0.11933240861517
             1.8812885   -0.16085421161283
             0.5442493     1.1434564825515
 s    1 1.00
             0.1687144                   1
 p    3 1.00
             7.8682724   0.068999095584993
             1.8812885    0.31642397975315
             0.5442493    0.74430825237435
 p    1 1.00
             0.1687144                   1
 d    1 1.00
                   0.8                   1

20 0
 s    6 1.00
             3047.5249  0.0018347001629433
             457.36951    0.01403730124668
             103.94869   0.068842606114048
             29.210155    0.23218442062076
              9.286663    0.46794134155879
              3.163927    0.36231203217765
 s    3 1.00
             7.8682724   -0.11933240861517
             1.8812885   -0.16085421161283
             0.5442493     1.1434564825515
 s    1 1.00
             0.1687144                   1
 p    3 1.00
             7.8682724   0.068999095584993
             1.8812885    0.31642397975315
             0.5442493    0.74430825237435
 p    1 1.00
             0.1687144                   1
 d    1 1.00
                   0.8                   1

21 0
 s    6 1.00
             3047.5249  0.0018347001629433
             457.36951    0.01403730124668
             103.94869   0.068842606114048
             29.210155    0.23218442062076
              9.286663    0.46794134155879
              3.163927    0.36231203217765
 s    3 1.00
             7.8682724   -0.11933240861517
             1.8812885   -0.16085421161283
             0.5442493     1.1434564825515
 s    1 1.00
             0.1687144                   1
 p    3 1.00
             7.8682724   0.068999095584993
             1.8812885    0.31642397975315
             0.5442493    0.74430825237435
 p    1 1.00
             0.1687144                   1
 d    1 1.00
                   0.8                   1

22 0
 s    3 1.00
             18.731137    0.03349459952309
             2.8253937    0.23472694665786
             0.6401217    0.81375731841339
 s    1 1.00
             0.1612778                   1

23 0
 s    3 1.00
             18.731137    0.03349459952309
             2.8253937    0.23472694665786
             0.6401217    0.81375731841339
 s    1 1.00
             0.1612778                   1

24 0
 s    3 1.00
             18.731137    0.03349459952309
             2.8253937    0.23472694665786
             0.6401217    0.81375731841339
 s    1 1.00
             0.1612778                   1

25 0
 s    3 1.00
             18.731137    0.03349459952309
             2.8253937    0.23472694665786
             0.6401217    0.81375731841339
 s    1 1.00
             0.1612778                   1

26 0
 s    3 1.00
             18.731137    0.03349459952309
             2.8253937    0.23472694665786
             0.6401217    0.81375731841339
 s    1 1.00
             0.1612778                   1

27 0
 s    3 1.00
             18.731137    0.03349459952309
             2.8253937    0.23472694665786
             0.6401217    0.81375731841339
 s    1 1.00
             0.1612778                   1

28 0
 s    3 1.00
             18.731137    0.03349459952309
             2.8253937    0.23472694665786
             0.6401217    0.81375731841339
 s    1 1.00
             0.1612778                   1

29 0
 s    3 1.00
             18.731137    0.03349459952309
             2.8253937    0.23472694665786
             0.6401217    0.81375731841339
 s    1 1.00
             0.1612778                   1

30 0
 s    3 1.00
             18.731137    0.03349459952309
             2.8253937    0.23472694665786
             0.6401217    0.81375731841339
 s    1 1.00
             0.1612778                   1

31 0
 s    3 1.00
             18.731137    0.03349459952309
             2.8253937    0.23472694665786
             0.6401217    0.81375731841339
 s    1 1.00
             0.1612778                   1

32 0
 s    3 1.00
             18.731137    0.03349459952309
             2.8253937    0.23472694665786
             0.6401217    0.81375731841339
 s    1 1.00
             0.1612778                   1

33 0
 s    6 1.00
             3047.5249  0.0018347001629433
             457.36951    0.01403730124668
             103.94869   0.068842606114048
             29.210155    0.23218442062076
              9.286663    0.46794134155879
              3.163927    0.36231203217765
 s    3 1.00
             7.8682724   -0.11933240861517
             1.8812885   -0.16085421161283
             0.5442493     1.1434564825515
 s    1 1.00
             0.1687144                   1
 p    3 1.00
             7.8682724   0.068999095584993
             1.8812885    0.31642397975315
             0.5442493    0.74430825237435
 p    1 1.00
             0.1687144                   1
 d    1 1.00
                   0.8                   1

34 0
 s    6 1.00
             3047.5249  0.0018347001629433
             457.36951    0.01403730124668
             103.94869   0.068842606114048
             29.210155    0.23218442062076
              9.286663    0.46794134155879
              3.163927    0.36231203217765
 s    3 1.00
             7.8682724   -0.11933240861517
             1.8812885   -0.16085421161283
             0.5442493     1.1434564825515
 s    1 1.00
             0.1687144                   1
 p    3 1.00
             7.8682724   0.068999095584993
             1.8812885    0.31642397975315
             0.5442493    0.74430825237435
 p    1 1.00
             0.1687144                   1
 d    1 1.00
                   0.8                   1

35 0
 s    3 1.00
             18.731137    0.03349459952309
             2.8253937    0.23472694665786
             0.6401217    0.81375731841339
 s    1 1.00
             0.1612778                   1

36 0
 s    6 1.00
             3047.5249  0.0018347001629433
             457.36951    0.01403730124668
             103.94869   0.068842606114048
             29.210155    0.23218442062076
              9.286663    0.46794134155879
              3.163927    0.36231203217765
 s    3 1.00
             7.8682724   -0.11933240861517
             1.8812885   -0.16085421161283
             0.5442493     1.1434564825515
 s    1 1.00
             0.1687144                   1
 p    3 1.00
             7.8682724   0.068999095584993
             1.8812885    0.31642397975315
             0.5442493    0.74430825237435
 p    1 1.00
             0.1687144                   1
 d    1 1.00
                   0.8                   1

37 0
 s    3 1.00
             18.731137    0.03349459952309
             2.8253937    0.23472694665786
             0.6401217    0.81375731841339
 s    1 1.00
             0.1612778                   1

38 0
 s    3 1.00
             18.731137    0.03349459952309
             2.8253937    0.23472694665786
             0.6401217    0.81375731841339
 s    1 1.00
             0.1612778                   1

39 0
 s    6 1.00
             3047.5249  0.0018347001629433
             457.36951    0.01403730124668
             103.94869   0.068842606114048
             29.210155    0.23218442062076
              9.286663    0.46794134155879
              3.163927    0.36231203217765
 s    3 1.00
             7.8682724   -0.11933240861517
             1.8812885   -0.16085421161283
             0.5442493     1.1434564825515
 s    1 1.00
             0.1687144                   1
 p    3 1.00
             7.8682724   0.068999095584993
             1.8812885    0.31642397975315
             0.5442493    0.74430825237435
 p    1 1.00
             0.1687144                   1
 d    1 1.00
                   0.8                   1

40 0
 s    6 1.00
             3047.5249  0.0018347001629433
             457.36951    0.01403730124668
             103.94869   0.068842606114048
             29.210155    0.23218442062076
              9.286663    0.46794134155879
              3.163927    0.36231203217765
 s    3 1.00
             7.8682724   -0.11933240861517
             1.8812885   -0.16085421161283
             0.5442493     1.1434564825515
 s    1 1.00
             0.1687144                   1
 p    3 1.00
             7.8682724   0.068999095584993
             1.8812885    0.31642397975315
             0.5442493    0.74430825237435
 p    1 1.00
             0.1687144                   1
 d    1 1.00
                   0.8                   1

41 0
 s    3 1.00
             18.731137    0.03349459952309
             2.8253937    0.23472694665786
             0.6401217    0.81375731841339
 s    1 1.00
             0.1612778                   1

42 0
 s    6 1.00
             5484.6717   0.001831099805527
             825.23495   0.013950098518422
             188.04696    0.06844509273075
               52.9645    0.23271427528445
              16.89757    0.47019295006289
             5.7996353    0.35852086192309
 s    3 1.00
             15.539616   -0.11077750382508
             3.5999336   -0.14802630511126
             1.0137618     1.1307670390447
 s    1 1.00
             0.2700058                   1
 p    3 1.00
             15.539616   0.070874299543311
             3.5999336    0.33975279781076
             1.0137618    0.72715859531445
 p    1 1.00
             0.2700058                   1
 d    1 1.00
                   0.8                   1

43 0
 s    3 1.00
             18.731137    0.03349459952309
             2.8253937    0.23472694665786
             0.6401217    0.81375731841339
 s    1 1.00
             0.1612778                   1

[5d]
[7f]
[9g]

[MO]
 Sym= A
 Ene=               0
 Spin= Alpha
 Occup=    1.00000
   1    0.0021937107403063
   2    0.00028904272644398
   3    0.00036126961710443
   4    0.00014728101484492
   5    9.4287735884337e-05
   6    -0.00013881699200316
   7    -0.0016073318542412
   8    -0.00072504779933288
   9    0.00070013409602759
  10    7.8308587231633e-05
  11    -5.9831406418124e-05
  12    -2.7456726283258e-05
  13    -2.8133236071128e-05
  14    -2.9241390602738e-07
  15    9.860939587162e-05
  16    0.0015983268627541
  17    -0.012212266559254
  18    -8.7772209447856e-05
  19    -0.0011009433005564
  20    0.00017304025900956
  21    3.9791612905197e-05
  22    -9.5552902498988e-05
  23    -9.2661744647021e-05
  24    -6.5377427943575e-05
  25    0.00044322069099541
  26    -0.00012466930265028
  27    -7.8369953047964e-05
  28    8.4865690588712e-05
  29    -7.1120119420361e-05
  30    1.5985024339362e-05
  31    5.376051404616e-05
  32    -0.00019795096057936
  33    -0.011510423933146
  34    0.0012570162160752
  35    -0.0073262377827312
  36    0.0013445032748053
  37    0.00018855126841363
  38    -0.00014680013725484
  39    -0.0038294499843079
  40    -0.00093409440463154
  41    0.0017365540239608
  42    -0.00074716611789177
  43    5.492036026208e-05
  44    -4.5275022532115e-06
  45    0.0013054539708343
  46    0.00028582223135526
  47    0.0004680469241668
  48    0.00046554892898372
  49     -0.99487427264051
  50      -0.0381412090403
  51     0.031710552118642
  52    0.00045067084030269
  53    -3.7674689080115e-05
  54    0.00037350914005674
  55    -0.0010145232646626
  56    0.00072985594873278
  57    -0.0029889148241087
  58    -0.00016474297002296
  59    0.0006865632352473
  60    0.00037941502294232
  61    -0.00060546752836166
  62    -0.00035469224242128
  63    0.0012903251594573
  64    -0.0054036336086059
  65    1.4566467054268e-06
  66    2.5177161390118e-06
  67    9.2104670588706e-08
  68    3.9520753312663e-07
  69    -1.1203296699037e-06
  70    -1.1056180106973e-06
  71    2.0623484084671e-06
  72    1.4913735597438e-07
  73    -5.2839596014383e-06
  74    -7.7738969866293e-06
  75    -3.5871233328185e-06
  76    3.0307833984099e-07
  77    2.4284533168467e-07
  78    -2.3122556022075e-07
  79    -1.9531419306811e-07
  80    1.1843147448666e-07
  81    -1.1344688557872e-06
  82    -3.9779786346722e-06
  83    -1.6834498500353e-07
  84    5.7541599034913e-07
  85    3.3828712599416e-05
  86    -2.4909304888439e-06
  87    4.7862901259011e-07
  88    -4.0521340637598e-06
  89    -8.5009426806709e-06
  90    2.3201109644532e-05
  91    -5.8377562035658e-06
  92    -8.4651742218151e-07
  93    1.3612268186831e-06
  94    -1.5084274054448e-06
  95    9.3935762032883e-08
  96    5.3543423585035e-07
  97    -1.6708959279073e-06
  98    -4.3008013887725e-06
  99    -4.0512235223738e-07
 100    4.2583262569885e-06
 101    4.4195188748674e-07
 102    4.468019306289e-06
 103    -9.6875349880402e-05
 104    -2.5636249112108e-06
 105    -1.3037309628026e-06
 106    3.1415417040904e-06
 107    9.6801951354526e-05
 108    -9.1717555547078e-05
 109    -7.6384775493131e-05
 110    2.5261956152492e-06
 111    1.067905319136e-06
 112    -3.9306368150981e-08
 113    -4.639317699046e-07
 114    2.5672969680437e-06
 115    1.2996573681291e-06
 116    1.1204625183053e-05
 117    -0.00011086105494064
 118    3.9604618913597e-06
 119    -4.1975927068811e-06
 120    -7.7317263709884e-07
 121    1.2217015784553e-05
 122    -1.4232006865948e-07
 123    -3.8880547462913e-05
 124    -1.6656834908867e-07
 125    1.6394936019497e-06
 126    1.1658898389873e-06
 127    2.2458527392827e-07
 128    2.069465642061e-06
 129    1.5462376272393e-06
 130    2.6301642647911e-05
 131    -8.0028869191178e-05
 132    -5.2291368093767e-06
 133    -3.5520007770377e-06
 134    -1.714445379832e-05
 135    0.00014428962758312
 136    -8.642573259295e-06
 137    0.00024362970882217
 138    -6.4198471246712e-06
 139    -6.4834970770185e-06
 140    -1.9261126793393e-06
 141    -1.9703016585293e-06
 142    -2.739251368524e-06
 143    2.5038138658263e-06
 144    1.6529118537376e-05
 145    -5.9070326369955e-05
 146    -1.2411422812925e-06
 147    -1.5197123759169e-07
 148    -9.5543919357723e-07
 149    -3.544620182423e-05
 150    4.7989178644438e-06
 151    3.0301308765414e-05
 152    3.6513951311981e-06
 153    2.238304851149e-06
 154    1.2260405164376e-06
 155    -2.5249319190673e-06
 156    2.6790237388791e-06
 157    -3.7629127645196e-07
 158    -5.1699950848164e-06
 159    1.3630982458421e-05
 160    -2.1398582755631e-06
 161    -5.9054093962965e-08
 162    1.8541337351801e-06
 163    2.6272711872968e-05
 164    -9.167470109425e-06
 165    -4.8816736098243e-06
 166    -2.1693894341067e-06
 167    7.9396405483833e-07
 168    1.0637077254769e-08
 169    2.124047801464e-08
 170    -1.2437525994841e-06
 171    4.7232262255843e-07
 172    3.7975974049464e-06
 173    -1.2596797917818e-05
 174    7.3200392151208e-07
 175    5.2168573631805e-08
 176    -4.1952629104074e-06
 177    3.9305269206375e-06
 178    -4.2158806116822e-06
 179    9.0400866397105e-06
 180    -4.6453560031165e-07
 181    -1.7857452796971e-06
 182    -5.8570986990707e-07
 183    9.3585910418765e-07
 184    -5.9532064728326e-07
 185    1.1589030675352e-06
 186    1.354122758806e-05
 187    -2.2945277381655e-05
 188    1.5287710215304e-07
 189    -8.7710638065774e-07
 190    -6.3180347145903e-06
 191    -1.9396075371266e-06
 192    5.9624024624615e-06
 193    2.3522345453168e-05
 194    -1.0302644853291e-06
 195    -4.1876267652113e-07
 196    -1.3434654000815e-06
 197    -1.9065360372781e-07
 198    6.5724191133134e-08
 199    2.8698021708398e-06
 200    -1.7575282370471e-07
 201    -3.0803192452353e-07
 202    -1.2432323796406e-05
 203    6.2791721174828e-06
 204    1.1540175498786e-05
 205    -4.5844351449396e-06
 206    3.0534822725675e-05
 207    -4.0458373832303e-06
 208    8.7455816229746e-07
 209    -5.130500707283e-06
 210    1.3632212872231e-05
 211    -3.3892904130886e-06
 212    -7.9812848796156e-06
 213    7.6315218397264e-07
 214    9.3398518392902e-06
 215    9.206176129893e-07
 216    1.3928055634578e-05
 217    -4.3348622511017e-07
 218    -1.7847505195367e-06
 219    -8.4134461704851e-07
 220    -1.7350194978406e-06
 221    4.7344984348683e-06
 222    4.1512111617035e-05
 223    -0.00010011891277751
 224    3.3901105855371e-07
 225    1.0869336630163e-05
 226    -6.5154529584014e-06
 227    -0.00021026023735823
 228    -0.00011024967508279
 229    0.00035691574087823
 230    2.3333850199477e-06
 231    1.9177073666477e-05
 232    7.4801770456354e-06
 233    -1.2151172033388e-05
 234    -1.0241002157492e-05
 235    -8.876203477362e-06
 236    -7.0658415705163e-06
 237    -3.830072261169e-05
 238    -9.2649217006403e-06
 239    6.1014694173893e-06
 240    -1.5070862378447e-05
 241    0.00022852062720948
 242    -4.6745864713585e-05
 243    0.00052563275995163
 244    2.0972092936292e-06
 245    -2.8508908612964e-05
 246    -3.7755509387035e-06
 247    -5.6221184174973e-06
 248    6.1622433550828e-06
 249    1.5244965362175e-05
 250    -0.00012914932903493
 251    -2.2419212400269e-05
 252    4.8559270528084e-05
 253    -0.0012198181791307
 254    3.941537511043e-06
 255    -2.0158564781182e-05
 256    2.4842129289778e-05
 257    -9.7410623338457e-05
 258    -0.00021916894465879
 259     0.001330554781399
 260    -3.9087966099235e-05
 261    4.8468279804304e-05
 262    2.4492944003068e-05
 263    -1.4663557573765e-05
 264    -1.1561863165717e-05
 265    3.5120847869577e-05
 266    -0.00030492264099928
 267    1.8115168744965e-05
 268    0.00011242923271322
 269    0.0001799571017483
 270    -0.00011928417851225
 271    -0.011866934196473
 272    -0.001631261253379
 273    -0.0012998900834236
 274    0.0038267964823371
 275    0.0030361572408188
 276    0.00077472646069011
 277    -0.0014419008577093
 278    0.00075652422812294
 279    -0.0011747062273929
 280    -0.00062209634054232