[Molden Format]
made by pyscf v[2.0.1]
[Atoms] (AU)
C   1   6     0.69100024066471     0.64692934207205    -3.48223131169301
H   2   1     2.68052439830868     1.13355088658700    -3.25784032593313
C   3   6    -0.36286361513219     0.85440132524594    -5.97030179418974
H   4   1    -2.35448549047279     0.36322488579172    -6.17995817793143
C   5   6     0.93697958957450     1.61209284601821    -8.05828437677121
H   6   1     0.30646242799847     3.28538583431710    -9.07979378939352
C   7   6     3.12235401223615     0.31857752265429    -9.01077606594223
H   8   1     3.73232478675010    -1.35404880050347    -7.96675544506269
H   9   1     1.55630230933075    -1.92953025305990    12.99630010416247
C   10   6     0.75233899775814    -2.21270439606481    11.10705728102219
H   11   1    -0.43433408177274    -3.90944857546550    11.22216085340412
C   12   6     2.86362581178706    -2.63237380607947     9.17926416456045
H   13   1     4.39038949912609    -1.24955421540245     9.49899813497433
H   14   1     3.74629220191363    -4.48798724300892     9.47414880959024
C   15   6     2.02478325613682    -2.42177285709634     6.44560829588644
C   16   6     3.88048732735477    -3.58795445234514     4.61402886975252
C   17   6    -0.18412382258602    -1.30464291234259     5.76021113872346
C   18   6    -2.10044360464350    -0.26837831858460     7.71610340967100
C   19   6    -3.08956938670431     2.35282328359417     6.88693925039594
C   20   6    -4.37372924086464    -2.09766595989678     7.93610724222001
C   21   6    -0.83850430601230     0.06372213486173    10.33002307638377
H   22   1     0.38411922151109     1.74281358582432    10.27380136542181
H   23   1    -2.30980003007874     0.45460143924521    11.73986301809809
H   24   1     4.58527064644668    -5.38706904487420     5.36778158031719
H   25   1     5.54944938085014    -2.37631462192748     4.35398898413318
H   26   1     3.06633019150423    -3.94118377050688     2.75255466040884
H   27   1    -4.17727778763735     2.26573369139522     5.12914900961283
H   28   1    -1.52662344944051     3.68001877445626     6.59540397144508
H   29   1    -4.32916174397830     3.13643051467482     8.35225460090378
H   30   1    -5.32329548508442    -2.36691813602939     6.11583672749896
H   31   1    -5.77989366602257    -1.33896741843465     9.25748940450990
H   32   1    -3.79310905208926    -3.96389819310853     8.61386170102686
C   33   6    -1.01100794811226    -1.06331657314144     3.11929490449947
C   34   6     0.37686231036534    -0.33275864505552     1.09165013605873
H   35   1    -3.01671213906703    -1.40297922279997     2.77827895090944
C   36   6    -0.64382707979370    -0.11591880174385    -1.42063131251064
H   37   1     2.35569259782137     0.17174499283897     1.33641070251401
H   38   1    -2.63317482980319    -0.60229203511219    -1.66119700387645
C   39   6     4.47307059082302     1.00138906809445   -11.08105785168909
C   40   6     6.67463726557562    -0.44413475967984   -11.89995199897600
H   41   1     3.96718229655089     2.64690253849906   -12.20539356366280
O   42   8     7.97152342098443     0.06042731610533   -13.73960618931333
H   43   1     7.12379765531873    -2.11255344586070   -10.69379572801653
[GTO]
1 0
 s    6 1.00
             3047.5249  0.0018347001629433
             457.36951    0.01403730124668
             103.94869   0.068842606114048
             29.210155    0.23218442062076
              9.286663    0.46794134155879
              3.163927    0.36231203217765
 s    3 1.00
             7.8682724   -0.11933240861517
             1.8812885   -0.16085421161283
             0.5442493     1.1434564825515
 s    1 1.00
             0.1687144                   1
 p    3 1.00
             7.8682724   0.068999095584993
             1.8812885    0.31642397975315
             0.5442493    0.74430825237435
 p    1 1.00
             0.1687144                   1
 d    1 1.00
                   0.8                   1

2 0
 s    3 1.00
             18.731137    0.03349459952309
             2.8253937    0.23472694665786
             0.6401217    0.81375731841339
 s    1 1.00
             0.1612778                   1

3 0
 s    6 1.00
             3047.5249  0.0018347001629433
             457.36951    0.01403730124668
             103.94869   0.068842606114048
             29.210155    0.23218442062076
              9.286663    0.46794134155879
              3.163927    0.36231203217765
 s    3 1.00
             7.8682724   -0.11933240861517
             1.8812885   -0.16085421161283
             0.5442493     1.1434564825515
 s    1 1.00
             0.1687144                   1
 p    3 1.00
             7.8682724   0.068999095584993
             1.8812885    0.31642397975315
             0.5442493    0.74430825237435
 p    1 1.00
             0.1687144                   1
 d    1 1.00
                   0.8                   1

4 0
 s    3 1.00
             18.731137    0.03349459952309
             2.8253937    0.23472694665786
             0.6401217    0.81375731841339
 s    1 1.00
             0.1612778                   1

5 0
 s    6 1.00
             3047.5249  0.0018347001629433
             457.36951    0.01403730124668
             103.94869   0.068842606114048
             29.210155    0.23218442062076
              9.286663    0.46794134155879
              3.163927    0.36231203217765
 s    3 1.00
             7.8682724   -0.11933240861517
             1.8812885   -0.16085421161283
             0.5442493     1.1434564825515
 s    1 1.00
             0.1687144                   1
 p    3 1.00
             7.8682724   0.068999095584993
             1.8812885    0.31642397975315
             0.5442493    0.74430825237435
 p    1 1.00
             0.1687144                   1
 d    1 1.00
                   0.8                   1

6 0
 s    3 1.00
             18.731137    0.03349459952309
             2.8253937    0.23472694665786
             0.6401217    0.81375731841339
 s    1 1.00
             0.1612778                   1

7 0
 s    6 1.00
             3047.5249  0.0018347001629433
             457.36951    0.01403730124668
             103.94869   0.068842606114048
             29.210155    0.23218442062076
              9.286663    0.46794134155879
              3.163927    0.36231203217765
 s    3 1.00
             7.8682724   -0.11933240861517
             1.8812885   -0.16085421161283
             0.5442493     1.1434564825515
 s    1 1.00
             0.1687144                   1
 p    3 1.00
             7.8682724   0.068999095584993
             1.8812885    0.31642397975315
             0.5442493    0.74430825237435
 p    1 1.00
             0.1687144                   1
 d    1 1.00
                   0.8                   1

8 0
 s    3 1.00
             18.731137    0.03349459952309
             2.8253937    0.23472694665786
             0.6401217    0.81375731841339
 s    1 1.00
             0.1612778                   1

9 0
 s    3 1.00
             18.731137    0.03349459952309
             2.8253937    0.23472694665786
             0.6401217    0.81375731841339
 s    1 1.00
             0.1612778                   1

10 0
 s    6 1.00
             3047.5249  0.0018347001629433
             457.36951    0.01403730124668
             103.94869   0.068842606114048
             29.210155    0.23218442062076
              9.286663    0.46794134155879
              3.163927    0.36231203217765
 s    3 1.00
             7.8682724   -0.11933240861517
             1.8812885   -0.16085421161283
             0.5442493     1.1434564825515
 s    1 1.00
             0.1687144                   1
 p    3 1.00
             7.8682724   0.068999095584993
             1.8812885    0.31642397975315
             0.5442493    0.74430825237435
 p    1 1.00
             0.1687144                   1
 d    1 1.00
                   0.8                   1

11 0
 s    3 1.00
             18.731137    0.03349459952309
             2.8253937    0.23472694665786
             0.6401217    0.81375731841339
 s    1 1.00
             0.1612778                   1

12 0
 s    6 1.00
             3047.5249  0.0018347001629433
             457.36951    0.01403730124668
             103.94869   0.068842606114048
             29.210155    0.23218442062076
              9.286663    0.46794134155879
              3.163927    0.36231203217765
 s    3 1.00
             7.8682724   -0.11933240861517
             1.8812885   -0.16085421161283
             0.5442493     1.1434564825515
 s    1 1.00
             0.1687144                   1
 p    3 1.00
             7.8682724   0.068999095584993
             1.8812885    0.31642397975315
             0.5442493    0.74430825237435
 p    1 1.00
             0.1687144                   1
 d    1 1.00
                   0.8                   1

13 0
 s    3 1.00
             18.731137    0.03349459952309
             2.8253937    0.23472694665786
             0.6401217    0.81375731841339
 s    1 1.00
             0.1612778                   1

14 0
 s    3 1.00
             18.731137    0.03349459952309
             2.8253937    0.23472694665786
             0.6401217    0.81375731841339
 s    1 1.00
             0.1612778                   1

15 0
 s    6 1.00
             3047.5249  0.0018347001629433
             457.36951    0.01403730124668
             103.94869   0.068842606114048
             29.210155    0.23218442062076
              9.286663    0.46794134155879
              3.163927    0.36231203217765
 s    3 1.00
             7.8682724   -0.11933240861517
             1.8812885   -0.16085421161283
             0.5442493     1.1434564825515
 s    1 1.00
             0.1687144                   1
 p    3 1.00
             7.8682724   0.068999095584993
             1.8812885    0.31642397975315
             0.5442493    0.74430825237435
 p    1 1.00
             0.1687144                   1
 d    1 1.00
                   0.8                   1

16 0
 s    6 1.00
             3047.5249  0.0018347001629433
             457.36951    0.01403730124668
             103.94869   0.068842606114048
             29.210155    0.23218442062076
              9.286663    0.46794134155879
              3.163927    0.36231203217765
 s    3 1.00
             7.8682724   -0.11933240861517
             1.8812885   -0.16085421161283
             0.5442493     1.1434564825515
 s    1 1.00
             0.1687144                   1
 p    3 1.00
             7.8682724   0.068999095584993
             1.8812885    0.31642397975315
             0.5442493    0.74430825237435
 p    1 1.00
             0.1687144                   1
 d    1 1.00
                   0.8                   1

17 0
 s    6 1.00
             3047.5249  0.0018347001629433
             457.36951    0.01403730124668
             103.94869   0.068842606114048
             29.210155    0.23218442062076
              9.286663    0.46794134155879
              3.163927    0.36231203217765
 s    3 1.00
             7.8682724   -0.11933240861517
             1.8812885   -0.16085421161283
             0.5442493     1.1434564825515
 s    1 1.00
             0.1687144                   1
 p    3 1.00
             7.8682724   0.068999095584993
             1.8812885    0.31642397975315
             0.5442493    0.74430825237435
 p    1 1.00
             0.1687144                   1
 d    1 1.00
                   0.8                   1

18 0
 s    6 1.00
             3047.5249  0.0018347001629433
             457.36951    0.01403730124668
             103.94869   0.068842606114048
             29.210155    0.23218442062076
              9.286663    0.46794134155879
              3.163927    0.36231203217765
 s    3 1.00
             7.8682724   -0.11933240861517
             1.8812885   -0.16085421161283
             0.5442493     1.1434564825515
 s    1 1.00
             0.1687144                   1
 p    3 1.00
             7.8682724   0.068999095584993
             1.8812885    0.31642397975315
             0.5442493    0.74430825237435
 p    1 1.00
             0.1687144                   1
 d    1 1.00
                   0.8                   1

19 0
 s    6 1.00
             3047.5249  0.0018347001629433
             457.36951    0.01403730124668
             103.94869   0.068842606114048
             29.210155    0.23218442062076
              9.286663    0.46794134155879
              3.163927    0.36231203217765
 s    3 1.00
             7.8682724   -0.11933240861517
             1.8812885   -0.16085421161283
             0.5442493     1.1434564825515
 s    1 1.00
             0.1687144                   1
 p    3 1.00
             7.8682724   0.068999095584993
             1.8812885    0.31642397975315
             0.5442493    0.74430825237435
 p    1 1.00
             0.1687144                   1
 d    1 1.00
                   0.8                   1

20 0
 s    6 1.00
             3047.5249  0.0018347001629433
             457.36951    0.01403730124668
             103.94869   0.068842606114048
             29.210155    0.23218442062076
              9.286663    0.46794134155879
              3.163927    0.36231203217765
 s    3 1.00
             7.8682724   -0.11933240861517
             1.8812885   -0.16085421161283
             0.5442493     1.1434564825515
 s    1 1.00
             0.1687144                   1
 p    3 1.00
             7.8682724   0.068999095584993
             1.8812885    0.31642397975315
             0.5442493    0.74430825237435
 p    1 1.00
             0.1687144                   1
 d    1 1.00
                   0.8                   1

21 0
 s    6 1.00
             3047.5249  0.0018347001629433
             457.36951    0.01403730124668
             103.94869   0.068842606114048
             29.210155    0.23218442062076
              9.286663    0.46794134155879
              3.163927    0.36231203217765
 s    3 1.00
             7.8682724   -0.11933240861517
             1.8812885   -0.16085421161283
             0.5442493     1.1434564825515
 s    1 1.00
             0.1687144                   1
 p    3 1.00
             7.8682724   0.068999095584993
             1.8812885    0.31642397975315
             0.5442493    0.74430825237435
 p    1 1.00
             0.1687144                   1
 d    1 1.00
                   0.8                   1

22 0
 s    3 1.00
             18.731137    0.03349459952309
             2.8253937    0.23472694665786
             0.6401217    0.81375731841339
 s    1 1.00
             0.1612778                   1

23 0
 s    3 1.00
             18.731137    0.03349459952309
             2.8253937    0.23472694665786
             0.6401217    0.81375731841339
 s    1 1.00
             0.1612778                   1

24 0
 s    3 1.00
             18.731137    0.03349459952309
             2.8253937    0.23472694665786
             0.6401217    0.81375731841339
 s    1 1.00
             0.1612778                   1

25 0
 s    3 1.00
             18.731137    0.03349459952309
             2.8253937    0.23472694665786
             0.6401217    0.81375731841339
 s    1 1.00
             0.1612778                   1

26 0
 s    3 1.00
             18.731137    0.03349459952309
             2.8253937    0.23472694665786
             0.6401217    0.81375731841339
 s    1 1.00
             0.1612778                   1

27 0
 s    3 1.00
             18.731137    0.03349459952309
             2.8253937    0.23472694665786
             0.6401217    0.81375731841339
 s    1 1.00
             0.1612778                   1

28 0
 s    3 1.00
             18.731137    0.03349459952309
             2.8253937    0.23472694665786
             0.6401217    0.81375731841339
 s    1 1.00
             0.1612778                   1

29 0
 s    3 1.00
             18.731137    0.03349459952309
             2.8253937    0.23472694665786
             0.6401217    0.81375731841339
 s    1 1.00
             0.1612778                   1

30 0
 s    3 1.00
             18.731137    0.03349459952309
             2.8253937    0.23472694665786
             0.6401217    0.81375731841339
 s    1 1.00
             0.1612778                   1

31 0
 s    3 1.00
             18.731137    0.03349459952309
             2.8253937    0.23472694665786
             0.6401217    0.81375731841339
 s    1 1.00
             0.1612778                   1

32 0
 s    3 1.00
             18.731137    0.03349459952309
             2.8253937    0.23472694665786
             0.6401217    0.81375731841339
 s    1 1.00
             0.1612778                   1

33 0
 s    6 1.00
             3047.5249  0.0018347001629433
             457.36951    0.01403730124668
             103.94869   0.068842606114048
             29.210155    0.23218442062076
              9.286663    0.46794134155879
              3.163927    0.36231203217765
 s    3 1.00
             7.8682724   -0.11933240861517
             1.8812885   -0.16085421161283
             0.5442493     1.1434564825515
 s    1 1.00
             0.1687144                   1
 p    3 1.00
             7.8682724   0.068999095584993
             1.8812885    0.31642397975315
             0.5442493    0.74430825237435
 p    1 1.00
             0.1687144                   1
 d    1 1.00
                   0.8                   1

34 0
 s    6 1.00
             3047.5249  0.0018347001629433
             457.36951    0.01403730124668
             103.94869   0.068842606114048
             29.210155    0.23218442062076
              9.286663    0.46794134155879
              3.163927    0.36231203217765
 s    3 1.00
             7.8682724   -0.11933240861517
             1.8812885   -0.16085421161283
             0.5442493     1.1434564825515
 s    1 1.00
             0.1687144                   1
 p    3 1.00
             7.8682724   0.068999095584993
             1.8812885    0.31642397975315
             0.5442493    0.74430825237435
 p    1 1.00
             0.1687144                   1
 d    1 1.00
                   0.8                   1

35 0
 s    3 1.00
             18.731137    0.03349459952309
             2.8253937    0.23472694665786
             0.6401217    0.81375731841339
 s    1 1.00
             0.1612778                   1

36 0
 s    6 1.00
             3047.5249  0.0018347001629433
             457.36951    0.01403730124668
             103.94869   0.068842606114048
             29.210155    0.23218442062076
              9.286663    0.46794134155879
              3.163927    0.36231203217765
 s    3 1.00
             7.8682724   -0.11933240861517
             1.8812885   -0.16085421161283
             0.5442493     1.1434564825515
 s    1 1.00
             0.1687144                   1
 p    3 1.00
             7.8682724   0.068999095584993
             1.8812885    0.31642397975315
             0.5442493    0.74430825237435
 p    1 1.00
             0.1687144                   1
 d    1 1.00
                   0.8                   1

37 0
 s    3 1.00
             18.731137    0.03349459952309
             2.8253937    0.23472694665786
             0.6401217    0.81375731841339
 s    1 1.00
             0.1612778                   1

38 0
 s    3 1.00
             18.731137    0.03349459952309
             2.8253937    0.23472694665786
             0.6401217    0.81375731841339
 s    1 1.00
             0.1612778                   1

39 0
 s    6 1.00
             3047.5249  0.0018347001629433
             457.36951    0.01403730124668
             103.94869   0.068842606114048
             29.210155    0.23218442062076
              9.286663    0.46794134155879
              3.163927    0.36231203217765
 s    3 1.00
             7.8682724   -0.11933240861517
             1.8812885   -0.16085421161283
             0.5442493     1.1434564825515
 s    1 1.00
             0.1687144                   1
 p    3 1.00
             7.8682724   0.068999095584993
             1.8812885    0.31642397975315
             0.5442493    0.74430825237435
 p    1 1.00
             0.1687144                   1
 d    1 1.00
                   0.8                   1

40 0
 s    6 1.00
             3047.5249  0.0018347001629433
             457.36951    0.01403730124668
             103.94869   0.068842606114048
             29.210155    0.23218442062076
              9.286663    0.46794134155879
              3.163927    0.36231203217765
 s    3 1.00
             7.8682724   -0.11933240861517
             1.8812885   -0.16085421161283
             0.5442493     1.1434564825515
 s    1 1.00
             0.1687144                   1
 p    3 1.00
             7.8682724   0.068999095584993
             1.8812885    0.31642397975315
             0.5442493    0.74430825237435
 p    1 1.00
             0.1687144                   1
 d    1 1.00
                   0.8                   1

41 0
 s    3 1.00
             18.731137    0.03349459952309
             2.8253937    0.23472694665786
             0.6401217    0.81375731841339
 s    1 1.00
             0.1612778                   1

42 0
 s    6 1.00
             5484.6717   0.001831099805527
             825.23495   0.013950098518422
             188.04696    0.06844509273075
               52.9645    0.23271427528445
              16.89757    0.47019295006289
             5.7996353    0.35852086192309
 s    3 1.00
             15.539616   -0.11077750382508
             3.5999336   -0.14802630511126
             1.0137618     1.1307670390447
 s    1 1.00
             0.2700058                   1
 p    3 1.00
             15.539616   0.070874299543311
             3.5999336    0.33975279781076
             1.0137618    0.72715859531445
 p    1 1.00
             0.2700058                   1
 d    1 1.00
                   0.8                   1

43 0
 s    3 1.00
             18.731137    0.03349459952309
             2.8253937    0.23472694665786
             0.6401217    0.81375731841339
 s    1 1.00
             0.1612778                   1

[5d]
[7f]
[9g]

[MO]
 Sym= A
 Ene=               0
 Spin= Alpha
 Occup=    1.00000
   1     0.013246860906031
   2    -0.0012054628896385
   3    0.0079419921472369
   4    0.00048046001837651
   5    -0.00022599990385501
   6    0.0012632171270358
   7    0.00056314814270527
   8    0.0014647331475005
   9    -0.0049578011305344
  10    -0.0010273801800741
  11    -0.0010262977755638
  12    0.0001267940744369
  13    -0.00022874172374492
  14    6.779924549434e-05
  15    -0.00041440922006703
  16    -0.00098972661043943
  17      0.99460282744337
  18     0.038955001444161
  19    -0.030694642332023
  20    0.0010075429309386
  21    0.00024492759359381
  22    -0.00043090734526657
  23    -0.0038029373349767
  24    -0.0011885960027089
  25    -0.00062309536176683
  26    0.00078743417269979
  27    -0.00030155543644271
  28    -0.00034947177979533
  29    0.00022832625769037
  30    0.00025155783397776
  31    -0.0013460590827998
  32    0.0041136141121685
  33     0.021678362114531
  34    -0.00050443103502889
  35    0.0035675392061286
  36    0.00094883960034243
  37    0.00042258097631328
  38    -0.0013540113281905
  39    -0.0032376929640159
  40    0.0018427081320936
  41    0.0031522026243872
  42    -0.00060177165538809
  43     0.001234335139422
  44    0.00062273225540939
  45    -0.00043706893416865
  46    -0.00043970447453763
  47    -0.00053272658183979
  48    -0.00032803518483849
  49    0.00073360515266262
  50    -0.00042440755735882
  51    -0.0009734237020463
  52    0.00038863966004727
  53    0.00011355236466955
  54    -0.00028035811961697
  55    -0.005345422981187
  56    -0.00043225668271396
  57    0.0049053833893959
  58    -0.00016470276775101
  59    8.0502275825022e-05
  60    -2.9421864909739e-05
  61    -2.0673942378224e-05
  62    -0.00028268905057031
  63    -0.00044692381117322
  64    1.5206328910385e-05
  65    -4.1282038746565e-06
  66    -6.7957927570611e-06
  67    1.2131807772087e-06
  68    -1.8916455304311e-06
  69    -2.7450280548755e-06
  70    1.1747459816359e-06
  71    -5.3619905170908e-06
  72    7.9378315721272e-07
  73    9.3408111607087e-06
  74    2.6840822709812e-05
  75    8.4479772875937e-06
  76    -6.6492165157343e-07
  77    -2.9436905173284e-07
  78    3.4061802372068e-07
  79    3.564283810172e-07
  80    3.9110533286637e-08
  81    3.600256618734e-06
  82    1.6812980497061e-05
  83    1.7808969807744e-06
  84    -4.2629055282737e-06
  85    -7.3502565264601e-05
  86    9.4758100303133e-06
  87    2.8392005713072e-06
  88    1.6239481773604e-05
  89    1.9092665581091e-05
  90    -5.7543029007262e-05
  91    2.4211156487221e-05
  92    1.2859420311479e-06
  93    -1.4008763527249e-06
  94    3.5019624269306e-06
  95    -2.49891489392e-08
  96    -6.878327016102e-07
  97    1.1579741849526e-05
  98    2.2705861440097e-05
  99    -2.7217744937195e-06
 100    -1.8478224578788e-05
 101    -1.7258159258896e-06
 102    -3.2231421674617e-06
 103    9.0015860863465e-05
 104    -1.490192772265e-05
 105    -2.2201173116181e-05
 106    -2.5928223076952e-06
 107    -0.00015317566951375
 108    0.00013611634127184
 109    0.00017123189815415
 110    -8.3265450804348e-06
 111    -3.6381717952433e-06
 112    1.2648058369643e-06
 113    6.3473832972572e-07
 114    -3.9791520166752e-06
 115    -6.0273861240343e-06
 116    -3.062758920961e-05
 117    0.00024736335846429
 118    -4.7013975384058e-06
 119    5.1946050105763e-06
 120    1.2771909962562e-05
 121    -6.7979951701248e-05
 122    4.7001417802286e-05
 123    3.1486747619369e-05
 124    3.3324060008885e-07
 125    -3.538998044881e-06
 126    -1.8733794845707e-06
 127    2.329778475322e-06
 128    -2.1028475694046e-06
 129    9.1126565866122e-06
 130    -7.4782506413112e-05
 131    3.9508720144666e-05
 132    1.6806071014497e-05
 133    3.2169143402581e-07
 134    0.00010501134728992
 135    -0.00018384480027871
 136    -1.6143338313143e-05
 137    -0.00033146432126665
 138    8.6368501650768e-06
 139    8.4932400007544e-06
 140    1.6583507351918e-06
 141    3.9664940146332e-06
 142    4.8155490691566e-06
 143    -1.1427014901961e-05
 144    -1.4767796524274e-05
 145    0.0001575995500252
 146    2.1203523491368e-05
 147    -1.1115726184337e-05
 148    -2.3534106407334e-05
 149    6.4523416585029e-05
 150    -3.3644330014456e-05
 151    -8.6511250250007e-05
 152    -7.1236943432231e-06
 153    -5.9129857097776e-06
 154    -1.8176166787789e-06
 155    4.3600579492425e-06
 156    -4.8335361872431e-06
 157    4.3077950961002e-07
 158    1.2914884061178e-05
 159    -2.4418858901353e-05
 160    5.9707994410477e-06
 161     -3.1236092509e-06
 162    8.3256370367945e-07
 163    -4.6409565818493e-05
 164    1.9368205210559e-05
 165    1.7006530767648e-05
 166    3.3021624932109e-06
 167    -2.0065911013925e-06
 168    1.2070457797112e-07
 169    8.2963667546266e-07
 170    8.6151673322802e-07
 171    -1.8617928259075e-06
 172    -1.3671965009531e-05
 173    3.3417377424823e-05
 174    -2.373865801753e-06
 175    1.922069219538e-06
 176    9.0916199434302e-06
 177    -1.2813794338389e-05
 178    -2.4129616306313e-06
 179    -3.5406696605206e-05
 180    1.2511953089003e-06
 181    3.1154513569543e-06
 182    7.7829234306904e-07
 183    -5.6029762405226e-07
 184    9.6301201356486e-07
 185    1.3116826776497e-06
 186    -2.8573993673527e-05
 187    2.3978481994856e-05
 188    4.4691715910845e-06
 189    4.377830063208e-06
 190    2.4137298776143e-05
 191    -4.1381433812047e-07
 192    -2.6788786398094e-06
 193    -3.2665444136039e-05
 194    2.6581805160392e-06
 195    1.1547397585596e-07
 196    2.7177581933486e-06
 197    -9.3502889072169e-08
 198    3.1598814460449e-07
 199    -4.9251052277836e-06
 200    2.5819832121012e-06
 201    4.8182225927032e-06
 202    3.1368021575281e-05
 203    -1.0611923906222e-05
 204    7.4082144612339e-06
 205    1.2866116709206e-06
 206    -2.462309549837e-05
 207    2.6007973389418e-06
 208    -5.190073127594e-05
 209    6.6704728894248e-06
 210    -2.9021724149728e-05
 211    5.2485092671282e-06
 212    1.2507390143766e-05
 213    2.2217842465522e-06
 214    -1.4271965428092e-05
 215    -3.969603301746e-06
 216    -5.7032144508478e-05
 217    3.2378769373538e-06
 218    1.6185877026198e-05
 219    -1.2887174282554e-06
 220    -2.5409008828676e-07
 221    -8.6788356742072e-05
 222    8.6563360155191e-05
 223    0.00089989235279264
 224    9.7829087790285e-05
 225    5.1723078052509e-05
 226    -0.00021638445581835
 227    0.00065442503801687
 228    0.00029628564708782
 229    -0.0007607594308888
 230    -2.8212446236581e-06
 231    -4.0338317247142e-05
 232    -1.4308786738083e-05
 233    2.3311796326043e-05
 234    2.0783481041691e-05
 235    0.00014286120802447
 236    -0.00034702324040106
 237    -0.00011943534139052
 238    -0.00020070703417737
 239    -0.00017088223213237
 240    0.00055038383388202
 241    0.00010068107540332
 242    0.00031551413119955
 243    -0.0013963889315028
 244    1.1335822990163e-05
 245    6.128128443301e-05
 246    2.3642989382902e-06
 247    1.4928135846056e-05
 248    -1.0133673672883e-05
 249    -8.2157942316167e-06
 250    0.0003180918925144
 251    -0.00033710897874558
 252    -0.00041956580463209
 253    0.0011909915346867
 254    -0.00047518440744651
 255    -8.4886381131392e-05
 256    -0.00017364557742706
 257    -0.00057091814374159
 258    2.0767358051771e-05
 259    -0.0017819866328112
 260    -9.7104209118627e-05
 261    -2.287840653814e-05
 262    7.2598773081198e-06
 263    0.00015882191760786
 264    7.2532040818727e-05
 265    -0.00025368404829371
 266    0.00015251232732905
 267    0.00018828456431658
 268    -0.00033681539460376
 269    -1.7187246261519e-05
 270    -0.00046093464047453
 271    0.0061817854954583
 272    2.5382803173426e-05
 273    -0.00016243990352478
 274    9.4913400596458e-05
 275    -0.00087705428031524
 276    -0.0019337114772794
 277    0.0031833706215514
 278    0.00011418942252435
 279    -0.00014034364415072
 280    -0.00010190256502499
 281    2.5519170495076e-05