[Molden Format]
made by pyscf v[2.0.1]
[Atoms] (AU)
C   1   6     0.69100024066471     0.64692934207205    -3.48223131169301
H   2   1     2.68052439830868     1.13355088658700    -3.25784032593313
C   3   6    -0.36286361513219     0.85440132524594    -5.97030179418974
H   4   1    -2.35448549047279     0.36322488579172    -6.17995817793143
C   5   6     0.93697958957450     1.61209284601821    -8.05828437677121
H   6   1     1.03927160684768     3.62047501567417    -8.50199621914587
C   7   6     2.20035018302409    -0.10258413888539    -9.73758817852609
H   8   1     2.08224949102462    -2.10886499715255    -9.26789512642378
H   9   1     1.55630230933075    -1.92953025305990    12.99630010416247
C   10   6     0.75233899775814    -2.21270439606481    11.10705728102219
H   11   1    -0.43433408177274    -3.90944857546550    11.22216085340412
C   12   6     2.86362581178706    -2.63237380607947     9.17926416456045
H   13   1     4.39038949912609    -1.24955421540245     9.49899813497433
H   14   1     3.74629220191363    -4.48798724300892     9.47414880959024
C   15   6     2.02478325613682    -2.42177285709634     6.44560829588644
C   16   6     3.88048732735477    -3.58795445234514     4.61402886975252
C   17   6    -0.18412382258602    -1.30464291234259     5.76021113872346
C   18   6    -2.10044360464350    -0.26837831858460     7.71610340967100
C   19   6    -3.08956938670431     2.35282328359417     6.88693925039594
C   20   6    -4.37372924086464    -2.09766595989678     7.93610724222001
C   21   6    -0.83850430601230     0.06372213486173    10.33002307638377
H   22   1     0.38411922151109     1.74281358582432    10.27380136542181
H   23   1    -2.30980003007874     0.45460143924521    11.73986301809809
H   24   1     4.58527064644668    -5.38706904487420     5.36778158031719
H   25   1     5.54944938085014    -2.37631462192748     4.35398898413318
H   26   1     3.06633019150423    -3.94118377050688     2.75255466040884
H   27   1    -4.17727778763735     2.26573369139522     5.12914900961283
H   28   1    -1.52662344944051     3.68001877445626     6.59540397144508
H   29   1    -4.32916174397830     3.13643051467482     8.35225460090378
H   30   1    -5.32329548508442    -2.36691813602939     6.11583672749896
H   31   1    -5.77989366602257    -1.33896741843465     9.25748940450990
H   32   1    -3.79310905208926    -3.96389819310853     8.61386170102686
C   33   6    -1.01100794811226    -1.06331657314144     3.11929490449947
C   34   6     0.37686231036534    -0.33275864505552     1.09165013605873
H   35   1    -3.01671213906703    -1.40297922279997     2.77827895090944
C   36   6    -0.64382707979370    -0.11591880174385    -1.42063131251064
H   37   1     2.35569259782137     0.17174499283897     1.33641070251401
H   38   1    -2.63317482980319    -0.60229203511219    -1.66119700387645
C   39   6     3.51308281939799     0.56451683374771   -11.83721740116087
C   40   6     4.73454985947753    -1.32827425009098   -13.42856361339847
H   41   1     3.70368628307445     2.52946227119814   -12.41204614817202
O   42   8     5.94050384923934    -0.86285538356078   -15.33903067176323
H   43   1     4.49094488416901    -3.31470750932465   -12.76908014850535
[GTO]
1 0
 s    6 1.00
             3047.5249  0.0018347001629433
             457.36951    0.01403730124668
             103.94869   0.068842606114048
             29.210155    0.23218442062076
              9.286663    0.46794134155879
              3.163927    0.36231203217765
 s    3 1.00
             7.8682724   -0.11933240861517
             1.8812885   -0.16085421161283
             0.5442493     1.1434564825515
 s    1 1.00
             0.1687144                   1
 p    3 1.00
             7.8682724   0.068999095584993
             1.8812885    0.31642397975315
             0.5442493    0.74430825237435
 p    1 1.00
             0.1687144                   1
 d    1 1.00
                   0.8                   1

2 0
 s    3 1.00
             18.731137    0.03349459952309
             2.8253937    0.23472694665786
             0.6401217    0.81375731841339
 s    1 1.00
             0.1612778                   1

3 0
 s    6 1.00
             3047.5249  0.0018347001629433
             457.36951    0.01403730124668
             103.94869   0.068842606114048
             29.210155    0.23218442062076
              9.286663    0.46794134155879
              3.163927    0.36231203217765
 s    3 1.00
             7.8682724   -0.11933240861517
             1.8812885   -0.16085421161283
             0.5442493     1.1434564825515
 s    1 1.00
             0.1687144                   1
 p    3 1.00
             7.8682724   0.068999095584993
             1.8812885    0.31642397975315
             0.5442493    0.74430825237435
 p    1 1.00
             0.1687144                   1
 d    1 1.00
                   0.8                   1

4 0
 s    3 1.00
             18.731137    0.03349459952309
             2.8253937    0.23472694665786
             0.6401217    0.81375731841339
 s    1 1.00
             0.1612778                   1

5 0
 s    6 1.00
             3047.5249  0.0018347001629433
             457.36951    0.01403730124668
             103.94869   0.068842606114048
             29.210155    0.23218442062076
              9.286663    0.46794134155879
              3.163927    0.36231203217765
 s    3 1.00
             7.8682724   -0.11933240861517
             1.8812885   -0.16085421161283
             0.5442493     1.1434564825515
 s    1 1.00
             0.1687144                   1
 p    3 1.00
             7.8682724   0.068999095584993
             1.8812885    0.31642397975315
             0.5442493    0.74430825237435
 p    1 1.00
             0.1687144                   1
 d    1 1.00
                   0.8                   1

6 0
 s    3 1.00
             18.731137    0.03349459952309
             2.8253937    0.23472694665786
             0.6401217    0.81375731841339
 s    1 1.00
             0.1612778                   1

7 0
 s    6 1.00
             3047.5249  0.0018347001629433
             457.36951    0.01403730124668
             103.94869   0.068842606114048
             29.210155    0.23218442062076
              9.286663    0.46794134155879
              3.163927    0.36231203217765
 s    3 1.00
             7.8682724   -0.11933240861517
             1.8812885   -0.16085421161283
             0.5442493     1.1434564825515
 s    1 1.00
             0.1687144                   1
 p    3 1.00
             7.8682724   0.068999095584993
             1.8812885    0.31642397975315
             0.5442493    0.74430825237435
 p    1 1.00
             0.1687144                   1
 d    1 1.00
                   0.8                   1

8 0
 s    3 1.00
             18.731137    0.03349459952309
             2.8253937    0.23472694665786
             0.6401217    0.81375731841339
 s    1 1.00
             0.1612778                   1

9 0
 s    3 1.00
             18.731137    0.03349459952309
             2.8253937    0.23472694665786
             0.6401217    0.81375731841339
 s    1 1.00
             0.1612778                   1

10 0
 s    6 1.00
             3047.5249  0.0018347001629433
             457.36951    0.01403730124668
             103.94869   0.068842606114048
             29.210155    0.23218442062076
              9.286663    0.46794134155879
              3.163927    0.36231203217765
 s    3 1.00
             7.8682724   -0.11933240861517
             1.8812885   -0.16085421161283
             0.5442493     1.1434564825515
 s    1 1.00
             0.1687144                   1
 p    3 1.00
             7.8682724   0.068999095584993
             1.8812885    0.31642397975315
             0.5442493    0.74430825237435
 p    1 1.00
             0.1687144                   1
 d    1 1.00
                   0.8                   1

11 0
 s    3 1.00
             18.731137    0.03349459952309
             2.8253937    0.23472694665786
             0.6401217    0.81375731841339
 s    1 1.00
             0.1612778                   1

12 0
 s    6 1.00
             3047.5249  0.0018347001629433
             457.36951    0.01403730124668
             103.94869   0.068842606114048
             29.210155    0.23218442062076
              9.286663    0.46794134155879
              3.163927    0.36231203217765
 s    3 1.00
             7.8682724   -0.11933240861517
             1.8812885   -0.16085421161283
             0.5442493     1.1434564825515
 s    1 1.00
             0.1687144                   1
 p    3 1.00
             7.8682724   0.068999095584993
             1.8812885    0.31642397975315
             0.5442493    0.74430825237435
 p    1 1.00
             0.1687144                   1
 d    1 1.00
                   0.8                   1

13 0
 s    3 1.00
             18.731137    0.03349459952309
             2.8253937    0.23472694665786
             0.6401217    0.81375731841339
 s    1 1.00
             0.1612778                   1

14 0
 s    3 1.00
             18.731137    0.03349459952309
             2.8253937    0.23472694665786
             0.6401217    0.81375731841339
 s    1 1.00
             0.1612778                   1

15 0
 s    6 1.00
             3047.5249  0.0018347001629433
             457.36951    0.01403730124668
             103.94869   0.068842606114048
             29.210155    0.23218442062076
              9.286663    0.46794134155879
              3.163927    0.36231203217765
 s    3 1.00
             7.8682724   -0.11933240861517
             1.8812885   -0.16085421161283
             0.5442493     1.1434564825515
 s    1 1.00
             0.1687144                   1
 p    3 1.00
             7.8682724   0.068999095584993
             1.8812885    0.31642397975315
             0.5442493    0.74430825237435
 p    1 1.00
             0.1687144                   1
 d    1 1.00
                   0.8                   1

16 0
 s    6 1.00
             3047.5249  0.0018347001629433
             457.36951    0.01403730124668
             103.94869   0.068842606114048
             29.210155    0.23218442062076
              9.286663    0.46794134155879
              3.163927    0.36231203217765
 s    3 1.00
             7.8682724   -0.11933240861517
             1.8812885   -0.16085421161283
             0.5442493     1.1434564825515
 s    1 1.00
             0.1687144                   1
 p    3 1.00
             7.8682724   0.068999095584993
             1.8812885    0.31642397975315
             0.5442493    0.74430825237435
 p    1 1.00
             0.1687144                   1
 d    1 1.00
                   0.8                   1

17 0
 s    6 1.00
             3047.5249  0.0018347001629433
             457.36951    0.01403730124668
             103.94869   0.068842606114048
             29.210155    0.23218442062076
              9.286663    0.46794134155879
              3.163927    0.36231203217765
 s    3 1.00
             7.8682724   -0.11933240861517
             1.8812885   -0.16085421161283
             0.5442493     1.1434564825515
 s    1 1.00
             0.1687144                   1
 p    3 1.00
             7.8682724   0.068999095584993
             1.8812885    0.31642397975315
             0.5442493    0.74430825237435
 p    1 1.00
             0.1687144                   1
 d    1 1.00
                   0.8                   1

18 0
 s    6 1.00
             3047.5249  0.0018347001629433
             457.36951    0.01403730124668
             103.94869   0.068842606114048
             29.210155    0.23218442062076
              9.286663    0.46794134155879
              3.163927    0.36231203217765
 s    3 1.00
             7.8682724   -0.11933240861517
             1.8812885   -0.16085421161283
             0.5442493     1.1434564825515
 s    1 1.00
             0.1687144                   1
 p    3 1.00
             7.8682724   0.068999095584993
             1.8812885    0.31642397975315
             0.5442493    0.74430825237435
 p    1 1.00
             0.1687144                   1
 d    1 1.00
                   0.8                   1

19 0
 s    6 1.00
             3047.5249  0.0018347001629433
             457.36951    0.01403730124668
             103.94869   0.068842606114048
             29.210155    0.23218442062076
              9.286663    0.46794134155879
              3.163927    0.36231203217765
 s    3 1.00
             7.8682724   -0.11933240861517
             1.8812885   -0.16085421161283
             0.5442493     1.1434564825515
 s    1 1.00
             0.1687144                   1
 p    3 1.00
             7.8682724   0.068999095584993
             1.8812885    0.31642397975315
             0.5442493    0.74430825237435
 p    1 1.00
             0.1687144                   1
 d    1 1.00
                   0.8                   1

20 0
 s    6 1.00
             3047.5249  0.0018347001629433
             457.36951    0.01403730124668
             103.94869   0.068842606114048
             29.210155    0.23218442062076
              9.286663    0.46794134155879
              3.163927    0.36231203217765
 s    3 1.00
             7.8682724   -0.11933240861517
             1.8812885   -0.16085421161283
             0.5442493     1.1434564825515
 s    1 1.00
             0.1687144                   1
 p    3 1.00
             7.8682724   0.068999095584993
             1.8812885    0.31642397975315
             0.5442493    0.74430825237435
 p    1 1.00
             0.1687144                   1
 d    1 1.00
                   0.8                   1

21 0
 s    6 1.00
             3047.5249  0.0018347001629433
             457.36951    0.01403730124668
             103.94869   0.068842606114048
             29.210155    0.23218442062076
              9.286663    0.46794134155879
              3.163927    0.36231203217765
 s    3 1.00
             7.8682724   -0.11933240861517
             1.8812885   -0.16085421161283
             0.5442493     1.1434564825515
 s    1 1.00
             0.1687144                   1
 p    3 1.00
             7.8682724   0.068999095584993
             1.8812885    0.31642397975315
             0.5442493    0.74430825237435
 p    1 1.00
             0.1687144                   1
 d    1 1.00
                   0.8                   1

22 0
 s    3 1.00
             18.731137    0.03349459952309
             2.8253937    0.23472694665786
             0.6401217    0.81375731841339
 s    1 1.00
             0.1612778                   1

23 0
 s    3 1.00
             18.731137    0.03349459952309
             2.8253937    0.23472694665786
             0.6401217    0.81375731841339
 s    1 1.00
             0.1612778                   1

24 0
 s    3 1.00
             18.731137    0.03349459952309
             2.8253937    0.23472694665786
             0.6401217    0.81375731841339
 s    1 1.00
             0.1612778                   1

25 0
 s    3 1.00
             18.731137    0.03349459952309
             2.8253937    0.23472694665786
             0.6401217    0.81375731841339
 s    1 1.00
             0.1612778                   1

26 0
 s    3 1.00
             18.731137    0.03349459952309
             2.8253937    0.23472694665786
             0.6401217    0.81375731841339
 s    1 1.00
             0.1612778                   1

27 0
 s    3 1.00
             18.731137    0.03349459952309
             2.8253937    0.23472694665786
             0.6401217    0.81375731841339
 s    1 1.00
             0.1612778                   1

28 0
 s    3 1.00
             18.731137    0.03349459952309
             2.8253937    0.23472694665786
             0.6401217    0.81375731841339
 s    1 1.00
             0.1612778                   1

29 0
 s    3 1.00
             18.731137    0.03349459952309
             2.8253937    0.23472694665786
             0.6401217    0.81375731841339
 s    1 1.00
             0.1612778                   1

30 0
 s    3 1.00
             18.731137    0.03349459952309
             2.8253937    0.23472694665786
             0.6401217    0.81375731841339
 s    1 1.00
             0.1612778                   1

31 0
 s    3 1.00
             18.731137    0.03349459952309
             2.8253937    0.23472694665786
             0.6401217    0.81375731841339
 s    1 1.00
             0.1612778                   1

32 0
 s    3 1.00
             18.731137    0.03349459952309
             2.8253937    0.23472694665786
             0.6401217    0.81375731841339
 s    1 1.00
             0.1612778                   1

33 0
 s    6 1.00
             3047.5249  0.0018347001629433
             457.36951    0.01403730124668
             103.94869   0.068842606114048
             29.210155    0.23218442062076
              9.286663    0.46794134155879
              3.163927    0.36231203217765
 s    3 1.00
             7.8682724   -0.11933240861517
             1.8812885   -0.16085421161283
             0.5442493     1.1434564825515
 s    1 1.00
             0.1687144                   1
 p    3 1.00
             7.8682724   0.068999095584993
             1.8812885    0.31642397975315
             0.5442493    0.74430825237435
 p    1 1.00
             0.1687144                   1
 d    1 1.00
                   0.8                   1

34 0
 s    6 1.00
             3047.5249  0.0018347001629433
             457.36951    0.01403730124668
             103.94869   0.068842606114048
             29.210155    0.23218442062076
              9.286663    0.46794134155879
              3.163927    0.36231203217765
 s    3 1.00
             7.8682724   -0.11933240861517
             1.8812885   -0.16085421161283
             0.5442493     1.1434564825515
 s    1 1.00
             0.1687144                   1
 p    3 1.00
             7.8682724   0.068999095584993
             1.8812885    0.31642397975315
             0.5442493    0.74430825237435
 p    1 1.00
             0.1687144                   1
 d    1 1.00
                   0.8                   1

35 0
 s    3 1.00
             18.731137    0.03349459952309
             2.8253937    0.23472694665786
             0.6401217    0.81375731841339
 s    1 1.00
             0.1612778                   1

36 0
 s    6 1.00
             3047.5249  0.0018347001629433
             457.36951    0.01403730124668
             103.94869   0.068842606114048
             29.210155    0.23218442062076
              9.286663    0.46794134155879
              3.163927    0.36231203217765
 s    3 1.00
             7.8682724   -0.11933240861517
             1.8812885   -0.16085421161283
             0.5442493     1.1434564825515
 s    1 1.00
             0.1687144                   1
 p    3 1.00
             7.8682724   0.068999095584993
             1.8812885    0.31642397975315
             0.5442493    0.74430825237435
 p    1 1.00
             0.1687144                   1
 d    1 1.00
                   0.8                   1

37 0
 s    3 1.00
             18.731137    0.03349459952309
             2.8253937    0.23472694665786
             0.6401217    0.81375731841339
 s    1 1.00
             0.1612778                   1

38 0
 s    3 1.00
             18.731137    0.03349459952309
             2.8253937    0.23472694665786
             0.6401217    0.81375731841339
 s    1 1.00
             0.1612778                   1

39 0
 s    6 1.00
             3047.5249  0.0018347001629433
             457.36951    0.01403730124668
             103.94869   0.068842606114048
             29.210155    0.23218442062076
              9.286663    0.46794134155879
              3.163927    0.36231203217765
 s    3 1.00
             7.8682724   -0.11933240861517
             1.8812885   -0.16085421161283
             0.5442493     1.1434564825515
 s    1 1.00
             0.1687144                   1
 p    3 1.00
             7.8682724   0.068999095584993
             1.8812885    0.31642397975315
             0.5442493    0.74430825237435
 p    1 1.00
             0.1687144                   1
 d    1 1.00
                   0.8                   1

40 0
 s    6 1.00
             3047.5249  0.0018347001629433
             457.36951    0.01403730124668
             103.94869   0.068842606114048
             29.210155    0.23218442062076
              9.286663    0.46794134155879
              3.163927    0.36231203217765
 s    3 1.00
             7.8682724   -0.11933240861517
             1.8812885   -0.16085421161283
             0.5442493     1.1434564825515
 s    1 1.00
             0.1687144                   1
 p    3 1.00
             7.8682724   0.068999095584993
             1.8812885    0.31642397975315
             0.5442493    0.74430825237435
 p    1 1.00
             0.1687144                   1
 d    1 1.00
                   0.8                   1

41 0
 s    3 1.00
             18.731137    0.03349459952309
             2.8253937    0.23472694665786
             0.6401217    0.81375731841339
 s    1 1.00
             0.1612778                   1

42 0
 s    6 1.00
             5484.6717   0.001831099805527
             825.23495   0.013950098518422
             188.04696    0.06844509273075
               52.9645    0.23271427528445
              16.89757    0.47019295006289
             5.7996353    0.35852086192309
 s    3 1.00
             15.539616   -0.11077750382508
             3.5999336   -0.14802630511126
             1.0137618     1.1307670390447
 s    1 1.00
             0.2700058                   1
 p    3 1.00
             15.539616   0.070874299543311
             3.5999336    0.33975279781076
             1.0137618    0.72715859531445
 p    1 1.00
             0.2700058                   1
 d    1 1.00
                   0.8                   1

43 0
 s    3 1.00
             18.731137    0.03349459952309
             2.8253937    0.23472694665786
             0.6401217    0.81375731841339
 s    1 1.00
             0.1612778                   1

[5d]
[7f]
[9g]

[MO]
 Sym= A
 Ene=               0
 Spin= Alpha
 Occup=    1.00000
   1     0.012937615496293
   2    -0.0012916612821545
   3    0.0078656099655483
   4    0.0004145880851739
   5    -0.00014386305769158
   6    0.0013401391591183
   7    0.00086229149326307
   8    0.0013904414513247
   9    -0.0061623439009484
  10    -0.0010200546385573
  11    -0.00096629559938076
  12    0.00016338448450327
  13    -0.00020797858572751
  14    5.9069604938508e-05
  15    -0.00049356276410415
  16    -0.00092696065273156
  17      0.99477836900295
  18      0.03932650393427
  19    -0.031710829195112
  20    0.0010377167177134
  21    0.0001844584900025
  22    -0.00069668092749428
  23    -0.004089315617198
  24    -0.0012155770426205
  25    -0.00086350581043329
  26    0.00081164398860749
  27    -0.00032295859365085
  28    -0.00035905622186294
  29    0.00028348525459619
  30    0.00018523421405364
  31     -0.00130444946075
  32    0.0042192895985347
  33     0.013380980428481
  34    -0.00034558007675902
  35    0.0013161178731298
  36    0.00095438531557721
  37    0.00036648694127815
  38    -0.0013047223846268
  39    -0.0025704427247931
  40    0.0038033803891592
  41    0.0046347337685741
  42    -0.00068613051259393
  43    0.0013239587521756
  44    0.00052150723534714
  45    -0.00038382098558535
  46    -0.00042650405906845
  47    -0.00060628801395448
  48    -0.00064778721860448
  49    0.00023854124885678
  50    -0.00057985956663239
  51    0.00029951710939022
  52    0.0002853107874321
  53    7.4267592367306e-06
  54    -0.00045228256260518
  55    -0.0052183361818528
  56    0.0012336216636979
  57    0.0077121815447756
  58    -0.00016272744923591
  59    -1.46649616838e-05
  60    0.00018683546358504
  61    -0.00026422280270095
  62    -0.0002015132565264
  63    -0.00053993339826016
  64    0.00023813479282616
  65    -4.5567446478741e-06
  66    -5.6956079068976e-06
  67    9.5988769414574e-07
  68    -4.2086013844248e-06
  69    5.7046640410568e-06
  70    2.5131424813405e-06
  71    -6.5016303577052e-06
  72    1.2393676919355e-06
  73    1.0195600753072e-05
  74    2.6834520777974e-05
  75    6.3869233707711e-06
  76    -5.4452668489568e-07
  77    -5.7888504112384e-07
  78    7.0444705746501e-07
  79    6.6071714738027e-07
  80    -5.1072770172517e-08
  81    3.3718469623998e-06
  82    1.5581134803938e-05
  83    2.0058355715241e-06
  84    -1.7972018118844e-06
  85    -9.4258175800717e-05
  86    1.0181244879921e-05
  87    3.2782432803859e-06
  88    1.7419302132819e-05
  89    3.2186960686163e-05
  90    -6.9834587919233e-05
  91    2.4114455900639e-05
  92    1.3196238360188e-06
  93    -2.485462294131e-06
  94    4.5915187000127e-06
  95    -4.4468408263802e-07
  96    -7.8755670782379e-07
  97    1.3004067150547e-05
  98    2.2404769703283e-05
  99    -2.9951947016446e-06
 100    -2.0692178088004e-05
 101    -2.7111441378826e-06
 102    -1.1221894229132e-05
 103    0.00023592064313765
 104    -1.4906741414992e-05
 105    -2.1123631766136e-05
 106    -5.1323572155086e-06
 107    -0.00022459687857282
 108    0.00019141450310653
 109    0.00018175020764091
 110    -7.8187089343985e-06
 111    -2.8604392044785e-06
 112    1.0997587074563e-06
 113    2.3334192855283e-06
 114    -6.2709335080008e-06
 115    -6.2694428141267e-06
 116    -3.2402468081088e-05
 117    0.00028502147475356
 118    -6.1646382622102e-06
 119    9.7044294684961e-06
 120    1.1108525326798e-05
 121    -6.6832483077434e-05
 122    2.6142737941591e-05
 123    4.3958899826813e-05
 124    1.0940837293412e-06
 125    -3.4453658484427e-06
 126    -2.8105254746361e-06
 127    1.4090228523651e-06
 128    -2.211641988441e-06
 129    7.9998183173373e-06
 130    -8.3819868576764e-05
 131    0.00013389631094918
 132    2.1522929073797e-05
 133    -5.3194016645459e-06
 134    0.00010473306138763
 135    -0.00035683888137258
 136    3.6026023841502e-05
 137    -0.00045112105123562
 138    1.4085406938224e-05
 139    9.514153390433e-06
 140    4.6787612240316e-06
 141    3.4805331106833e-06
 142    6.5078371926085e-06
 143    -1.1074551692068e-05
 144    -1.2191181949316e-05
 145    9.8693748118653e-05
 146    2.1650626812475e-05
 147    -9.2625938681924e-06
 148    -1.9936198221211e-05
 149    5.5174844601446e-05
 150    -2.9056364455403e-05
 151    -7.1000752016645e-05
 152    -1.0370687059452e-05
 153    -4.9530519537985e-06
 154    -3.2332287416013e-06
 155    5.2427040988064e-06
 156    -5.7949052063294e-06
 157    4.4252893468884e-07
 158    1.5711384016302e-05
 159    -2.1951018837245e-05
 160    7.5984191726291e-06
 161    -4.0837015439293e-06
 162    1.3634574406881e-06
 163    -5.4772647868953e-05
 164    1.7793879156534e-05
 165    1.5224133301208e-05
 166     3.71946078258e-06
 167    -1.1977338282819e-06
 168    2.1994690221958e-07
 169    4.5632894431719e-07
 170    1.4737536406327e-06
 171    -1.4303287575102e-06
 172    -1.2068185041122e-05
 173    2.5646426021324e-05
 174    -3.4620148405439e-06
 175    1.4459563186866e-06
 176    1.0552500006731e-05
 177    -1.0385442241394e-05
 178    1.3753015524985e-06
 179    -3.5874953626106e-05
 180    1.3073993704961e-06
 181    3.9897027782139e-06
 182    2.6023214831687e-07
 183    -7.8315322433335e-07
 184    1.6667374952308e-06
 185    3.153094244682e-07
 186    -3.7479329392974e-05
 187    4.8691913810808e-05
 188    2.9952432071569e-06
 189    4.6701208413146e-06
 190    2.5075463760055e-05
 191    9.6388564446603e-06
 192    -5.1249863657035e-06
 193    -5.3896147037534e-05
 194    4.2528488758454e-06
 195    4.5857679969387e-07
 196    3.3745236394973e-06
 197    -6.8357612005831e-07
 198    3.2670086940418e-07
 199    -8.0212319916768e-06
 200    -1.3016817599504e-06
 201    5.1449752447759e-06
 202    3.8988507935437e-05
 203    -1.4352749951372e-05
 204    -6.7704761815391e-06
 205    3.2184187234762e-06
 206    -2.5453089093712e-05
 207    7.7568379401465e-06
 208    -7.0494858339381e-05
 209    7.8970504919004e-06
 210    -3.3887836102995e-05
 211    5.7116630995081e-06
 212     1.70723930223e-05
 213    2.0646727589131e-06
 214    -1.8825536830527e-05
 215    -6.0092244673902e-06
 216    -4.6022453951428e-05
 217    4.7002734992783e-06
 218    1.6185019874128e-05
 219    -3.5675465397475e-07
 220    1.6545808136891e-06
 221    -8.901802621784e-05
 222    6.3910800374945e-05
 223    0.0010082943659343
 224    0.00010191379302175
 225    5.1827897519918e-05
 226    -0.00020829086927166
 227    0.00069520409798356
 228    0.00033598447372082
 229    -0.0010706297594754
 230    -1.9101505647744e-06
 231    -4.8889107229423e-05
 232    -2.2554649280465e-05
 233    2.5802626310142e-05
 234    2.5634953206011e-05
 235    0.00014674716771759
 236    -0.0003340299244835
 237    -0.00058961386152585
 238    -0.00020702260183755
 239    -0.00016157529752113
 240    0.00056608794147912
 241    0.00024155972239845
 242    0.00029812986030338
 243    -0.0013956123315363
 244    3.3267432860121e-06
 245    6.805024418848e-05
 246    1.5579292178891e-05
 247    1.4480117680006e-05
 248    -3.2556719188246e-06
 249    -1.9883233975881e-05
 250    0.00031649899126992
 251    -0.00034622651424814
 252    -0.00048630715153448
 253     0.002274051181472
 254    -0.00048269732915143
 255    -8.8839199775115e-05
 256    -0.00019320885427053
 257    -0.0001599539577294
 258     0.000413264996815
 259    -0.001947310402611
 260    -8.2595885323692e-05
 261    -3.7902876143752e-05
 262    -2.0299831301963e-05
 263    0.00015862990937676
 264    0.00010227889853751
 265    -0.00026360258031188
 266    0.0001789091952104
 267    0.00020403884104815
 268    -0.0002455618642163
 269    -2.7706718349968e-05
 270    -0.00054968160258151
 271    0.0073275738821225
 272    -1.5707468858465e-05
 273     -0.00014955364719
 274    9.7618434855007e-05
 275    -0.0016801697563278
 276    -0.0030940082542143
 277    0.0028938492222384
 278    9.1754503727211e-05
 279    -0.00019318794124849
 280    -9.5749861367135e-05
 281    -2.7646678077111e-05