[Molden Format]
made by pyscf v[2.0.1]
[Atoms] (AU)
C   1   6     0.69100024066471     0.64692934207205    -3.48223131169301
H   2   1     2.68052439830868     1.13355088658700    -3.25784032593313
C   3   6    -0.36286361513219     0.85440132524594    -5.97030179418974
H   4   1    -2.35448549047279     0.36322488579172    -6.17995817793143
C   5   6     0.93697958957450     1.61209284601821    -8.05828437677121
H   6   1     1.52220939200985     3.58023657898303    -8.21595213017833
C   7   6     1.59282573286669    -0.05175011382745   -10.09734693546315
H   8   1     0.99474836942587    -2.01839690080961    -9.91207388765078
H   9   1     1.55630230933075    -1.92953025305990    12.99630010416247
C   10   6     0.75233899775814    -2.21270439606481    11.10705728102219
H   11   1    -0.43433408177274    -3.90944857546550    11.22216085340412
C   12   6     2.86362581178706    -2.63237380607947     9.17926416456045
H   13   1     4.39038949912609    -1.24955421540245     9.49899813497433
H   14   1     3.74629220191363    -4.48798724300892     9.47414880959024
C   15   6     2.02478325613682    -2.42177285709634     6.44560829588644
C   16   6     3.88048732735477    -3.58795445234514     4.61402886975252
C   17   6    -0.18412382258602    -1.30464291234259     5.76021113872346
C   18   6    -2.10044360464350    -0.26837831858460     7.71610340967100
C   19   6    -3.08956938670431     2.35282328359417     6.88693925039594
C   20   6    -4.37372924086464    -2.09766595989678     7.93610724222001
C   21   6    -0.83850430601230     0.06372213486173    10.33002307638377
H   22   1     0.38411922151109     1.74281358582432    10.27380136542181
H   23   1    -2.30980003007874     0.45460143924521    11.73986301809809
H   24   1     4.58527064644668    -5.38706904487420     5.36778158031719
H   25   1     5.54944938085014    -2.37631462192748     4.35398898413318
H   26   1     3.06633019150423    -3.94118377050688     2.75255466040884
H   27   1    -4.17727778763735     2.26573369139522     5.12914900961283
H   28   1    -1.52662344944051     3.68001877445626     6.59540397144508
H   29   1    -4.32916174397830     3.13643051467482     8.35225460090378
H   30   1    -5.32329548508442    -2.36691813602939     6.11583672749896
H   31   1    -5.77989366602257    -1.33896741843465     9.25748940450990
H   32   1    -3.79310905208926    -3.96389819310853     8.61386170102686
C   33   6    -1.01100794811226    -1.06331657314144     3.11929490449947
C   34   6     0.37686231036534    -0.33275864505552     1.09165013605873
H   35   1    -3.01671213906703    -1.40297922279997     2.77827895090944
C   36   6    -0.64382707979370    -0.11591880174385    -1.42063131251064
H   37   1     2.35569259782137     0.17174499283897     1.33641070251401
H   38   1    -2.63317482980319    -0.60229203511219    -1.66119700387645
C   39   6     2.88089126504443     0.61821658123040   -12.21129238571255
C   40   6     3.45664863859100    -1.22033421200677   -14.18493293343049
H   41   1     3.53070761900678     2.54536442784122   -12.51396089296279
O   42   8     4.60321296142939    -0.74877588551315   -16.13014426558594
H   43   1     2.75622344406002    -3.16930929543288   -13.79624335354022
[GTO]
1 0
 s    6 1.00
             3047.5249  0.0018347001629433
             457.36951    0.01403730124668
             103.94869   0.068842606114048
             29.210155    0.23218442062076
              9.286663    0.46794134155879
              3.163927    0.36231203217765
 s    3 1.00
             7.8682724   -0.11933240861517
             1.8812885   -0.16085421161283
             0.5442493     1.1434564825515
 s    1 1.00
             0.1687144                   1
 p    3 1.00
             7.8682724   0.068999095584993
             1.8812885    0.31642397975315
             0.5442493    0.74430825237435
 p    1 1.00
             0.1687144                   1
 d    1 1.00
                   0.8                   1

2 0
 s    3 1.00
             18.731137    0.03349459952309
             2.8253937    0.23472694665786
             0.6401217    0.81375731841339
 s    1 1.00
             0.1612778                   1

3 0
 s    6 1.00
             3047.5249  0.0018347001629433
             457.36951    0.01403730124668
             103.94869   0.068842606114048
             29.210155    0.23218442062076
              9.286663    0.46794134155879
              3.163927    0.36231203217765
 s    3 1.00
             7.8682724   -0.11933240861517
             1.8812885   -0.16085421161283
             0.5442493     1.1434564825515
 s    1 1.00
             0.1687144                   1
 p    3 1.00
             7.8682724   0.068999095584993
             1.8812885    0.31642397975315
             0.5442493    0.74430825237435
 p    1 1.00
             0.1687144                   1
 d    1 1.00
                   0.8                   1

4 0
 s    3 1.00
             18.731137    0.03349459952309
             2.8253937    0.23472694665786
             0.6401217    0.81375731841339
 s    1 1.00
             0.1612778                   1

5 0
 s    6 1.00
             3047.5249  0.0018347001629433
             457.36951    0.01403730124668
             103.94869   0.068842606114048
             29.210155    0.23218442062076
              9.286663    0.46794134155879
              3.163927    0.36231203217765
 s    3 1.00
             7.8682724   -0.11933240861517
             1.8812885   -0.16085421161283
             0.5442493     1.1434564825515
 s    1 1.00
             0.1687144                   1
 p    3 1.00
             7.8682724   0.068999095584993
             1.8812885    0.31642397975315
             0.5442493    0.74430825237435
 p    1 1.00
             0.1687144                   1
 d    1 1.00
                   0.8                   1

6 0
 s    3 1.00
             18.731137    0.03349459952309
             2.8253937    0.23472694665786
             0.6401217    0.81375731841339
 s    1 1.00
             0.1612778                   1

7 0
 s    6 1.00
             3047.5249  0.0018347001629433
             457.36951    0.01403730124668
             103.94869   0.068842606114048
             29.210155    0.23218442062076
              9.286663    0.46794134155879
              3.163927    0.36231203217765
 s    3 1.00
             7.8682724   -0.11933240861517
             1.8812885   -0.16085421161283
             0.5442493     1.1434564825515
 s    1 1.00
             0.1687144                   1
 p    3 1.00
             7.8682724   0.068999095584993
             1.8812885    0.31642397975315
             0.5442493    0.74430825237435
 p    1 1.00
             0.1687144                   1
 d    1 1.00
                   0.8                   1

8 0
 s    3 1.00
             18.731137    0.03349459952309
             2.8253937    0.23472694665786
             0.6401217    0.81375731841339
 s    1 1.00
             0.1612778                   1

9 0
 s    3 1.00
             18.731137    0.03349459952309
             2.8253937    0.23472694665786
             0.6401217    0.81375731841339
 s    1 1.00
             0.1612778                   1

10 0
 s    6 1.00
             3047.5249  0.0018347001629433
             457.36951    0.01403730124668
             103.94869   0.068842606114048
             29.210155    0.23218442062076
              9.286663    0.46794134155879
              3.163927    0.36231203217765
 s    3 1.00
             7.8682724   -0.11933240861517
             1.8812885   -0.16085421161283
             0.5442493     1.1434564825515
 s    1 1.00
             0.1687144                   1
 p    3 1.00
             7.8682724   0.068999095584993
             1.8812885    0.31642397975315
             0.5442493    0.74430825237435
 p    1 1.00
             0.1687144                   1
 d    1 1.00
                   0.8                   1

11 0
 s    3 1.00
             18.731137    0.03349459952309
             2.8253937    0.23472694665786
             0.6401217    0.81375731841339
 s    1 1.00
             0.1612778                   1

12 0
 s    6 1.00
             3047.5249  0.0018347001629433
             457.36951    0.01403730124668
             103.94869   0.068842606114048
             29.210155    0.23218442062076
              9.286663    0.46794134155879
              3.163927    0.36231203217765
 s    3 1.00
             7.8682724   -0.11933240861517
             1.8812885   -0.16085421161283
             0.5442493     1.1434564825515
 s    1 1.00
             0.1687144                   1
 p    3 1.00
             7.8682724   0.068999095584993
             1.8812885    0.31642397975315
             0.5442493    0.74430825237435
 p    1 1.00
             0.1687144                   1
 d    1 1.00
                   0.8                   1

13 0
 s    3 1.00
             18.731137    0.03349459952309
             2.8253937    0.23472694665786
             0.6401217    0.81375731841339
 s    1 1.00
             0.1612778                   1

14 0
 s    3 1.00
             18.731137    0.03349459952309
             2.8253937    0.23472694665786
             0.6401217    0.81375731841339
 s    1 1.00
             0.1612778                   1

15 0
 s    6 1.00
             3047.5249  0.0018347001629433
             457.36951    0.01403730124668
             103.94869   0.068842606114048
             29.210155    0.23218442062076
              9.286663    0.46794134155879
              3.163927    0.36231203217765
 s    3 1.00
             7.8682724   -0.11933240861517
             1.8812885   -0.16085421161283
             0.5442493     1.1434564825515
 s    1 1.00
             0.1687144                   1
 p    3 1.00
             7.8682724   0.068999095584993
             1.8812885    0.31642397975315
             0.5442493    0.74430825237435
 p    1 1.00
             0.1687144                   1
 d    1 1.00
                   0.8                   1

16 0
 s    6 1.00
             3047.5249  0.0018347001629433
             457.36951    0.01403730124668
             103.94869   0.068842606114048
             29.210155    0.23218442062076
              9.286663    0.46794134155879
              3.163927    0.36231203217765
 s    3 1.00
             7.8682724   -0.11933240861517
             1.8812885   -0.16085421161283
             0.5442493     1.1434564825515
 s    1 1.00
             0.1687144                   1
 p    3 1.00
             7.8682724   0.068999095584993
             1.8812885    0.31642397975315
             0.5442493    0.74430825237435
 p    1 1.00
             0.1687144                   1
 d    1 1.00
                   0.8                   1

17 0
 s    6 1.00
             3047.5249  0.0018347001629433
             457.36951    0.01403730124668
             103.94869   0.068842606114048
             29.210155    0.23218442062076
              9.286663    0.46794134155879
              3.163927    0.36231203217765
 s    3 1.00
             7.8682724   -0.11933240861517
             1.8812885   -0.16085421161283
             0.5442493     1.1434564825515
 s    1 1.00
             0.1687144                   1
 p    3 1.00
             7.8682724   0.068999095584993
             1.8812885    0.31642397975315
             0.5442493    0.74430825237435
 p    1 1.00
             0.1687144                   1
 d    1 1.00
                   0.8                   1

18 0
 s    6 1.00
             3047.5249  0.0018347001629433
             457.36951    0.01403730124668
             103.94869   0.068842606114048
             29.210155    0.23218442062076
              9.286663    0.46794134155879
              3.163927    0.36231203217765
 s    3 1.00
             7.8682724   -0.11933240861517
             1.8812885   -0.16085421161283
             0.5442493     1.1434564825515
 s    1 1.00
             0.1687144                   1
 p    3 1.00
             7.8682724   0.068999095584993
             1.8812885    0.31642397975315
             0.5442493    0.74430825237435
 p    1 1.00
             0.1687144                   1
 d    1 1.00
                   0.8                   1

19 0
 s    6 1.00
             3047.5249  0.0018347001629433
             457.36951    0.01403730124668
             103.94869   0.068842606114048
             29.210155    0.23218442062076
              9.286663    0.46794134155879
              3.163927    0.36231203217765
 s    3 1.00
             7.8682724   -0.11933240861517
             1.8812885   -0.16085421161283
             0.5442493     1.1434564825515
 s    1 1.00
             0.1687144                   1
 p    3 1.00
             7.8682724   0.068999095584993
             1.8812885    0.31642397975315
             0.5442493    0.74430825237435
 p    1 1.00
             0.1687144                   1
 d    1 1.00
                   0.8                   1

20 0
 s    6 1.00
             3047.5249  0.0018347001629433
             457.36951    0.01403730124668
             103.94869   0.068842606114048
             29.210155    0.23218442062076
              9.286663    0.46794134155879
              3.163927    0.36231203217765
 s    3 1.00
             7.8682724   -0.11933240861517
             1.8812885   -0.16085421161283
             0.5442493     1.1434564825515
 s    1 1.00
             0.1687144                   1
 p    3 1.00
             7.8682724   0.068999095584993
             1.8812885    0.31642397975315
             0.5442493    0.74430825237435
 p    1 1.00
             0.1687144                   1
 d    1 1.00
                   0.8                   1

21 0
 s    6 1.00
             3047.5249  0.0018347001629433
             457.36951    0.01403730124668
             103.94869   0.068842606114048
             29.210155    0.23218442062076
              9.286663    0.46794134155879
              3.163927    0.36231203217765
 s    3 1.00
             7.8682724   -0.11933240861517
             1.8812885   -0.16085421161283
             0.5442493     1.1434564825515
 s    1 1.00
             0.1687144                   1
 p    3 1.00
             7.8682724   0.068999095584993
             1.8812885    0.31642397975315
             0.5442493    0.74430825237435
 p    1 1.00
             0.1687144                   1
 d    1 1.00
                   0.8                   1

22 0
 s    3 1.00
             18.731137    0.03349459952309
             2.8253937    0.23472694665786
             0.6401217    0.81375731841339
 s    1 1.00
             0.1612778                   1

23 0
 s    3 1.00
             18.731137    0.03349459952309
             2.8253937    0.23472694665786
             0.6401217    0.81375731841339
 s    1 1.00
             0.1612778                   1

24 0
 s    3 1.00
             18.731137    0.03349459952309
             2.8253937    0.23472694665786
             0.6401217    0.81375731841339
 s    1 1.00
             0.1612778                   1

25 0
 s    3 1.00
             18.731137    0.03349459952309
             2.8253937    0.23472694665786
             0.6401217    0.81375731841339
 s    1 1.00
             0.1612778                   1

26 0
 s    3 1.00
             18.731137    0.03349459952309
             2.8253937    0.23472694665786
             0.6401217    0.81375731841339
 s    1 1.00
             0.1612778                   1

27 0
 s    3 1.00
             18.731137    0.03349459952309
             2.8253937    0.23472694665786
             0.6401217    0.81375731841339
 s    1 1.00
             0.1612778                   1

28 0
 s    3 1.00
             18.731137    0.03349459952309
             2.8253937    0.23472694665786
             0.6401217    0.81375731841339
 s    1 1.00
             0.1612778                   1

29 0
 s    3 1.00
             18.731137    0.03349459952309
             2.8253937    0.23472694665786
             0.6401217    0.81375731841339
 s    1 1.00
             0.1612778                   1

30 0
 s    3 1.00
             18.731137    0.03349459952309
             2.8253937    0.23472694665786
             0.6401217    0.81375731841339
 s    1 1.00
             0.1612778                   1

31 0
 s    3 1.00
             18.731137    0.03349459952309
             2.8253937    0.23472694665786
             0.6401217    0.81375731841339
 s    1 1.00
             0.1612778                   1

32 0
 s    3 1.00
             18.731137    0.03349459952309
             2.8253937    0.23472694665786
             0.6401217    0.81375731841339
 s    1 1.00
             0.1612778                   1

33 0
 s    6 1.00
             3047.5249  0.0018347001629433
             457.36951    0.01403730124668
             103.94869   0.068842606114048
             29.210155    0.23218442062076
              9.286663    0.46794134155879
              3.163927    0.36231203217765
 s    3 1.00
             7.8682724   -0.11933240861517
             1.8812885   -0.16085421161283
             0.5442493     1.1434564825515
 s    1 1.00
             0.1687144                   1
 p    3 1.00
             7.8682724   0.068999095584993
             1.8812885    0.31642397975315
             0.5442493    0.74430825237435
 p    1 1.00
             0.1687144                   1
 d    1 1.00
                   0.8                   1

34 0
 s    6 1.00
             3047.5249  0.0018347001629433
             457.36951    0.01403730124668
             103.94869   0.068842606114048
             29.210155    0.23218442062076
              9.286663    0.46794134155879
              3.163927    0.36231203217765
 s    3 1.00
             7.8682724   -0.11933240861517
             1.8812885   -0.16085421161283
             0.5442493     1.1434564825515
 s    1 1.00
             0.1687144                   1
 p    3 1.00
             7.8682724   0.068999095584993
             1.8812885    0.31642397975315
             0.5442493    0.74430825237435
 p    1 1.00
             0.1687144                   1
 d    1 1.00
                   0.8                   1

35 0
 s    3 1.00
             18.731137    0.03349459952309
             2.8253937    0.23472694665786
             0.6401217    0.81375731841339
 s    1 1.00
             0.1612778                   1

36 0
 s    6 1.00
             3047.5249  0.0018347001629433
             457.36951    0.01403730124668
             103.94869   0.068842606114048
             29.210155    0.23218442062076
              9.286663    0.46794134155879
              3.163927    0.36231203217765
 s    3 1.00
             7.8682724   -0.11933240861517
             1.8812885   -0.16085421161283
             0.5442493     1.1434564825515
 s    1 1.00
             0.1687144                   1
 p    3 1.00
             7.8682724   0.068999095584993
             1.8812885    0.31642397975315
             0.5442493    0.74430825237435
 p    1 1.00
             0.1687144                   1
 d    1 1.00
                   0.8                   1

37 0
 s    3 1.00
             18.731137    0.03349459952309
             2.8253937    0.23472694665786
             0.6401217    0.81375731841339
 s    1 1.00
             0.1612778                   1

38 0
 s    3 1.00
             18.731137    0.03349459952309
             2.8253937    0.23472694665786
             0.6401217    0.81375731841339
 s    1 1.00
             0.1612778                   1

39 0
 s    6 1.00
             3047.5249  0.0018347001629433
             457.36951    0.01403730124668
             103.94869   0.068842606114048
             29.210155    0.23218442062076
              9.286663    0.46794134155879
              3.163927    0.36231203217765
 s    3 1.00
             7.8682724   -0.11933240861517
             1.8812885   -0.16085421161283
             0.5442493     1.1434564825515
 s    1 1.00
             0.1687144                   1
 p    3 1.00
             7.8682724   0.068999095584993
             1.8812885    0.31642397975315
             0.5442493    0.74430825237435
 p    1 1.00
             0.1687144                   1
 d    1 1.00
                   0.8                   1

40 0
 s    6 1.00
             3047.5249  0.0018347001629433
             457.36951    0.01403730124668
             103.94869   0.068842606114048
             29.210155    0.23218442062076
              9.286663    0.46794134155879
              3.163927    0.36231203217765
 s    3 1.00
             7.8682724   -0.11933240861517
             1.8812885   -0.16085421161283
             0.5442493     1.1434564825515
 s    1 1.00
             0.1687144                   1
 p    3 1.00
             7.8682724   0.068999095584993
             1.8812885    0.31642397975315
             0.5442493    0.74430825237435
 p    1 1.00
             0.1687144                   1
 d    1 1.00
                   0.8                   1

41 0
 s    3 1.00
             18.731137    0.03349459952309
             2.8253937    0.23472694665786
             0.6401217    0.81375731841339
 s    1 1.00
             0.1612778                   1

42 0
 s    6 1.00
             5484.6717   0.001831099805527
             825.23495   0.013950098518422
             188.04696    0.06844509273075
               52.9645    0.23271427528445
              16.89757    0.47019295006289
             5.7996353    0.35852086192309
 s    3 1.00
             15.539616   -0.11077750382508
             3.5999336   -0.14802630511126
             1.0137618     1.1307670390447
 s    1 1.00
             0.2700058                   1
 p    3 1.00
             15.539616   0.070874299543311
             3.5999336    0.33975279781076
             1.0137618    0.72715859531445
 p    1 1.00
             0.2700058                   1
 d    1 1.00
                   0.8                   1

43 0
 s    3 1.00
             18.731137    0.03349459952309
             2.8253937    0.23472694665786
             0.6401217    0.81375731841339
 s    1 1.00
             0.1612778                   1

[5d]
[7f]
[9g]

[MO]
 Sym= A
 Ene=               0
 Spin= Alpha
 Occup=    1.00000
   1    -0.012699509691662
   2    0.0012855398823188
   3    -0.0075663714553556
   4    -0.00041519643203122
   5    8.7798261261107e-05
   6    -0.0013607365911057
   7    -0.00083620612847523
   8    -0.0010519227361405
   9    0.0054675817535541
  10     0.001055220900498
  11    0.00098253591921082
  12    -0.00016917785401426
  13    0.00022030675138064
  14    -6.2493746759325e-05
  15    0.0004755677880505
  16    0.00090785910476228
  17     -0.99468133656501
  18    -0.039088002096541
  19      0.03098002675019
  20    -0.0009373969827825
  21    -0.000168255134009
  22    0.00059719856313151
  23    0.0037314989579234
  24    0.0010756285583455
  25    0.00057846240667786
  26    -0.00083730453852297
  27    0.00029261263353764
  28    0.00038611573719664
  29    -0.00027903797545074
  30    -0.00013337824237614
  31    0.0012541129896862
  32    -0.0042710982088596
  33    -0.018483824973993
  34    0.00034952744648253
  35    -0.0020849371695688
  36    -0.00095035703417051
  37    -0.00037428541665985
  38    0.0013550692842756
  39    0.0014272599837063
  40    -0.003220636630567
  41    -0.0051795257892174
  42    0.00074150460595261
  43    -0.0012467796298004
  44    -0.00050359063837076
  45    0.00037155382635209
  46    0.00047253827108047
  47    0.00058193437753607
  48    0.00063672541327224
  49    -0.00053497043484162
  50    0.00054356888310185
  51    -0.00044047147475672
  52    -0.00014208441081261
  53    -2.1614676604974e-05
  54    0.00048615105107563
  55    0.0033802159176289
  56    -0.00096278346688071
  57    -0.0074898235012183
  58    9.6308948797705e-05
  59    -3.1477253281541e-05
  60    -0.00023885629073325
  61    0.0002530228644314
  62    1.5978281690589e-05
  63    0.00048481674124312
  64    -0.00016204205288117
  65    4.2932584182702e-06
  66    5.6786756110566e-06
  67    -1.004175086341e-06
  68    4.0244300927417e-06
  69    -7.1611476241347e-06
  70    -2.1271804869081e-06
  71    5.7963418439459e-06
  72    -1.2302278547146e-06
  73    -7.8805700435813e-06
  74    -2.4618254744867e-05
  75    -6.2400638440145e-06
  76    6.2529731040012e-07
  77    6.2723995228091e-07
  78    -6.9403577054732e-07
  79    -6.3443816973037e-07
  80    8.5840696497376e-08
  81    -2.985478264523e-06
  82    -1.4210086673383e-05
  83    -1.9755910125676e-06
  84    2.0510147033894e-06
  85    8.6203279132282e-05
  86    -9.8998419051828e-06
  87    -3.2427200395681e-06
  88    -1.6918229470202e-05
  89    -3.0932682372688e-05
  90    6.3178640885942e-05
  91    -2.2635390523145e-05
  92    -1.1785340241726e-06
  93    2.2333450766734e-06
  94    -4.1652630293523e-06
  95    3.5002369167554e-07
  96    6.2860633257384e-07
  97    -1.2539530823506e-05
  98    -2.1924608034701e-05
  99    2.9281608689609e-06
 100    1.9370794909294e-05
 101    2.8478823328837e-06
 102    1.1253812613855e-05
 103    -0.0002246006718076
 104    1.6058474438526e-05
 105    2.1841269372681e-05
 106    4.4027006644716e-06
 107    0.00021097770124828
 108    -0.00016938791573967
 109    -0.00016453057033443
 110    7.3556718630062e-06
 111    3.0225385517747e-06
 112    -1.1970918298197e-06
 113    -3.0344613652329e-06
 114    5.6171966778247e-06
 115    6.1152436042245e-06
 116    3.0739957343916e-05
 117    -0.00026929088779876
 118    6.0130953579241e-06
 119    -9.9287064244845e-06
 120    -1.0319172777647e-05
 121    6.0474673642564e-05
 122    -2.2306919321574e-05
 123    -3.5635240956703e-05
 124    -1.004335721257e-06
 125    2.8276570037462e-06
 126    2.6749301979259e-06
 127    -1.0567712651649e-06
 128    1.7861850486487e-06
 129     -8.0002854559e-06
 130    8.1296221079754e-05
 131    -0.00010516927211381
 132    -2.0161097667822e-05
 133    7.192765108095e-06
 134    -0.00010306958742033
 135    0.00032254737822897
 136    -4.8448928405964e-05
 137     0.000411147205032
 138    -1.3752159889795e-05
 139    -7.8867472793542e-06
 140    -3.5736209106856e-06
 141    -2.9439019179146e-06
 142    -5.4885646662342e-06
 143    1.0382157765201e-05
 144    6.7814179843645e-06
 145    -8.4725868970897e-05
 146    -2.098672651348e-05
 147    8.4511218343811e-06
 148    2.1832506542591e-05
 149    -5.180633837712e-05
 150    4.6553534163221e-05
 151    4.5987407543465e-05
 152    1.0057705734752e-05
 153    4.2039459520412e-06
 154    2.3417912649256e-06
 155    -5.0588131589002e-06
 156    4.9001171800338e-06
 157    -5.6248835444519e-08
 158    -1.1906452624875e-05
 159    -3.2950617739577e-07
 160    -7.1870069738528e-06
 161    4.6958284523261e-06
 162    -2.8360041648023e-06
 163    4.4890226353934e-05
 164    -7.6884705784658e-06
 165    -1.1391071274232e-05
 166    -2.7775436610806e-06
 167    6.0576446493502e-07
 168    -2.1312027040819e-07
 169    -2.3343305832356e-09
 170    -1.0177794779742e-06
 171    1.3651175874461e-06
 172    1.0870231853209e-05
 173    -2.2732643014841e-05
 174    2.6329950522846e-06
 175    -1.7048040604331e-06
 176    -9.0003008280913e-06
 177    1.8499742396569e-05
 178    2.1897351204208e-07
 179    3.7942241965568e-05
 180    -1.4223759725593e-06
 181    -3.1521123246288e-06
 182    2.1773174328817e-08
 183    1.0645323519911e-06
 184    -1.0934848931593e-06
 185    -6.5396877466768e-07
 186    3.3867874986687e-05
 187    -3.3340532067793e-05
 188    -3.3543918205505e-06
 189    -4.7030435922493e-06
 190    -2.4307262857644e-05
 191    -1.2581970113337e-05
 192    -4.5769246839592e-07
 193    4.6389109059729e-05
 194    -4.1073573686183e-06
 195    -5.1486856472729e-08
 196    -2.4723477127714e-06
 197    6.6452527332615e-07
 198    -1.7089867365636e-07
 199    7.2004158882059e-06
 200    2.6524088131391e-06
 201    -5.3551688455172e-06
 202    -3.752217693139e-05
 203    1.4057474167477e-05
 204    8.2664078096226e-06
 205    -3.0407223240385e-06
 206    2.2177452008819e-05
 207    -8.6038834867222e-06
 208    7.7732271214293e-05
 209    -5.5353370778844e-06
 210    3.286195721056e-05
 211    -3.9981871034753e-06
 212    -1.4264063829374e-05
 213    -2.1253180849759e-06
 214    1.4981865814891e-05
 215    4.1628512500117e-06
 216    5.4868666371178e-05
 217    -4.1924000209915e-06
 218    -1.3975135297285e-05
 219    6.2396859578191e-07
 220    -3.6067264484288e-06
 221    8.634842974112e-05
 222    -8.0567514987142e-05
 223    -0.00083723464641987
 224    -9.7599503643944e-05
 225    -5.7749834851685e-05
 226    0.00020668532925786
 227    -0.0006453755665941
 228    -0.00029333901992513
 229    0.00091446222972229
 230    4.9888003025208e-06
 231    4.2030534809801e-05
 232    1.9327322190079e-05
 233    -2.2489153593793e-05
 234    -2.3187073558682e-05
 235    -0.00014366034179611
 236    0.00034112443881563
 237    0.00028910891141816
 238    0.0002046089545613
 239    0.00015643073913968
 240    -0.00055021330113927
 241    -0.00014913845118292
 242    -0.00023938604980837
 243    0.0013346601092033
 244    -1.0889170955347e-05
 245    -6.0520159624806e-05
 246    -1.6112759821651e-05
 247    -1.2276109902481e-05
 248    -6.8256744384653e-07
 249    1.4384934804622e-05
 250    -0.00031538793461829
 251    0.00034091357671182
 252    0.00045112699867258
 253    -0.0017834896186389
 254    0.00046897392220891
 255    0.00010449714185684
 256    0.00018876528142358
 257    0.00042438226153215
 258    -0.00042450609805929
 259    0.0018658600131078
 260    8.9956973618205e-05
 261    3.0205283783864e-05
 262    2.3618935939764e-05
 263    -0.00014788879219924
 264    -0.00010784246228606
 265    0.00025479329597613
 266    -0.00016649618202705
 267    -0.00019797699550667
 268    0.00030775144265857
 269    2.0642023696254e-05
 270    0.00048207309558395
 271    -0.0063614107586407
 272    2.1659175084811e-05
 273    0.00017350474190242
 274    -6.3990247667994e-05
 275    0.0020996860567734
 276    0.0025768453906617
 277    -0.0022509922323726
 278    -7.3349902176945e-05
 279    0.00017391956454128
 280    5.7548388828433e-05