[Molden Format]
made by pyscf v[2.0.1]
[Atoms] (AU)
C   1   6     0.69100024066471     0.64692934207205    -3.48223131169301
H   2   1     2.68052439830868     1.13355088658700    -3.25784032593313
C   3   6    -0.36286361513219     0.85440132524594    -5.97030179418974
H   4   1    -2.35448549047279     0.36322488579172    -6.17995817793143
C   5   6     0.93697958957450     1.61209284601821    -8.05828437677121
H   6   1     1.09182490265505     3.62435627880799    -8.46787148771875
C   7   6     2.13423629966321    -0.10744231105711    -9.78050935942977
H   8   1     1.96390963868834    -2.11762116447114    -9.34474333768613
H   9   1     1.55630230933075    -1.92953025305990    12.99630010416247
C   10   6     0.75233899775814    -2.21270439606481    11.10705728102219
H   11   1    -0.43433408177274    -3.90944857546550    11.22216085340412
C   12   6     2.86362581178706    -2.63237380607947     9.17926416456045
H   13   1     4.39038949912609    -1.24955421540245     9.49899813497433
H   14   1     3.74629220191363    -4.48798724300892     9.47414880959024
C   15   6     2.02478325613682    -2.42177285709634     6.44560829588644
C   16   6     3.88048732735477    -3.58795445234514     4.61402886975252
C   17   6    -0.18412382258602    -1.30464291234259     5.76021113872346
C   18   6    -2.10044360464350    -0.26837831858460     7.71610340967100
C   19   6    -3.08956938670431     2.35282328359417     6.88693925039594
C   20   6    -4.37372924086464    -2.09766595989678     7.93610724222001
C   21   6    -0.83850430601230     0.06372213486173    10.33002307638377
H   22   1     0.38411922151109     1.74281358582432    10.27380136542181
H   23   1    -2.30980003007874     0.45460143924521    11.73986301809809
H   24   1     4.58527064644668    -5.38706904487420     5.36778158031719
H   25   1     5.54944938085014    -2.37631462192748     4.35398898413318
H   26   1     3.06633019150423    -3.94118377050688     2.75255466040884
H   27   1    -4.17727778763735     2.26573369139522     5.12914900961283
H   28   1    -1.52662344944051     3.68001877445626     6.59540397144508
H   29   1    -4.32916174397830     3.13643051467482     8.35225460090378
H   30   1    -5.32329548508442    -2.36691813602939     6.11583672749896
H   31   1    -5.77989366602257    -1.33896741843465     9.25748940450990
H   32   1    -3.79310905208926    -3.96389819310853     8.61386170102686
C   33   6    -1.01100794811226    -1.06331657314144     3.11929490449947
C   34   6     0.37686231036534    -0.33275864505552     1.09165013605873
H   35   1    -3.01671213906703    -1.40297922279997     2.77827895090944
C   36   6    -0.64382707979370    -0.11591880174385    -1.42063131251064
H   37   1     2.35569259782137     0.17174499283897     1.33641070251401
H   38   1    -2.63317482980319    -0.60229203511219    -1.66119700387645
C   39   6     3.44427310754987     0.55955226130243   -11.88185544133447
C   40   6     4.59546774580895    -1.33837842065929   -13.51881378425706
H   41   1     3.68484150802705     2.52824088205540   -12.42422090941845
O   42   8     5.79494197127018    -0.87330187518197   -15.43343894779829
H   43   1     4.30216020100717    -3.32855150553013   -12.89162904717628
[GTO]
1 0
 s    6 1.00
             3047.5249  0.0018347001629433
             457.36951    0.01403730124668
             103.94869   0.068842606114048
             29.210155    0.23218442062076
              9.286663    0.46794134155879
              3.163927    0.36231203217765
 s    3 1.00
             7.8682724   -0.11933240861517
             1.8812885   -0.16085421161283
             0.5442493     1.1434564825515
 s    1 1.00
             0.1687144                   1
 p    3 1.00
             7.8682724   0.068999095584993
             1.8812885    0.31642397975315
             0.5442493    0.74430825237435
 p    1 1.00
             0.1687144                   1
 d    1 1.00
                   0.8                   1

2 0
 s    3 1.00
             18.731137    0.03349459952309
             2.8253937    0.23472694665786
             0.6401217    0.81375731841339
 s    1 1.00
             0.1612778                   1

3 0
 s    6 1.00
             3047.5249  0.0018347001629433
             457.36951    0.01403730124668
             103.94869   0.068842606114048
             29.210155    0.23218442062076
              9.286663    0.46794134155879
              3.163927    0.36231203217765
 s    3 1.00
             7.8682724   -0.11933240861517
             1.8812885   -0.16085421161283
             0.5442493     1.1434564825515
 s    1 1.00
             0.1687144                   1
 p    3 1.00
             7.8682724   0.068999095584993
             1.8812885    0.31642397975315
             0.5442493    0.74430825237435
 p    1 1.00
             0.1687144                   1
 d    1 1.00
                   0.8                   1

4 0
 s    3 1.00
             18.731137    0.03349459952309
             2.8253937    0.23472694665786
             0.6401217    0.81375731841339
 s    1 1.00
             0.1612778                   1

5 0
 s    6 1.00
             3047.5249  0.0018347001629433
             457.36951    0.01403730124668
             103.94869   0.068842606114048
             29.210155    0.23218442062076
              9.286663    0.46794134155879
              3.163927    0.36231203217765
 s    3 1.00
             7.8682724   -0.11933240861517
             1.8812885   -0.16085421161283
             0.5442493     1.1434564825515
 s    1 1.00
             0.1687144                   1
 p    3 1.00
             7.8682724   0.068999095584993
             1.8812885    0.31642397975315
             0.5442493    0.74430825237435
 p    1 1.00
             0.1687144                   1
 d    1 1.00
                   0.8                   1

6 0
 s    3 1.00
             18.731137    0.03349459952309
             2.8253937    0.23472694665786
             0.6401217    0.81375731841339
 s    1 1.00
             0.1612778                   1

7 0
 s    6 1.00
             3047.5249  0.0018347001629433
             457.36951    0.01403730124668
             103.94869   0.068842606114048
             29.210155    0.23218442062076
              9.286663    0.46794134155879
              3.163927    0.36231203217765
 s    3 1.00
             7.8682724   -0.11933240861517
             1.8812885   -0.16085421161283
             0.5442493     1.1434564825515
 s    1 1.00
             0.1687144                   1
 p    3 1.00
             7.8682724   0.068999095584993
             1.8812885    0.31642397975315
             0.5442493    0.74430825237435
 p    1 1.00
             0.1687144                   1
 d    1 1.00
                   0.8                   1

8 0
 s    3 1.00
             18.731137    0.03349459952309
             2.8253937    0.23472694665786
             0.6401217    0.81375731841339
 s    1 1.00
             0.1612778                   1

9 0
 s    3 1.00
             18.731137    0.03349459952309
             2.8253937    0.23472694665786
             0.6401217    0.81375731841339
 s    1 1.00
             0.1612778                   1

10 0
 s    6 1.00
             3047.5249  0.0018347001629433
             457.36951    0.01403730124668
             103.94869   0.068842606114048
             29.210155    0.23218442062076
              9.286663    0.46794134155879
              3.163927    0.36231203217765
 s    3 1.00
             7.8682724   -0.11933240861517
             1.8812885   -0.16085421161283
             0.5442493     1.1434564825515
 s    1 1.00
             0.1687144                   1
 p    3 1.00
             7.8682724   0.068999095584993
             1.8812885    0.31642397975315
             0.5442493    0.74430825237435
 p    1 1.00
             0.1687144                   1
 d    1 1.00
                   0.8                   1

11 0
 s    3 1.00
             18.731137    0.03349459952309
             2.8253937    0.23472694665786
             0.6401217    0.81375731841339
 s    1 1.00
             0.1612778                   1

12 0
 s    6 1.00
             3047.5249  0.0018347001629433
             457.36951    0.01403730124668
             103.94869   0.068842606114048
             29.210155    0.23218442062076
              9.286663    0.46794134155879
              3.163927    0.36231203217765
 s    3 1.00
             7.8682724   -0.11933240861517
             1.8812885   -0.16085421161283
             0.5442493     1.1434564825515
 s    1 1.00
             0.1687144                   1
 p    3 1.00
             7.8682724   0.068999095584993
             1.8812885    0.31642397975315
             0.5442493    0.74430825237435
 p    1 1.00
             0.1687144                   1
 d    1 1.00
                   0.8                   1

13 0
 s    3 1.00
             18.731137    0.03349459952309
             2.8253937    0.23472694665786
             0.6401217    0.81375731841339
 s    1 1.00
             0.1612778                   1

14 0
 s    3 1.00
             18.731137    0.03349459952309
             2.8253937    0.23472694665786
             0.6401217    0.81375731841339
 s    1 1.00
             0.1612778                   1

15 0
 s    6 1.00
             3047.5249  0.0018347001629433
             457.36951    0.01403730124668
             103.94869   0.068842606114048
             29.210155    0.23218442062076
              9.286663    0.46794134155879
              3.163927    0.36231203217765
 s    3 1.00
             7.8682724   -0.11933240861517
             1.8812885   -0.16085421161283
             0.5442493     1.1434564825515
 s    1 1.00
             0.1687144                   1
 p    3 1.00
             7.8682724   0.068999095584993
             1.8812885    0.31642397975315
             0.5442493    0.74430825237435
 p    1 1.00
             0.1687144                   1
 d    1 1.00
                   0.8                   1

16 0
 s    6 1.00
             3047.5249  0.0018347001629433
             457.36951    0.01403730124668
             103.94869   0.068842606114048
             29.210155    0.23218442062076
              9.286663    0.46794134155879
              3.163927    0.36231203217765
 s    3 1.00
             7.8682724   -0.11933240861517
             1.8812885   -0.16085421161283
             0.5442493     1.1434564825515
 s    1 1.00
             0.1687144                   1
 p    3 1.00
             7.8682724   0.068999095584993
             1.8812885    0.31642397975315
             0.5442493    0.74430825237435
 p    1 1.00
             0.1687144                   1
 d    1 1.00
                   0.8                   1

17 0
 s    6 1.00
             3047.5249  0.0018347001629433
             457.36951    0.01403730124668
             103.94869   0.068842606114048
             29.210155    0.23218442062076
              9.286663    0.46794134155879
              3.163927    0.36231203217765
 s    3 1.00
             7.8682724   -0.11933240861517
             1.8812885   -0.16085421161283
             0.5442493     1.1434564825515
 s    1 1.00
             0.1687144                   1
 p    3 1.00
             7.8682724   0.068999095584993
             1.8812885    0.31642397975315
             0.5442493    0.74430825237435
 p    1 1.00
             0.1687144                   1
 d    1 1.00
                   0.8                   1

18 0
 s    6 1.00
             3047.5249  0.0018347001629433
             457.36951    0.01403730124668
             103.94869   0.068842606114048
             29.210155    0.23218442062076
              9.286663    0.46794134155879
              3.163927    0.36231203217765
 s    3 1.00
             7.8682724   -0.11933240861517
             1.8812885   -0.16085421161283
             0.5442493     1.1434564825515
 s    1 1.00
             0.1687144                   1
 p    3 1.00
             7.8682724   0.068999095584993
             1.8812885    0.31642397975315
             0.5442493    0.74430825237435
 p    1 1.00
             0.1687144                   1
 d    1 1.00
                   0.8                   1

19 0
 s    6 1.00
             3047.5249  0.0018347001629433
             457.36951    0.01403730124668
             103.94869   0.068842606114048
             29.210155    0.23218442062076
              9.286663    0.46794134155879
              3.163927    0.36231203217765
 s    3 1.00
             7.8682724   -0.11933240861517
             1.8812885   -0.16085421161283
             0.5442493     1.1434564825515
 s    1 1.00
             0.1687144                   1
 p    3 1.00
             7.8682724   0.068999095584993
             1.8812885    0.31642397975315
             0.5442493    0.74430825237435
 p    1 1.00
             0.1687144                   1
 d    1 1.00
                   0.8                   1

20 0
 s    6 1.00
             3047.5249  0.0018347001629433
             457.36951    0.01403730124668
             103.94869   0.068842606114048
             29.210155    0.23218442062076
              9.286663    0.46794134155879
              3.163927    0.36231203217765
 s    3 1.00
             7.8682724   -0.11933240861517
             1.8812885   -0.16085421161283
             0.5442493     1.1434564825515
 s    1 1.00
             0.1687144                   1
 p    3 1.00
             7.8682724   0.068999095584993
             1.8812885    0.31642397975315
             0.5442493    0.74430825237435
 p    1 1.00
             0.1687144                   1
 d    1 1.00
                   0.8                   1

21 0
 s    6 1.00
             3047.5249  0.0018347001629433
             457.36951    0.01403730124668
             103.94869   0.068842606114048
             29.210155    0.23218442062076
              9.286663    0.46794134155879
              3.163927    0.36231203217765
 s    3 1.00
             7.8682724   -0.11933240861517
             1.8812885   -0.16085421161283
             0.5442493     1.1434564825515
 s    1 1.00
             0.1687144                   1
 p    3 1.00
             7.8682724   0.068999095584993
             1.8812885    0.31642397975315
             0.5442493    0.74430825237435
 p    1 1.00
             0.1687144                   1
 d    1 1.00
                   0.8                   1

22 0
 s    3 1.00
             18.731137    0.03349459952309
             2.8253937    0.23472694665786
             0.6401217    0.81375731841339
 s    1 1.00
             0.1612778                   1

23 0
 s    3 1.00
             18.731137    0.03349459952309
             2.8253937    0.23472694665786
             0.6401217    0.81375731841339
 s    1 1.00
             0.1612778                   1

24 0
 s    3 1.00
             18.731137    0.03349459952309
             2.8253937    0.23472694665786
             0.6401217    0.81375731841339
 s    1 1.00
             0.1612778                   1

25 0
 s    3 1.00
             18.731137    0.03349459952309
             2.8253937    0.23472694665786
             0.6401217    0.81375731841339
 s    1 1.00
             0.1612778                   1

26 0
 s    3 1.00
             18.731137    0.03349459952309
             2.8253937    0.23472694665786
             0.6401217    0.81375731841339
 s    1 1.00
             0.1612778                   1

27 0
 s    3 1.00
             18.731137    0.03349459952309
             2.8253937    0.23472694665786
             0.6401217    0.81375731841339
 s    1 1.00
             0.1612778                   1

28 0
 s    3 1.00
             18.731137    0.03349459952309
             2.8253937    0.23472694665786
             0.6401217    0.81375731841339
 s    1 1.00
             0.1612778                   1

29 0
 s    3 1.00
             18.731137    0.03349459952309
             2.8253937    0.23472694665786
             0.6401217    0.81375731841339
 s    1 1.00
             0.1612778                   1

30 0
 s    3 1.00
             18.731137    0.03349459952309
             2.8253937    0.23472694665786
             0.6401217    0.81375731841339
 s    1 1.00
             0.1612778                   1

31 0
 s    3 1.00
             18.731137    0.03349459952309
             2.8253937    0.23472694665786
             0.6401217    0.81375731841339
 s    1 1.00
             0.1612778                   1

32 0
 s    3 1.00
             18.731137    0.03349459952309
             2.8253937    0.23472694665786
             0.6401217    0.81375731841339
 s    1 1.00
             0.1612778                   1

33 0
 s    6 1.00
             3047.5249  0.0018347001629433
             457.36951    0.01403730124668
             103.94869   0.068842606114048
             29.210155    0.23218442062076
              9.286663    0.46794134155879
              3.163927    0.36231203217765
 s    3 1.00
             7.8682724   -0.11933240861517
             1.8812885   -0.16085421161283
             0.5442493     1.1434564825515
 s    1 1.00
             0.1687144                   1
 p    3 1.00
             7.8682724   0.068999095584993
             1.8812885    0.31642397975315
             0.5442493    0.74430825237435
 p    1 1.00
             0.1687144                   1
 d    1 1.00
                   0.8                   1

34 0
 s    6 1.00
             3047.5249  0.0018347001629433
             457.36951    0.01403730124668
             103.94869   0.068842606114048
             29.210155    0.23218442062076
              9.286663    0.46794134155879
              3.163927    0.36231203217765
 s    3 1.00
             7.8682724   -0.11933240861517
             1.8812885   -0.16085421161283
             0.5442493     1.1434564825515
 s    1 1.00
             0.1687144                   1
 p    3 1.00
             7.8682724   0.068999095584993
             1.8812885    0.31642397975315
             0.5442493    0.74430825237435
 p    1 1.00
             0.1687144                   1
 d    1 1.00
                   0.8                   1

35 0
 s    3 1.00
             18.731137    0.03349459952309
             2.8253937    0.23472694665786
             0.6401217    0.81375731841339
 s    1 1.00
             0.1612778                   1

36 0
 s    6 1.00
             3047.5249  0.0018347001629433
             457.36951    0.01403730124668
             103.94869   0.068842606114048
             29.210155    0.23218442062076
              9.286663    0.46794134155879
              3.163927    0.36231203217765
 s    3 1.00
             7.8682724   -0.11933240861517
             1.8812885   -0.16085421161283
             0.5442493     1.1434564825515
 s    1 1.00
             0.1687144                   1
 p    3 1.00
             7.8682724   0.068999095584993
             1.8812885    0.31642397975315
             0.5442493    0.74430825237435
 p    1 1.00
             0.1687144                   1
 d    1 1.00
                   0.8                   1

37 0
 s    3 1.00
             18.731137    0.03349459952309
             2.8253937    0.23472694665786
             0.6401217    0.81375731841339
 s    1 1.00
             0.1612778                   1

38 0
 s    3 1.00
             18.731137    0.03349459952309
             2.8253937    0.23472694665786
             0.6401217    0.81375731841339
 s    1 1.00
             0.1612778                   1

39 0
 s    6 1.00
             3047.5249  0.0018347001629433
             457.36951    0.01403730124668
             103.94869   0.068842606114048
             29.210155    0.23218442062076
              9.286663    0.46794134155879
              3.163927    0.36231203217765
 s    3 1.00
             7.8682724   -0.11933240861517
             1.8812885   -0.16085421161283
             0.5442493     1.1434564825515
 s    1 1.00
             0.1687144                   1
 p    3 1.00
             7.8682724   0.068999095584993
             1.8812885    0.31642397975315
             0.5442493    0.74430825237435
 p    1 1.00
             0.1687144                   1
 d    1 1.00
                   0.8                   1

40 0
 s    6 1.00
             3047.5249  0.0018347001629433
             457.36951    0.01403730124668
             103.94869   0.068842606114048
             29.210155    0.23218442062076
              9.286663    0.46794134155879
              3.163927    0.36231203217765
 s    3 1.00
             7.8682724   -0.11933240861517
             1.8812885   -0.16085421161283
             0.5442493     1.1434564825515
 s    1 1.00
             0.1687144                   1
 p    3 1.00
             7.8682724   0.068999095584993
             1.8812885    0.31642397975315
             0.5442493    0.74430825237435
 p    1 1.00
             0.1687144                   1
 d    1 1.00
                   0.8                   1

41 0
 s    3 1.00
             18.731137    0.03349459952309
             2.8253937    0.23472694665786
             0.6401217    0.81375731841339
 s    1 1.00
             0.1612778                   1

42 0
 s    6 1.00
             5484.6717   0.001831099805527
             825.23495   0.013950098518422
             188.04696    0.06844509273075
               52.9645    0.23271427528445
              16.89757    0.47019295006289
             5.7996353    0.35852086192309
 s    3 1.00
             15.539616   -0.11077750382508
             3.5999336   -0.14802630511126
             1.0137618     1.1307670390447
 s    1 1.00
             0.2700058                   1
 p    3 1.00
             15.539616   0.070874299543311
             3.5999336    0.33975279781076
             1.0137618    0.72715859531445
 p    1 1.00
             0.2700058                   1
 d    1 1.00
                   0.8                   1

43 0
 s    3 1.00
             18.731137    0.03349459952309
             2.8253937    0.23472694665786
             0.6401217    0.81375731841339
 s    1 1.00
             0.1612778                   1

[5d]
[7f]
[9g]

[MO]
 Sym= A
 Ene=               0
 Spin= Alpha
 Occup=    1.00000
   1     0.013083377778724
   2    -0.0012881648003115
   3    0.0078386253484473
   4     0.000413121723741
   5    -0.00013650537972055
   6    0.0013447246343545
   7    0.00086587223669514
   8    0.0013550449563499
   9    -0.006133202527966
  10    -0.0010232893690672
  11    -0.0009663851562266
  12    0.00016498433191582
  13    -0.00020854781821132
  14    5.9410493171893e-05
  15    -0.00049444908751022
  16    -0.00092258772136912
  17      0.99476917803629
  18     0.039315108319797
  19    -0.031673017631215
  20    0.0010288440273721
  21    0.00018091233811228
  22    -0.00069009269314516
  23    -0.0040637019549007
  24    -0.0011991960833815
  25    -0.00084983953897977
  26    0.00081425433111398
  27    -0.00032002749521792
  28    -0.00036160434995741
  29    0.00028451870636827
  30    0.00017875909589125
  31    -0.0012986415105457
  32    0.0042288760374793
  33     0.013851312559107
  34    -0.00033259492893201
  35    0.0013177344415396
  36    0.0009539353056377
  37    0.0003657477994303
  38    -0.0013071041206541
  39    -0.0024464070173895
  40    0.0038007424965841
  41    0.0047206532808991
  42    -0.00069338238576294
  43    0.0013186665009457
  44    0.00051595136621894
  45    -0.00037995566592188
  46    -0.00043159293032807
  47    -0.00060550023869067
  48    -0.00065020106199897
  49    0.00025442335995983
  50    -0.00058076474209494
  51    0.00033530357129592
  52    0.00027002137642848
  53    5.4642355604805e-06
  54    -0.00046065332495992
  55    -0.0050449721974471
  56     0.001254029043092
  57    0.0077737898393355
  58    -0.00015609317011444
  59    -1.2121343961746e-05
  60    0.00019790543133888
  61    -0.00027075447657141
  62    -0.00018168030108925
  63    -0.00053813287702771
  64    0.00023810512647955
  65    -4.5481568052595e-06
  66    -5.6546957914026e-06
  67    9.6061268691652e-07
  68    -4.2619367311375e-06
  69    6.0615272495196e-06
  70    2.5030591159402e-06
  71    -6.4648888177351e-06
  72    1.2547742873551e-06
  73    1.0004649759946e-05
  74    2.6692040980314e-05
  75    6.3189351244119e-06
  76    -5.4912124215239e-07
  77    -5.8974713158059e-07
  78    7.1383809952679e-07
  79    6.6817051782211e-07
  80    -5.5298914286131e-08
  81    3.3355035018936e-06
  82    1.5460319991833e-05
  83    2.016282918068e-06
  84    -1.7574917710155e-06
  85    -9.4133791612782e-05
  86    1.0199191116531e-05
  87    3.2989065613308e-06
  88    1.7439290705587e-05
  89    3.245884900916e-05
  90    -6.9648159794866e-05
  91    2.4007590962697e-05
  92    1.306190460223e-06
  93    -2.488347918167e-06
  94    4.589965091245e-06
  95    -4.4722683246479e-07
  96    -7.7142523787802e-07
  97    1.3046835923336e-05
  98    2.2460206402773e-05
  99    -3.0163012553115e-06
 100    -2.0696402470839e-05
 101    -2.7724034019139e-06
 102    -1.1421967934465e-05
 103    0.00023919774691432
 104    -1.5153461702802e-05
 105    -2.1301069141675e-05
 106    -5.1564744059749e-06
 107    -0.00022549905792434
 108    0.00019084325167157
 109     0.000180408355876
 110    -7.771252505364e-06
 111    -2.8516919620798e-06
 112    1.1025854519247e-06
 113    2.4474730406403e-06
 114    -6.2760762733304e-06
 115    -6.2697683730331e-06
 116    -3.2325511007723e-05
 117    0.00028473418050788
 118    -6.1896563597358e-06
 119    9.848885622683e-06
 120    1.0997995975846e-05
 121    -6.6218344873157e-05
 122    2.5248609411716e-05
 123    4.3469298588733e-05
 124    1.1080149528842e-06
 125    -3.3920370237247e-06
 126    -2.8288332183703e-06
 127    1.3570256488517e-06
 128    -2.1694242540794e-06
 129    7.9669909432225e-06
 130    -8.3831529106231e-05
 131    0.00013352510104822
 132    2.1572851021858e-05
 133    -5.6255595810649e-06
 134    0.00010462136180132
 135    -0.00035863377913441
 136    3.8784618252756e-05
 137    -0.00045052528994685
 138    1.418730085383e-05
 139    9.3956328185396e-06
 140    4.6447162870155e-06
 141    3.4142575107292e-06
 142    6.459306935271e-06
 143    -1.0993369803845e-05
 144    -1.1624297837646e-05
 145    9.5534939240737e-05
 146    2.158974051471e-05
 147    -9.1357684122375e-06
 148    -1.9976529896708e-05
 149    5.4433443743351e-05
 150    -3.0626889754392e-05
 151    -6.8301629576376e-05
 152    -1.0432440494223e-05
 153    -4.8629015698264e-06
 154    -3.1915230895309e-06
 155    5.2511764974689e-06
 156    -5.7345099143718e-06
 157    4.1719240319318e-07
 158    1.542193390271e-05
 159    -1.986842567474e-05
 160    7.6110467403158e-06
 161    -4.1552073630504e-06
 162    1.5471727087262e-06
 163    -5.4047638931073e-05
 164    1.6804526660787e-05
 165    1.4852732216329e-05
 166    3.6464744486622e-06
 167    -1.1229222666981e-06
 168    2.217601452861e-07
 169    4.0666569844454e-07
 170    1.4448906039265e-06
 171    -1.415968144525e-06
 172    -1.1914724518664e-05
 173    2.5114716384543e-05
 174    -3.4115259195979e-06
 175    1.4669947575282e-06
 176    1.0456929573335e-05
 177    -1.1059928166487e-05
 178    1.3140649114102e-06
 179    -3.6102866821938e-05
 180    1.3210260636022e-06
 181    3.9431943871831e-06
 182      2.2020985405e-07
 183    -8.1482312064325e-07
 184    1.634124259873e-06
 185    3.1671368792952e-07
 186    -3.7402409575651e-05
 187    4.8073486546448e-05
 188    2.9856565506498e-06
 189    4.6794147734357e-06
 190    2.502160466765e-05
 191    1.0146054058635e-05
 192    -4.6620161333271e-06
 193    -5.3868108326643e-05
 194    4.2867600573765e-06
 195    4.3471328554102e-07
 196    3.3085295187045e-06
 197    -6.9977894007251e-07
 198    3.1505397786289e-07
 199    -8.0294500392514e-06
 200    -1.5219170822556e-06
 201    5.1611912958799e-06
 202    3.9038005551261e-05
 203    -1.445415660344e-05
 204    -7.3212557358175e-06
 205    3.2763980422936e-06
 206    -2.514098341116e-05
 207    7.976909506354e-06
 208    -7.1813396572923e-05
 209    7.6981049251202e-06
 210    -3.3899891977281e-05
 211    5.5637153542353e-06
 212    1.6944698661061e-05
 213    2.0882602239622e-06
 214    -1.8552140315145e-05
 215    -5.898842137468e-06
 216    -4.6539448241731e-05
 217    4.6912875491055e-06
 218    1.5985161226524e-05
 219    -3.5705353007746e-07
 220    1.8918034444325e-06
 221    -8.8893354232748e-05
 222    6.4789987671467e-05
 223    0.00099710729917665
 224    0.00010153440495733
 225    5.2805016491912e-05
 226    -0.00020802152371363
 227    0.00069255172059098
 228    0.00033365421428682
 229    -0.0010650314088081
 230    -2.1377952271912e-06
 231    -4.8516571235728e-05
 232    -2.2492602510247e-05
 233    2.5588736830471e-05
 234    2.5553885919794e-05
 235    0.00014646371680396
 236    -0.00033419852789684
 237    -0.00057427417110385
 238    -0.00020716312824466
 239    -0.00016113567238653
 240    0.00056493467620212
 241    0.00023728429102748
 242    0.00029256111230568
 243    -0.0013920285023233
 244    3.8528289560907e-06
 245    6.7642651439664e-05
 246    1.606337134298e-05
 247    1.4313247848168e-05
 248    -2.6840310870381e-06
 249    -1.9644673353938e-05
 250    0.0003165562908644
 251    -0.00034601014326406
 252    -0.00048490967766577
 253    0.0022567684522832
 254    -0.00048172380341605
 255    -9.1570611758411e-05
 256    -0.00019280204762729
 257    -0.00017384134740439
 258    0.00042472907991682
 259    -0.0019446981374884
 260    -8.3147462457635e-05
 261    -3.7425941548141e-05
 262    -2.129398858018e-05
 263     0.000157632080128
 264    0.00010362443957818
 265    -0.00026318884058477
 266    0.00017843153763242
 267    0.0002040535664502
 268    -0.000248607500763
 269    -2.7479668024316e-05
 270    -0.00054655709541007
 271    0.0072779176175493
 272    -1.6006954000792e-05
 273    -0.00015101386601688
 274    9.5784375981805e-05
 275    -0.0017450258292833
 276    -0.0030811497268222
 277    0.0028278460796436
 278    8.9537858856457e-05
 279    -0.00019320384598772
 280    -9.1947713219457e-05
 281    -2.7678442455823e-05