[Molden Format]
made by pyscf v[2.0.1]
[Atoms] (AU)
C   1   6     0.69100024066471     0.64692934207205    -3.48223131169301
H   2   1     2.68052439830868     1.13355088658700    -3.25784032593313
C   3   6    -0.36286361513219     0.85440132524594    -5.97030179418974
H   4   1    -2.35448549047279     0.36322488579172    -6.17995817793143
C   5   6     0.93697958957450     1.61209284601821    -8.05828437677121
H   6   1     1.25179717896080     3.62344259528190    -8.36861463213972
C   7   6     1.93299030663405    -0.10622024085708    -9.90534865945394
H   8   1     1.60367989661651    -2.11561190296467    -9.56827000221191
H   9   1     1.55630230933075    -1.92953025305990    12.99630010416247
C   10   6     0.75233899775814    -2.21270439606481    11.10705728102219
H   11   1    -0.43433408177274    -3.90944857546550    11.22216085340412
C   12   6     2.86362581178706    -2.63237380607947     9.17926416456045
H   13   1     4.39038949912609    -1.24955421540245     9.49899813497433
H   14   1     3.74629220191363    -4.48798724300892     9.47414880959024
C   15   6     2.02478325613682    -2.42177285709634     6.44560829588644
C   16   6     3.88048732735477    -3.58795445234514     4.61402886975252
C   17   6    -0.18412382258602    -1.30464291234259     5.76021113872346
C   18   6    -2.10044360464350    -0.26837831858460     7.71610340967100
C   19   6    -3.08956938670431     2.35282328359417     6.88693925039594
C   20   6    -4.37372924086464    -2.09766595989678     7.93610724222001
C   21   6    -0.83850430601230     0.06372213486173    10.33002307638377
H   22   1     0.38411922151109     1.74281358582432    10.27380136542181
H   23   1    -2.30980003007874     0.45460143924521    11.73986301809809
H   24   1     4.58527064644668    -5.38706904487420     5.36778158031719
H   25   1     5.54944938085014    -2.37631462192748     4.35398898413318
H   26   1     3.06633019150423    -3.94118377050688     2.75255466040884
H   27   1    -4.17727778763735     2.26573369139522     5.12914900961283
H   28   1    -1.52662344944051     3.68001877445626     6.59540397144508
H   29   1    -4.32916174397830     3.13643051467482     8.35225460090378
H   30   1    -5.32329548508442    -2.36691813602939     6.11583672749896
H   31   1    -5.77989366602257    -1.33896741843465     9.25748940450990
H   32   1    -3.79310905208926    -3.96389819310853     8.61386170102686
C   33   6    -1.01100794811226    -1.06331657314144     3.11929490449947
C   34   6     0.37686231036534    -0.33275864505552     1.09165013605873
H   35   1    -3.01671213906703    -1.40297922279997     2.77827895090944
C   36   6    -0.64382707979370    -0.11591880174385    -1.42063131251064
H   37   1     2.35569259782137     0.17174499283897     1.33641070251401
H   38   1    -2.63317482980319    -0.60229203511219    -1.66119700387645
C   39   6     3.23483881481583     0.56109494848388   -12.01167590238676
C   40   6     4.17213386166354    -1.33546547775814   -13.78129708499957
H   41   1     3.62751071831436     2.52907164005278   -12.45960989181140
O   42   8     5.35190984410731    -0.86987395658954   -15.70799822813352
H   43   1     3.72751838268070    -3.32497850208065   -13.24806737881206
[GTO]
1 0
 s    6 1.00
             3047.5249  0.0018347001629433
             457.36951    0.01403730124668
             103.94869   0.068842606114048
             29.210155    0.23218442062076
              9.286663    0.46794134155879
              3.163927    0.36231203217765
 s    3 1.00
             7.8682724   -0.11933240861517
             1.8812885   -0.16085421161283
             0.5442493     1.1434564825515
 s    1 1.00
             0.1687144                   1
 p    3 1.00
             7.8682724   0.068999095584993
             1.8812885    0.31642397975315
             0.5442493    0.74430825237435
 p    1 1.00
             0.1687144                   1
 d    1 1.00
                   0.8                   1

2 0
 s    3 1.00
             18.731137    0.03349459952309
             2.8253937    0.23472694665786
             0.6401217    0.81375731841339
 s    1 1.00
             0.1612778                   1

3 0
 s    6 1.00
             3047.5249  0.0018347001629433
             457.36951    0.01403730124668
             103.94869   0.068842606114048
             29.210155    0.23218442062076
              9.286663    0.46794134155879
              3.163927    0.36231203217765
 s    3 1.00
             7.8682724   -0.11933240861517
             1.8812885   -0.16085421161283
             0.5442493     1.1434564825515
 s    1 1.00
             0.1687144                   1
 p    3 1.00
             7.8682724   0.068999095584993
             1.8812885    0.31642397975315
             0.5442493    0.74430825237435
 p    1 1.00
             0.1687144                   1
 d    1 1.00
                   0.8                   1

4 0
 s    3 1.00
             18.731137    0.03349459952309
             2.8253937    0.23472694665786
             0.6401217    0.81375731841339
 s    1 1.00
             0.1612778                   1

5 0
 s    6 1.00
             3047.5249  0.0018347001629433
             457.36951    0.01403730124668
             103.94869   0.068842606114048
             29.210155    0.23218442062076
              9.286663    0.46794134155879
              3.163927    0.36231203217765
 s    3 1.00
             7.8682724   -0.11933240861517
             1.8812885   -0.16085421161283
             0.5442493     1.1434564825515
 s    1 1.00
             0.1687144                   1
 p    3 1.00
             7.8682724   0.068999095584993
             1.8812885    0.31642397975315
             0.5442493    0.74430825237435
 p    1 1.00
             0.1687144                   1
 d    1 1.00
                   0.8                   1

6 0
 s    3 1.00
             18.731137    0.03349459952309
             2.8253937    0.23472694665786
             0.6401217    0.81375731841339
 s    1 1.00
             0.1612778                   1

7 0
 s    6 1.00
             3047.5249  0.0018347001629433
             457.36951    0.01403730124668
             103.94869   0.068842606114048
             29.210155    0.23218442062076
              9.286663    0.46794134155879
              3.163927    0.36231203217765
 s    3 1.00
             7.8682724   -0.11933240861517
             1.8812885   -0.16085421161283
             0.5442493     1.1434564825515
 s    1 1.00
             0.1687144                   1
 p    3 1.00
             7.8682724   0.068999095584993
             1.8812885    0.31642397975315
             0.5442493    0.74430825237435
 p    1 1.00
             0.1687144                   1
 d    1 1.00
                   0.8                   1

8 0
 s    3 1.00
             18.731137    0.03349459952309
             2.8253937    0.23472694665786
             0.6401217    0.81375731841339
 s    1 1.00
             0.1612778                   1

9 0
 s    3 1.00
             18.731137    0.03349459952309
             2.8253937    0.23472694665786
             0.6401217    0.81375731841339
 s    1 1.00
             0.1612778                   1

10 0
 s    6 1.00
             3047.5249  0.0018347001629433
             457.36951    0.01403730124668
             103.94869   0.068842606114048
             29.210155    0.23218442062076
              9.286663    0.46794134155879
              3.163927    0.36231203217765
 s    3 1.00
             7.8682724   -0.11933240861517
             1.8812885   -0.16085421161283
             0.5442493     1.1434564825515
 s    1 1.00
             0.1687144                   1
 p    3 1.00
             7.8682724   0.068999095584993
             1.8812885    0.31642397975315
             0.5442493    0.74430825237435
 p    1 1.00
             0.1687144                   1
 d    1 1.00
                   0.8                   1

11 0
 s    3 1.00
             18.731137    0.03349459952309
             2.8253937    0.23472694665786
             0.6401217    0.81375731841339
 s    1 1.00
             0.1612778                   1

12 0
 s    6 1.00
             3047.5249  0.0018347001629433
             457.36951    0.01403730124668
             103.94869   0.068842606114048
             29.210155    0.23218442062076
              9.286663    0.46794134155879
              3.163927    0.36231203217765
 s    3 1.00
             7.8682724   -0.11933240861517
             1.8812885   -0.16085421161283
             0.5442493     1.1434564825515
 s    1 1.00
             0.1687144                   1
 p    3 1.00
             7.8682724   0.068999095584993
             1.8812885    0.31642397975315
             0.5442493    0.74430825237435
 p    1 1.00
             0.1687144                   1
 d    1 1.00
                   0.8                   1

13 0
 s    3 1.00
             18.731137    0.03349459952309
             2.8253937    0.23472694665786
             0.6401217    0.81375731841339
 s    1 1.00
             0.1612778                   1

14 0
 s    3 1.00
             18.731137    0.03349459952309
             2.8253937    0.23472694665786
             0.6401217    0.81375731841339
 s    1 1.00
             0.1612778                   1

15 0
 s    6 1.00
             3047.5249  0.0018347001629433
             457.36951    0.01403730124668
             103.94869   0.068842606114048
             29.210155    0.23218442062076
              9.286663    0.46794134155879
              3.163927    0.36231203217765
 s    3 1.00
             7.8682724   -0.11933240861517
             1.8812885   -0.16085421161283
             0.5442493     1.1434564825515
 s    1 1.00
             0.1687144                   1
 p    3 1.00
             7.8682724   0.068999095584993
             1.8812885    0.31642397975315
             0.5442493    0.74430825237435
 p    1 1.00
             0.1687144                   1
 d    1 1.00
                   0.8                   1

16 0
 s    6 1.00
             3047.5249  0.0018347001629433
             457.36951    0.01403730124668
             103.94869   0.068842606114048
             29.210155    0.23218442062076
              9.286663    0.46794134155879
              3.163927    0.36231203217765
 s    3 1.00
             7.8682724   -0.11933240861517
             1.8812885   -0.16085421161283
             0.5442493     1.1434564825515
 s    1 1.00
             0.1687144                   1
 p    3 1.00
             7.8682724   0.068999095584993
             1.8812885    0.31642397975315
             0.5442493    0.74430825237435
 p    1 1.00
             0.1687144                   1
 d    1 1.00
                   0.8                   1

17 0
 s    6 1.00
             3047.5249  0.0018347001629433
             457.36951    0.01403730124668
             103.94869   0.068842606114048
             29.210155    0.23218442062076
              9.286663    0.46794134155879
              3.163927    0.36231203217765
 s    3 1.00
             7.8682724   -0.11933240861517
             1.8812885   -0.16085421161283
             0.5442493     1.1434564825515
 s    1 1.00
             0.1687144                   1
 p    3 1.00
             7.8682724   0.068999095584993
             1.8812885    0.31642397975315
             0.5442493    0.74430825237435
 p    1 1.00
             0.1687144                   1
 d    1 1.00
                   0.8                   1

18 0
 s    6 1.00
             3047.5249  0.0018347001629433
             457.36951    0.01403730124668
             103.94869   0.068842606114048
             29.210155    0.23218442062076
              9.286663    0.46794134155879
              3.163927    0.36231203217765
 s    3 1.00
             7.8682724   -0.11933240861517
             1.8812885   -0.16085421161283
             0.5442493     1.1434564825515
 s    1 1.00
             0.1687144                   1
 p    3 1.00
             7.8682724   0.068999095584993
             1.8812885    0.31642397975315
             0.5442493    0.74430825237435
 p    1 1.00
             0.1687144                   1
 d    1 1.00
                   0.8                   1

19 0
 s    6 1.00
             3047.5249  0.0018347001629433
             457.36951    0.01403730124668
             103.94869   0.068842606114048
             29.210155    0.23218442062076
              9.286663    0.46794134155879
              3.163927    0.36231203217765
 s    3 1.00
             7.8682724   -0.11933240861517
             1.8812885   -0.16085421161283
             0.5442493     1.1434564825515
 s    1 1.00
             0.1687144                   1
 p    3 1.00
             7.8682724   0.068999095584993
             1.8812885    0.31642397975315
             0.5442493    0.74430825237435
 p    1 1.00
             0.1687144                   1
 d    1 1.00
                   0.8                   1

20 0
 s    6 1.00
             3047.5249  0.0018347001629433
             457.36951    0.01403730124668
             103.94869   0.068842606114048
             29.210155    0.23218442062076
              9.286663    0.46794134155879
              3.163927    0.36231203217765
 s    3 1.00
             7.8682724   -0.11933240861517
             1.8812885   -0.16085421161283
             0.5442493     1.1434564825515
 s    1 1.00
             0.1687144                   1
 p    3 1.00
             7.8682724   0.068999095584993
             1.8812885    0.31642397975315
             0.5442493    0.74430825237435
 p    1 1.00
             0.1687144                   1
 d    1 1.00
                   0.8                   1

21 0
 s    6 1.00
             3047.5249  0.0018347001629433
             457.36951    0.01403730124668
             103.94869   0.068842606114048
             29.210155    0.23218442062076
              9.286663    0.46794134155879
              3.163927    0.36231203217765
 s    3 1.00
             7.8682724   -0.11933240861517
             1.8812885   -0.16085421161283
             0.5442493     1.1434564825515
 s    1 1.00
             0.1687144                   1
 p    3 1.00
             7.8682724   0.068999095584993
             1.8812885    0.31642397975315
             0.5442493    0.74430825237435
 p    1 1.00
             0.1687144                   1
 d    1 1.00
                   0.8                   1

22 0
 s    3 1.00
             18.731137    0.03349459952309
             2.8253937    0.23472694665786
             0.6401217    0.81375731841339
 s    1 1.00
             0.1612778                   1

23 0
 s    3 1.00
             18.731137    0.03349459952309
             2.8253937    0.23472694665786
             0.6401217    0.81375731841339
 s    1 1.00
             0.1612778                   1

24 0
 s    3 1.00
             18.731137    0.03349459952309
             2.8253937    0.23472694665786
             0.6401217    0.81375731841339
 s    1 1.00
             0.1612778                   1

25 0
 s    3 1.00
             18.731137    0.03349459952309
             2.8253937    0.23472694665786
             0.6401217    0.81375731841339
 s    1 1.00
             0.1612778                   1

26 0
 s    3 1.00
             18.731137    0.03349459952309
             2.8253937    0.23472694665786
             0.6401217    0.81375731841339
 s    1 1.00
             0.1612778                   1

27 0
 s    3 1.00
             18.731137    0.03349459952309
             2.8253937    0.23472694665786
             0.6401217    0.81375731841339
 s    1 1.00
             0.1612778                   1

28 0
 s    3 1.00
             18.731137    0.03349459952309
             2.8253937    0.23472694665786
             0.6401217    0.81375731841339
 s    1 1.00
             0.1612778                   1

29 0
 s    3 1.00
             18.731137    0.03349459952309
             2.8253937    0.23472694665786
             0.6401217    0.81375731841339
 s    1 1.00
             0.1612778                   1

30 0
 s    3 1.00
             18.731137    0.03349459952309
             2.8253937    0.23472694665786
             0.6401217    0.81375731841339
 s    1 1.00
             0.1612778                   1

31 0
 s    3 1.00
             18.731137    0.03349459952309
             2.8253937    0.23472694665786
             0.6401217    0.81375731841339
 s    1 1.00
             0.1612778                   1

32 0
 s    3 1.00
             18.731137    0.03349459952309
             2.8253937    0.23472694665786
             0.6401217    0.81375731841339
 s    1 1.00
             0.1612778                   1

33 0
 s    6 1.00
             3047.5249  0.0018347001629433
             457.36951    0.01403730124668
             103.94869   0.068842606114048
             29.210155    0.23218442062076
              9.286663    0.46794134155879
              3.163927    0.36231203217765
 s    3 1.00
             7.8682724   -0.11933240861517
             1.8812885   -0.16085421161283
             0.5442493     1.1434564825515
 s    1 1.00
             0.1687144                   1
 p    3 1.00
             7.8682724   0.068999095584993
             1.8812885    0.31642397975315
             0.5442493    0.74430825237435
 p    1 1.00
             0.1687144                   1
 d    1 1.00
                   0.8                   1

34 0
 s    6 1.00
             3047.5249  0.0018347001629433
             457.36951    0.01403730124668
             103.94869   0.068842606114048
             29.210155    0.23218442062076
              9.286663    0.46794134155879
              3.163927    0.36231203217765
 s    3 1.00
             7.8682724   -0.11933240861517
             1.8812885   -0.16085421161283
             0.5442493     1.1434564825515
 s    1 1.00
             0.1687144                   1
 p    3 1.00
             7.8682724   0.068999095584993
             1.8812885    0.31642397975315
             0.5442493    0.74430825237435
 p    1 1.00
             0.1687144                   1
 d    1 1.00
                   0.8                   1

35 0
 s    3 1.00
             18.731137    0.03349459952309
             2.8253937    0.23472694665786
             0.6401217    0.81375731841339
 s    1 1.00
             0.1612778                   1

36 0
 s    6 1.00
             3047.5249  0.0018347001629433
             457.36951    0.01403730124668
             103.94869   0.068842606114048
             29.210155    0.23218442062076
              9.286663    0.46794134155879
              3.163927    0.36231203217765
 s    3 1.00
             7.8682724   -0.11933240861517
             1.8812885   -0.16085421161283
             0.5442493     1.1434564825515
 s    1 1.00
             0.1687144                   1
 p    3 1.00
             7.8682724   0.068999095584993
             1.8812885    0.31642397975315
             0.5442493    0.74430825237435
 p    1 1.00
             0.1687144                   1
 d    1 1.00
                   0.8                   1

37 0
 s    3 1.00
             18.731137    0.03349459952309
             2.8253937    0.23472694665786
             0.6401217    0.81375731841339
 s    1 1.00
             0.1612778                   1

38 0
 s    3 1.00
             18.731137    0.03349459952309
             2.8253937    0.23472694665786
             0.6401217    0.81375731841339
 s    1 1.00
             0.1612778                   1

39 0
 s    6 1.00
             3047.5249  0.0018347001629433
             457.36951    0.01403730124668
             103.94869   0.068842606114048
             29.210155    0.23218442062076
              9.286663    0.46794134155879
              3.163927    0.36231203217765
 s    3 1.00
             7.8682724   -0.11933240861517
             1.8812885   -0.16085421161283
             0.5442493     1.1434564825515
 s    1 1.00
             0.1687144                   1
 p    3 1.00
             7.8682724   0.068999095584993
             1.8812885    0.31642397975315
             0.5442493    0.74430825237435
 p    1 1.00
             0.1687144                   1
 d    1 1.00
                   0.8                   1

40 0
 s    6 1.00
             3047.5249  0.0018347001629433
             457.36951    0.01403730124668
             103.94869   0.068842606114048
             29.210155    0.23218442062076
              9.286663    0.46794134155879
              3.163927    0.36231203217765
 s    3 1.00
             7.8682724   -0.11933240861517
             1.8812885   -0.16085421161283
             0.5442493     1.1434564825515
 s    1 1.00
             0.1687144                   1
 p    3 1.00
             7.8682724   0.068999095584993
             1.8812885    0.31642397975315
             0.5442493    0.74430825237435
 p    1 1.00
             0.1687144                   1
 d    1 1.00
                   0.8                   1

41 0
 s    3 1.00
             18.731137    0.03349459952309
             2.8253937    0.23472694665786
             0.6401217    0.81375731841339
 s    1 1.00
             0.1612778                   1

42 0
 s    6 1.00
             5484.6717   0.001831099805527
             825.23495   0.013950098518422
             188.04696    0.06844509273075
               52.9645    0.23271427528445
              16.89757    0.47019295006289
             5.7996353    0.35852086192309
 s    3 1.00
             15.539616   -0.11077750382508
             3.5999336   -0.14802630511126
             1.0137618     1.1307670390447
 s    1 1.00
             0.2700058                   1
 p    3 1.00
             15.539616   0.070874299543311
             3.5999336    0.33975279781076
             1.0137618    0.72715859531445
 p    1 1.00
             0.2700058                   1
 d    1 1.00
                   0.8                   1

43 0
 s    3 1.00
             18.731137    0.03349459952309
             2.8253937    0.23472694665786
             0.6401217    0.81375731841339
 s    1 1.00
             0.1612778                   1

[5d]
[7f]
[9g]

[MO]
 Sym= A
 Ene=               0
 Spin= Alpha
 Occup=    1.00000
   1     0.013286547665517
   2    -0.0012808604035353
   3     0.007744102326548
   4    0.00041108819076615
   5    -0.00011535832956771
   6    0.0013552253881043
   7    0.00086551113596071
   8    0.0012405681611273
   9    -0.0059625962915986
  10    -0.0010343449942913
  11    -0.00096940944881199
  12    0.00016835922306081
  13    -0.00021160545185609
  14    6.0618179781812e-05
  15    -0.00049233723382544
  16    -0.00091270418421112
  17      0.99473581124654
  18     0.039254683705803
  19    -0.031480674975598
  20    0.00099739638163249
  21    0.00017250359131607
  22    -0.00066291735936974
  23    -0.003958195200993
  24    -0.0011481213439608
  25    -0.00077804595945078
  26    0.00082255003694069
  27    -0.00031010844577051
  28    -0.00037027325462412
  29    0.00028518897261546
  30    0.00015970649210369
  31    -0.0012807667755665
  32    0.0042536319996356
  33     0.015611312203902
  34    -0.00030830491925929
  35    0.0014510928107885
  36    0.00095246780331297
  37    0.00036598687502626
  38    -0.0013193677469506
  39    -0.0020578070356658
  40    0.0036913608061392
  41    0.0049426028764522
  42    -0.00071424237061227
  43    0.0012966052232874
  44    0.00050429652375769
  45    -0.00037204201503211
  46    -0.00044817977921843
  47    -0.00059993090275407
  48    -0.00064977527234311
  49    0.00032857348151305
  50    -0.00057586265291054
  51    0.00040949607015891
  52    0.00022191680986728
  53    5.0724028887766e-06
  54    -0.00047954286881154
  55    -0.0044580078560357
  56    0.0012336458510475
  57    0.0078287479898732
  58    -0.00013425827612754
  59    5.600371078779e-07
  60    0.00022359138379704
  61    -0.00027828290661239
  62    -0.00011854120754661
  63    -0.00052587312309076
  64    0.00022501792598371
  65    -4.4901256059083e-06
  66    -5.5995825849971e-06
  67    9.6915894301889e-07
  68    -4.3017389269715e-06
  69    6.8420890376811e-06
  70    2.422367120458e-06
  71    -6.2851678021323e-06
  72    1.2705684441255e-06
  73    9.3129018305056e-06
  74    2.6077789506799e-05
  75    6.2027347990072e-06
  76    -5.7048534502067e-07
  77    -6.1440667087524e-07
  78    7.2580671208817e-07
  79    6.7426014279909e-07
  80    -6.7720845484554e-08
  81    3.2118471375347e-06
  82    1.5033625321325e-05
  83    2.0256426338798e-06
  84    -1.7424753442126e-06
  85    -9.2431763282359e-05
  86    1.0167085656127e-05
  87    3.3190644776634e-06
  88    1.7376607558417e-05
  89    3.2620089935392e-05
  90    -6.8170505533732e-05
  91    2.356022568761e-05
  92    1.2613176447071e-06
  93    -2.4476986733474e-06
  94    4.5081995820561e-06
  95    -4.3501948874654e-07
  96    -7.198935449849e-07
  97    1.3014052335515e-05
  98    2.2437302700968e-05
  99    -3.0303173500704e-06
 100    -2.0454683150922e-05
 101    -2.8866903364955e-06
 102    -1.1725943583444e-05
 103    0.00024196546591691
 104    -1.5701922175607e-05
 105    -2.1649840026816e-05
 106    -5.059337701805e-06
 107    -0.00022431028549409
 108    0.00018601914164389
 109    0.00017519163996272
 110    -7.6179078326254e-06
 111    -2.8655427562465e-06
 112    1.1233919527161e-06
 113    2.741982407313e-06
 114    -6.1649823318618e-06
 115    -6.2420363223391e-06
 116    -3.1911516660926e-05
 117    0.00028139815094188
 118    -6.198119756303e-06
 119    1.0094513959696e-05
 120    1.0696473697471e-05
 121    -6.4140334668216e-05
 122    2.3238024419477e-05
 123    4.1223555304384e-05
 124    1.1131807038662e-06
 125    -3.1998825630641e-06
 126    -2.8311134644867e-06
 127    1.2145858121373e-06
 128    -2.0303072484722e-06
 129    7.9206247020841e-06
 130    -8.3368964419292e-05
 131    0.00012750323970507
 132    2.1402274221057e-05
 133    -6.4054031473443e-06
 134    0.00010416001129825
 135    -0.00035504050971035
 136    4.5132969334749e-05
 137    -0.00044209290581233
 138    1.4267463065758e-05
 139    8.9218990345733e-06
 140    4.3981702596942e-06
 141    3.2212812767523e-06
 142    6.2078266009888e-06
 143    -1.0749346538661e-05
 144    -9.7898695279187e-06
 145    8.8258133604399e-05
 146    2.1388205487716e-05
 147    -8.8044976001041e-06
 148    -2.0392071162891e-05
 149    5.2664303442919e-05
 150    -3.6091669009935e-05
 151    -5.9814982366074e-05
 152    -1.0465072488745e-05
 153    -4.5952638312321e-06
 154    -2.9686678925743e-06
 155    5.228830638943e-06
 156    -5.4803601056451e-06
 157    3.0915159950028e-07
 158    1.4310301613484e-05
 159    -1.2773997133976e-05
 160    7.5532825753871e-06
 161    -4.3704399713302e-06
 162    2.0795112047259e-06
 163    -5.1182132746241e-05
 164    1.3528675594238e-05
 165    1.3614787752907e-05
 166    3.3668400856269e-06
 167    -9.0427252253009e-07
 168    2.2256911383134e-07
 169    2.5252305771055e-07
 170    1.3181574569337e-06
 171    -1.3839477337583e-06
 172    -1.1473905998286e-05
 173    2.3811549879351e-05
 174    -3.1852329939013e-06
 175    1.5460383271056e-06
 176    1.0039185025448e-05
 177    -1.3513105438392e-05
 178    9.1949963688493e-07
 179    -3.6815552214972e-05
 180    1.3619623540647e-06
 181    3.7232205251467e-06
 182    1.098095441029e-07
 183    -9.1104173329728e-07
 184    1.4820773050315e-06
 185    3.811830210782e-07
 186    -3.6633313020903e-05
 187    4.4413174888088e-05
 188    3.0372064921912e-06
 189    4.6988694922823e-06
 190    2.4807419128725e-05
 191    1.1417856744718e-05
 192    -2.9762104734074e-06
 193    -5.2467845892228e-05
 194    4.310939050792e-06
 195    3.2596417309541e-07
 196    3.0475912206893e-06
 197    -7.2061213982961e-07
 198    2.7012807342657e-07
 199    -7.8938469100843e-06
 200    -2.0890463126332e-06
 201    5.227354328522e-06
 202    3.8845508012526e-05
 203    -1.454054258154e-05
 204    -8.3816885637162e-06
 205    3.3200114295468e-06
 206    -2.4108994094046e-05
 207    8.4596269817524e-06
 208    -7.5064571828342e-05
 209    6.9782131790692e-06
 210    -3.372134960555e-05
 211    5.0357656334481e-06
 212    1.6241646535305e-05
 213    2.1338277871739e-06
 214    -1.7457938741699e-05
 215    -5.4052696912678e-06
 216    -4.8913563081602e-05
 217    4.5879899503765e-06
 218    1.5298365648371e-05
 219    -4.0722313368114e-07
 220    2.5844757224894e-06
 221    -8.8235882805885e-05
 222    6.9106930207747e-05
 223    0.00095009632641942
 224    0.00010019847057682
 225    5.5263784164338e-05
 226    -0.00020738564642765
 227    0.00067988472442914
 228    0.00032241491501941
 229    -0.0010282597009155
 230    -3.0208545904883e-06
 231    -4.6721857374646e-05
 232    -2.1817739143904e-05
 233    2.4674812653879e-05
 234    2.4990161983031e-05
 235    0.00014546633122915
 236    -0.00033567300088168
 237    -0.00049705949208213
 238    -0.00020696966419852
 239    -0.00015958483633431
 240    0.00056030490536599
 241    0.00021431051831668
 242    0.00027382646355115
 243    -0.0013760998083367
 244    6.0103436035063e-06
 245    6.5689515264046e-05
 246    1.686967893995e-05
 247    1.3667300543269e-05
 248    -1.1284276774909e-06
 249    -1.827213461001e-05
 250    0.00031649850049652
 251    -0.00034471532788487
 252    -0.000476383683743
 253    0.0021406597665311
 254    -0.00047787416986418
 255    -9.8389528957549e-05
 256    -0.00019124980099573
 257    -0.00024299407117836
 258    0.00044349301333406
 259    -0.0019255019414114
 260    -8.5341715382818e-05
 261    -3.5256842069317e-05
 262    -2.3342521526104e-05
 263    0.00015417531137686
 264     0.000106605687983
 265    -0.0002610093212641
 266    0.00017544961064569
 267    0.00020300322969732
 268    -0.00026452977686898
 269    -2.5974506440738e-05
 270    -0.00053017882495992
 271    0.0070358311911771
 272    -1.690402396486e-05
 273    -0.00015746973933512
 274    8.7600608572088e-05
 275    -0.0019187979611886
 276    -0.0029700764500743
 277    0.0026154441655849
 278    8.3072615766955e-05
 279    -0.00018986497327909
 280    -7.9378232506885e-05
 281    -2.4580437640249e-05