[Molden Format]
made by pyscf v[2.0.1]
[Atoms] (AU)
C   1   6     0.69100024066471     0.64692934207205    -3.48223131169301
H   2   1     2.68052439830868     1.13355088658700    -3.25784032593313
C   3   6    -0.36286361513219     0.85440132524594    -5.97030179418974
H   4   1    -2.35448549047279     0.36322488579172    -6.17995817793143
C   5   6     0.93697958957450     1.61209284601821    -8.05828437677121
H   6   1     0.73648971111668     3.55370010139060    -8.71472010856714
C   7   6     2.58127687438623    -0.01872844577485    -9.47001807350619
H   8   1     2.76404479428938    -1.95840164828389    -8.78885291415754
H   9   1     1.55630230933075    -1.92953025305990    12.99630010416247
C   10   6     0.75233899775814    -2.21270439606481    11.10705728102219
H   11   1    -0.43433408177274    -3.90944857546550    11.22216085340412
C   12   6     2.86362581178706    -2.63237380607947     9.17926416456045
H   13   1     4.39038949912609    -1.24955421540245     9.49899813497433
H   14   1     3.74629220191363    -4.48798724300892     9.47414880959024
C   15   6     2.02478325613682    -2.42177285709634     6.44560829588644
C   16   6     3.88048732735477    -3.58795445234514     4.61402886975252
C   17   6    -0.18412382258602    -1.30464291234259     5.76021113872346
C   18   6    -2.10044360464350    -0.26837831858460     7.71610340967100
C   19   6    -3.08956938670431     2.35282328359417     6.88693925039594
C   20   6    -4.37372924086464    -2.09766595989678     7.93610724222001
C   21   6    -0.83850430601230     0.06372213486173    10.33002307638377
H   22   1     0.38411922151109     1.74281358582432    10.27380136542181
H   23   1    -2.30980003007874     0.45460143924521    11.73986301809809
H   24   1     4.58527064644668    -5.38706904487420     5.36778158031719
H   25   1     5.54944938085014    -2.37631462192748     4.35398898413318
H   26   1     3.06633019150423    -3.94118377050688     2.75255466040884
H   27   1    -4.17727778763735     2.26573369139522     5.12914900961283
H   28   1    -1.52662344944051     3.68001877445626     6.59540397144508
H   29   1    -4.32916174397830     3.13643051467482     8.35225460090378
H   30   1    -5.32329548508442    -2.36691813602939     6.11583672749896
H   31   1    -5.77989366602257    -1.33896741843465     9.25748940450990
H   32   1    -3.79310905208926    -3.96389819310853     8.61386170102686
C   33   6    -1.01100794811226    -1.06331657314144     3.11929490449947
C   34   6     0.37686231036534    -0.33275864505552     1.09165013605873
H   35   1    -3.01671213906703    -1.40297922279997     2.77827895090944
C   36   6    -0.64382707979370    -0.11591880174385    -1.42063131251064
H   37   1     2.35569259782137     0.17174499283897     1.33641070251401
H   38   1    -2.63317482980319    -0.60229203511219    -1.66119700387645
C   39   6     3.90960344721415     0.65123442372143   -11.55890098643101
C   40   6     5.53597339482346    -1.15257329589011   -12.86589030877460
H   41   1     3.81237322709460     2.55237110239842   -12.33607146621226
O   42   8     6.77935136485374    -0.67974925370394   -14.75037240649433
H   43   1     5.57867975922019    -3.07543379045103   -12.00509846248917
[GTO]
1 0
 s    6 1.00
             3047.5249  0.0018347001629433
             457.36951    0.01403730124668
             103.94869   0.068842606114048
             29.210155    0.23218442062076
              9.286663    0.46794134155879
              3.163927    0.36231203217765
 s    3 1.00
             7.8682724   -0.11933240861517
             1.8812885   -0.16085421161283
             0.5442493     1.1434564825515
 s    1 1.00
             0.1687144                   1
 p    3 1.00
             7.8682724   0.068999095584993
             1.8812885    0.31642397975315
             0.5442493    0.74430825237435
 p    1 1.00
             0.1687144                   1
 d    1 1.00
                   0.8                   1

2 0
 s    3 1.00
             18.731137    0.03349459952309
             2.8253937    0.23472694665786
             0.6401217    0.81375731841339
 s    1 1.00
             0.1612778                   1

3 0
 s    6 1.00
             3047.5249  0.0018347001629433
             457.36951    0.01403730124668
             103.94869   0.068842606114048
             29.210155    0.23218442062076
              9.286663    0.46794134155879
              3.163927    0.36231203217765
 s    3 1.00
             7.8682724   -0.11933240861517
             1.8812885   -0.16085421161283
             0.5442493     1.1434564825515
 s    1 1.00
             0.1687144                   1
 p    3 1.00
             7.8682724   0.068999095584993
             1.8812885    0.31642397975315
             0.5442493    0.74430825237435
 p    1 1.00
             0.1687144                   1
 d    1 1.00
                   0.8                   1

4 0
 s    3 1.00
             18.731137    0.03349459952309
             2.8253937    0.23472694665786
             0.6401217    0.81375731841339
 s    1 1.00
             0.1612778                   1

5 0
 s    6 1.00
             3047.5249  0.0018347001629433
             457.36951    0.01403730124668
             103.94869   0.068842606114048
             29.210155    0.23218442062076
              9.286663    0.46794134155879
              3.163927    0.36231203217765
 s    3 1.00
             7.8682724   -0.11933240861517
             1.8812885   -0.16085421161283
             0.5442493     1.1434564825515
 s    1 1.00
             0.1687144                   1
 p    3 1.00
             7.8682724   0.068999095584993
             1.8812885    0.31642397975315
             0.5442493    0.74430825237435
 p    1 1.00
             0.1687144                   1
 d    1 1.00
                   0.8                   1

6 0
 s    3 1.00
             18.731137    0.03349459952309
             2.8253937    0.23472694665786
             0.6401217    0.81375731841339
 s    1 1.00
             0.1612778                   1

7 0
 s    6 1.00
             3047.5249  0.0018347001629433
             457.36951    0.01403730124668
             103.94869   0.068842606114048
             29.210155    0.23218442062076
              9.286663    0.46794134155879
              3.163927    0.36231203217765
 s    3 1.00
             7.8682724   -0.11933240861517
             1.8812885   -0.16085421161283
             0.5442493     1.1434564825515
 s    1 1.00
             0.1687144                   1
 p    3 1.00
             7.8682724   0.068999095584993
             1.8812885    0.31642397975315
             0.5442493    0.74430825237435
 p    1 1.00
             0.1687144                   1
 d    1 1.00
                   0.8                   1

8 0
 s    3 1.00
             18.731137    0.03349459952309
             2.8253937    0.23472694665786
             0.6401217    0.81375731841339
 s    1 1.00
             0.1612778                   1

9 0
 s    3 1.00
             18.731137    0.03349459952309
             2.8253937    0.23472694665786
             0.6401217    0.81375731841339
 s    1 1.00
             0.1612778                   1

10 0
 s    6 1.00
             3047.5249  0.0018347001629433
             457.36951    0.01403730124668
             103.94869   0.068842606114048
             29.210155    0.23218442062076
              9.286663    0.46794134155879
              3.163927    0.36231203217765
 s    3 1.00
             7.8682724   -0.11933240861517
             1.8812885   -0.16085421161283
             0.5442493     1.1434564825515
 s    1 1.00
             0.1687144                   1
 p    3 1.00
             7.8682724   0.068999095584993
             1.8812885    0.31642397975315
             0.5442493    0.74430825237435
 p    1 1.00
             0.1687144                   1
 d    1 1.00
                   0.8                   1

11 0
 s    3 1.00
             18.731137    0.03349459952309
             2.8253937    0.23472694665786
             0.6401217    0.81375731841339
 s    1 1.00
             0.1612778                   1

12 0
 s    6 1.00
             3047.5249  0.0018347001629433
             457.36951    0.01403730124668
             103.94869   0.068842606114048
             29.210155    0.23218442062076
              9.286663    0.46794134155879
              3.163927    0.36231203217765
 s    3 1.00
             7.8682724   -0.11933240861517
             1.8812885   -0.16085421161283
             0.5442493     1.1434564825515
 s    1 1.00
             0.1687144                   1
 p    3 1.00
             7.8682724   0.068999095584993
             1.8812885    0.31642397975315
             0.5442493    0.74430825237435
 p    1 1.00
             0.1687144                   1
 d    1 1.00
                   0.8                   1

13 0
 s    3 1.00
             18.731137    0.03349459952309
             2.8253937    0.23472694665786
             0.6401217    0.81375731841339
 s    1 1.00
             0.1612778                   1

14 0
 s    3 1.00
             18.731137    0.03349459952309
             2.8253937    0.23472694665786
             0.6401217    0.81375731841339
 s    1 1.00
             0.1612778                   1

15 0
 s    6 1.00
             3047.5249  0.0018347001629433
             457.36951    0.01403730124668
             103.94869   0.068842606114048
             29.210155    0.23218442062076
              9.286663    0.46794134155879
              3.163927    0.36231203217765
 s    3 1.00
             7.8682724   -0.11933240861517
             1.8812885   -0.16085421161283
             0.5442493     1.1434564825515
 s    1 1.00
             0.1687144                   1
 p    3 1.00
             7.8682724   0.068999095584993
             1.8812885    0.31642397975315
             0.5442493    0.74430825237435
 p    1 1.00
             0.1687144                   1
 d    1 1.00
                   0.8                   1

16 0
 s    6 1.00
             3047.5249  0.0018347001629433
             457.36951    0.01403730124668
             103.94869   0.068842606114048
             29.210155    0.23218442062076
              9.286663    0.46794134155879
              3.163927    0.36231203217765
 s    3 1.00
             7.8682724   -0.11933240861517
             1.8812885   -0.16085421161283
             0.5442493     1.1434564825515
 s    1 1.00
             0.1687144                   1
 p    3 1.00
             7.8682724   0.068999095584993
             1.8812885    0.31642397975315
             0.5442493    0.74430825237435
 p    1 1.00
             0.1687144                   1
 d    1 1.00
                   0.8                   1

17 0
 s    6 1.00
             3047.5249  0.0018347001629433
             457.36951    0.01403730124668
             103.94869   0.068842606114048
             29.210155    0.23218442062076
              9.286663    0.46794134155879
              3.163927    0.36231203217765
 s    3 1.00
             7.8682724   -0.11933240861517
             1.8812885   -0.16085421161283
             0.5442493     1.1434564825515
 s    1 1.00
             0.1687144                   1
 p    3 1.00
             7.8682724   0.068999095584993
             1.8812885    0.31642397975315
             0.5442493    0.74430825237435
 p    1 1.00
             0.1687144                   1
 d    1 1.00
                   0.8                   1

18 0
 s    6 1.00
             3047.5249  0.0018347001629433
             457.36951    0.01403730124668
             103.94869   0.068842606114048
             29.210155    0.23218442062076
              9.286663    0.46794134155879
              3.163927    0.36231203217765
 s    3 1.00
             7.8682724   -0.11933240861517
             1.8812885   -0.16085421161283
             0.5442493     1.1434564825515
 s    1 1.00
             0.1687144                   1
 p    3 1.00
             7.8682724   0.068999095584993
             1.8812885    0.31642397975315
             0.5442493    0.74430825237435
 p    1 1.00
             0.1687144                   1
 d    1 1.00
                   0.8                   1

19 0
 s    6 1.00
             3047.5249  0.0018347001629433
             457.36951    0.01403730124668
             103.94869   0.068842606114048
             29.210155    0.23218442062076
              9.286663    0.46794134155879
              3.163927    0.36231203217765
 s    3 1.00
             7.8682724   -0.11933240861517
             1.8812885   -0.16085421161283
             0.5442493     1.1434564825515
 s    1 1.00
             0.1687144                   1
 p    3 1.00
             7.8682724   0.068999095584993
             1.8812885    0.31642397975315
             0.5442493    0.74430825237435
 p    1 1.00
             0.1687144                   1
 d    1 1.00
                   0.8                   1

20 0
 s    6 1.00
             3047.5249  0.0018347001629433
             457.36951    0.01403730124668
             103.94869   0.068842606114048
             29.210155    0.23218442062076
              9.286663    0.46794134155879
              3.163927    0.36231203217765
 s    3 1.00
             7.8682724   -0.11933240861517
             1.8812885   -0.16085421161283
             0.5442493     1.1434564825515
 s    1 1.00
             0.1687144                   1
 p    3 1.00
             7.8682724   0.068999095584993
             1.8812885    0.31642397975315
             0.5442493    0.74430825237435
 p    1 1.00
             0.1687144                   1
 d    1 1.00
                   0.8                   1

21 0
 s    6 1.00
             3047.5249  0.0018347001629433
             457.36951    0.01403730124668
             103.94869   0.068842606114048
             29.210155    0.23218442062076
              9.286663    0.46794134155879
              3.163927    0.36231203217765
 s    3 1.00
             7.8682724   -0.11933240861517
             1.8812885   -0.16085421161283
             0.5442493     1.1434564825515
 s    1 1.00
             0.1687144                   1
 p    3 1.00
             7.8682724   0.068999095584993
             1.8812885    0.31642397975315
             0.5442493    0.74430825237435
 p    1 1.00
             0.1687144                   1
 d    1 1.00
                   0.8                   1

22 0
 s    3 1.00
             18.731137    0.03349459952309
             2.8253937    0.23472694665786
             0.6401217    0.81375731841339
 s    1 1.00
             0.1612778                   1

23 0
 s    3 1.00
             18.731137    0.03349459952309
             2.8253937    0.23472694665786
             0.6401217    0.81375731841339
 s    1 1.00
             0.1612778                   1

24 0
 s    3 1.00
             18.731137    0.03349459952309
             2.8253937    0.23472694665786
             0.6401217    0.81375731841339
 s    1 1.00
             0.1612778                   1

25 0
 s    3 1.00
             18.731137    0.03349459952309
             2.8253937    0.23472694665786
             0.6401217    0.81375731841339
 s    1 1.00
             0.1612778                   1

26 0
 s    3 1.00
             18.731137    0.03349459952309
             2.8253937    0.23472694665786
             0.6401217    0.81375731841339
 s    1 1.00
             0.1612778                   1

27 0
 s    3 1.00
             18.731137    0.03349459952309
             2.8253937    0.23472694665786
             0.6401217    0.81375731841339
 s    1 1.00
             0.1612778                   1

28 0
 s    3 1.00
             18.731137    0.03349459952309
             2.8253937    0.23472694665786
             0.6401217    0.81375731841339
 s    1 1.00
             0.1612778                   1

29 0
 s    3 1.00
             18.731137    0.03349459952309
             2.8253937    0.23472694665786
             0.6401217    0.81375731841339
 s    1 1.00
             0.1612778                   1

30 0
 s    3 1.00
             18.731137    0.03349459952309
             2.8253937    0.23472694665786
             0.6401217    0.81375731841339
 s    1 1.00
             0.1612778                   1

31 0
 s    3 1.00
             18.731137    0.03349459952309
             2.8253937    0.23472694665786
             0.6401217    0.81375731841339
 s    1 1.00
             0.1612778                   1

32 0
 s    3 1.00
             18.731137    0.03349459952309
             2.8253937    0.23472694665786
             0.6401217    0.81375731841339
 s    1 1.00
             0.1612778                   1

33 0
 s    6 1.00
             3047.5249  0.0018347001629433
             457.36951    0.01403730124668
             103.94869   0.068842606114048
             29.210155    0.23218442062076
              9.286663    0.46794134155879
              3.163927    0.36231203217765
 s    3 1.00
             7.8682724   -0.11933240861517
             1.8812885   -0.16085421161283
             0.5442493     1.1434564825515
 s    1 1.00
             0.1687144                   1
 p    3 1.00
             7.8682724   0.068999095584993
             1.8812885    0.31642397975315
             0.5442493    0.74430825237435
 p    1 1.00
             0.1687144                   1
 d    1 1.00
                   0.8                   1

34 0
 s    6 1.00
             3047.5249  0.0018347001629433
             457.36951    0.01403730124668
             103.94869   0.068842606114048
             29.210155    0.23218442062076
              9.286663    0.46794134155879
              3.163927    0.36231203217765
 s    3 1.00
             7.8682724   -0.11933240861517
             1.8812885   -0.16085421161283
             0.5442493     1.1434564825515
 s    1 1.00
             0.1687144                   1
 p    3 1.00
             7.8682724   0.068999095584993
             1.8812885    0.31642397975315
             0.5442493    0.74430825237435
 p    1 1.00
             0.1687144                   1
 d    1 1.00
                   0.8                   1

35 0
 s    3 1.00
             18.731137    0.03349459952309
             2.8253937    0.23472694665786
             0.6401217    0.81375731841339
 s    1 1.00
             0.1612778                   1

36 0
 s    6 1.00
             3047.5249  0.0018347001629433
             457.36951    0.01403730124668
             103.94869   0.068842606114048
             29.210155    0.23218442062076
              9.286663    0.46794134155879
              3.163927    0.36231203217765
 s    3 1.00
             7.8682724   -0.11933240861517
             1.8812885   -0.16085421161283
             0.5442493     1.1434564825515
 s    1 1.00
             0.1687144                   1
 p    3 1.00
             7.8682724   0.068999095584993
             1.8812885    0.31642397975315
             0.5442493    0.74430825237435
 p    1 1.00
             0.1687144                   1
 d    1 1.00
                   0.8                   1

37 0
 s    3 1.00
             18.731137    0.03349459952309
             2.8253937    0.23472694665786
             0.6401217    0.81375731841339
 s    1 1.00
             0.1612778                   1

38 0
 s    3 1.00
             18.731137    0.03349459952309
             2.8253937    0.23472694665786
             0.6401217    0.81375731841339
 s    1 1.00
             0.1612778                   1

39 0
 s    6 1.00
             3047.5249  0.0018347001629433
             457.36951    0.01403730124668
             103.94869   0.068842606114048
             29.210155    0.23218442062076
              9.286663    0.46794134155879
              3.163927    0.36231203217765
 s    3 1.00
             7.8682724   -0.11933240861517
             1.8812885   -0.16085421161283
             0.5442493     1.1434564825515
 s    1 1.00
             0.1687144                   1
 p    3 1.00
             7.8682724   0.068999095584993
             1.8812885    0.31642397975315
             0.5442493    0.74430825237435
 p    1 1.00
             0.1687144                   1
 d    1 1.00
                   0.8                   1

40 0
 s    6 1.00
             3047.5249  0.0018347001629433
             457.36951    0.01403730124668
             103.94869   0.068842606114048
             29.210155    0.23218442062076
              9.286663    0.46794134155879
              3.163927    0.36231203217765
 s    3 1.00
             7.8682724   -0.11933240861517
             1.8812885   -0.16085421161283
             0.5442493     1.1434564825515
 s    1 1.00
             0.1687144                   1
 p    3 1.00
             7.8682724   0.068999095584993
             1.8812885    0.31642397975315
             0.5442493    0.74430825237435
 p    1 1.00
             0.1687144                   1
 d    1 1.00
                   0.8                   1

41 0
 s    3 1.00
             18.731137    0.03349459952309
             2.8253937    0.23472694665786
             0.6401217    0.81375731841339
 s    1 1.00
             0.1612778                   1

42 0
 s    6 1.00
             5484.6717   0.001831099805527
             825.23495   0.013950098518422
             188.04696    0.06844509273075
               52.9645    0.23271427528445
              16.89757    0.47019295006289
             5.7996353    0.35852086192309
 s    3 1.00
             15.539616   -0.11077750382508
             3.5999336   -0.14802630511126
             1.0137618     1.1307670390447
 s    1 1.00
             0.2700058                   1
 p    3 1.00
             15.539616   0.070874299543311
             3.5999336    0.33975279781076
             1.0137618    0.72715859531445
 p    1 1.00
             0.2700058                   1
 d    1 1.00
                   0.8                   1

43 0
 s    3 1.00
             18.731137    0.03349459952309
             2.8253937    0.23472694665786
             0.6401217    0.81375731841339
 s    1 1.00
             0.1612778                   1

[5d]
[7f]
[9g]

[MO]
 Sym= A
 Ene=               0
 Spin= Alpha
 Occup=    1.00000
   1     0.014547642824747
   2    -0.0012059966856355
   3    0.0078501417912166
   4    0.00043479167722773
   5    -0.00019661395720302
   6    0.0013126508367432
   7    0.00083320434029414
   8    0.0015455783980889
   9    -0.0060326830181396
  10    -0.001015189004502
  11    -0.00098243218853865
  12    0.00014975790938272
  13    -0.00021053770892956
  14    5.990438073027e-05
  15    -0.00047903988013744
  16    -0.00095143059130975
  17      0.99471777924464
  18     0.039282040407593
  19    -0.031582009957535
  20    0.0010582740116808
  21    0.00022107106151005
  22    -0.00062045363672301
  23    -0.0041218863246868
  24    -0.0012724204440126
  25    -0.00086462360600568
  26    0.0007970274368127
  27    -0.00032210436723838
  28    -0.00034099849346082
  29    0.00026580876274883
  30    0.00022789030103403
  31    -0.0013334771898844
  32    0.0041562563923786
  33     0.015864878734321
  34    -0.00031521502201471
  35    0.0016375427990186
  36    0.00095569620254071
  37    0.00037533551670848
  38    -0.0012979464872602
  39    -0.003163886334975
  40    0.0034547422583439
  41    0.0040502122755351
  42    -0.00063916158613418
  43    0.0013177680251651
  44    0.00056055005540908
  45    -0.00041225832015322
  46    -0.00040625639159318
  47    -0.00060353077759227
  48    -0.00057992932924152
  49    0.00030168206437082
  50    -0.00054875075020754
  51    -1.0777403560798e-05
  52    0.00035477377067304
  53    3.3815988768519e-05
  54    -0.00039026499724374
  55    -0.005904360333136
  56    0.00084333382800378
  57     0.006945145987968
  58    -0.00018881459637049
  59    -4.2318415873962e-06
  60    0.00010051601004857
  61    -0.00018881397196582
  62    -0.00028826346239892
  63    -0.00052740986084789
  64    0.00019697082739107
  65    -4.563021431661e-06
  66    -5.8723945703168e-06
  67    1.0523483243342e-06
  68    -3.7556033123084e-06
  69    2.8985158773718e-06
  70    2.2798144926586e-06
  71    -6.3350848928246e-06
  72    1.0831651774237e-06
  73    1.0437142905084e-05
  74    2.7904644888924e-05
  75    6.5897794205111e-06
  76    -5.9157887295566e-07
  77    -5.0228924455466e-07
  78    6.1913717714745e-07
  79    5.9033669688023e-07
  80    -3.9520286067518e-08
  81    3.5177857775887e-06
  82    1.6510757205339e-05
  83    2.0624590479142e-06
  84    -2.7288118793196e-06
  85    -9.4507809847253e-05
  86    1.0248160270825e-05
  87    2.8986756330694e-06
  88    1.8044026472414e-05
  89    2.9220223174364e-05
  90    -6.8726055439343e-05
  91    2.650771205144e-05
  92    1.3405627731748e-06
  93    -2.2313608659367e-06
  94    4.5008838897255e-06
  95    -3.0764770414718e-07
  96    -7.9571403971854e-07
  97    1.3061930642346e-05
  98    2.3617057785998e-05
  99    -2.9262222880425e-06
 100    -2.0734578887562e-05
 101    -2.6632675067847e-06
 102    -8.26022815578e-06
 103    0.00019826816873877
 104    -1.5730424016297e-05
 105    -2.2425268710646e-05
 106    -5.2422035119526e-06
 107       -0.000211375785
 108    0.00018214331579937
 109    0.00019105579755425
 110    -8.1997314981708e-06
 111    -3.2349148819709e-06
 112    1.138079730686e-06
 113    1.534162014342e-06
 114    -5.9297064451436e-06
 115    -6.3209505030666e-06
 116    -3.2567832279953e-05
 117    0.0002831201895415
 118    -6.0524272643412e-06
 119    8.2433874447135e-06
 120    1.2370470490987e-05
 121    -7.0448380374653e-05
 122    3.4240985219249e-05
 123    4.4029712065823e-05
 124    8.3022093998655e-07
 125    -3.796093017411e-06
 126    -2.5752367954879e-06
 127    1.8768846871831e-06
 128    -2.351373421943e-06
 129    8.0923804747084e-06
 130    -8.2763647247488e-05
 131    0.00012826455980542
 132    2.1947005672301e-05
 133    -2.2209692999681e-07
 134    0.00010592848927923
 135    -0.00031701345256406
 136    1.8379495965775e-05
 137    -0.00044561469908702
 138    1.3026265597141e-05
 139    1.0012424426919e-05
 140    3.7478625960858e-06
 141    3.7688770891538e-06
 142    6.0369056790962e-06
 143    -1.1317056748951e-05
 144    -1.5845313689535e-05
 145    0.00012493474424597
 146    2.1099329449458e-05
 147    -1.0619644183629e-05
 148    -2.0097868235405e-05
 149    6.2025552629135e-05
 150    -2.7598541264452e-05
 151    -8.2449687259349e-05
 152    -9.6081810875566e-06
 153    -5.5553006184368e-06
 154    -3.1049412906703e-06
 155    5.2379231754519e-06
 156    -5.8592075121445e-06
 157    7.7434070946754e-07
 158    1.527806679658e-05
 159    -2.9224972309384e-05
 160    7.0408396919254e-06
 161    -3.0366051659004e-06
 162    1.1848505296473e-06
 163    -5.5514420904975e-05
 164    2.0597361657826e-05
 165    1.6688345346197e-05
 166    3.9747613782296e-06
 167    -1.742252784227e-06
 168    2.632718608176e-07
 169    6.4088284220108e-07
 170    1.4855667955452e-06
 171    -1.6962084072342e-06
 172    -1.2476828534421e-05
 173    2.8937524480905e-05
 174    -2.7129274089749e-06
 175    1.7932661576118e-06
 176    1.0473661764115e-05
 177    -9.3225157339977e-06
 178    1.7677684560053e-06
 179    -3.4900378733238e-05
 180    1.2641466893586e-06
 181    4.0069488810169e-06
 182    5.202193593371e-07
 183    -7.4527819702954e-07
 184    1.6283319180564e-06
 185    4.8807062333672e-07
 186    -3.6225759125106e-05
 187    4.4745940925222e-05
 188    3.2598975288395e-06
 189    4.6197277808762e-06
 190    2.5420383601419e-05
 191    6.0281259870366e-06
 192    -5.7603874368524e-06
 193    -5.0027985897141e-05
 194    3.793058416748e-06
 195    4.4811522795421e-07
 196    3.4763385336811e-06
 197    -4.7238377681266e-07
 198    3.5189147196781e-07
 199    -7.2775257270238e-06
 200    4.4949781612825e-07
 201    5.0042865611045e-06
 202    3.7467481483003e-05
 203    -1.3467287617922e-05
 204    -2.555659735397e-06
 205    2.7697485250549e-06
 206    -2.5803510967185e-05
 207    5.3963631605036e-06
 208    -6.2905400879421e-05
 209    8.0472372768153e-06
 210    -3.3389238635366e-05
 211    6.0567365199432e-06
 212    1.7049763327842e-05
 213    2.4890103946172e-06
 214    -1.7431643660193e-05
 215    -5.7993319048092e-06
 216    -4.6851139134234e-05
 217    4.1084606294481e-06
 218    1.5821606412686e-05
 219    -3.8358503690666e-07
 220    1.0741397547056e-06
 221    -8.9398225067704e-05
 222    6.6864500346126e-05
 223    0.0010034632203078
 224     0.000100930329211
 225    5.5658203694347e-05
 226    -0.00021030725784211
 227    0.00068751320691254
 228    0.00034498553607745
 229    -0.0010380668963168
 230    -1.5520914048979e-06
 231    -4.8860626464195e-05
 232    -2.054025288324e-05
 233    2.6333423891059e-05
 234    2.4886136935543e-05
 235    0.00014592101100458
 236    -0.00033394642941783
 237    -0.00052939167150204
 238    -0.00020520971029675
 239    -0.00017278170693542
 240    0.00056324662502863
 241    0.00021958474460024
 242    0.00031236405724984
 243    -0.0014081639860195
 244    3.4526471555545e-06
 245    6.8330905980235e-05
 246    1.2193236211194e-05
 247    1.5883757040675e-05
 248    -6.3916195705462e-06
 249    -1.8547229336893e-05
 250    0.00031766746388212
 251    -0.00034587302791078
 252    -0.00048138340265492
 253    0.0021846367525871
 254    -0.00048219206588642
 255    -0.00010459969294396
 256    -0.00018831331314749
 257    -0.00017839368566633
 258    0.00028698833252845
 259    -0.0019752952917163
 260    -8.4751395949656e-05
 261    -3.5754197397814e-05
 262    -1.0688793229301e-05
 263    0.00016327238178296
 264    9.0325600178976e-05
 265    -0.00026265772001542
 266    0.00017688404724225
 267    0.00020186078596427
 268    -0.00025201195347431
 269    -2.6750076057862e-05
 270    -0.00054737507032359
 271    0.0072745857693957
 272    -1.8813105433235e-05
 273    -0.00014738248766151
 274    9.3618828220647e-05
 275    -0.0012874994168376
 276    -0.0029091648304217
 277    0.0031911703729733
 278    0.00010415376142253
 279    -0.00018234895253152
 280    -0.00011160249575702
 281    -1.67207711928e-05