[Molden Format]
made by pyscf v[2.0.1]
[Atoms] (AU)
C   1   6     0.69100024066471     0.64692934207205    -3.48223131169301
H   2   1     2.68052439830868     1.13355088658700    -3.25784032593313
C   3   6    -0.36286361513219     0.85440132524594    -5.97030179418974
H   4   1    -2.35448549047279     0.36322488579172    -6.17995817793143
C   5   6     0.93697958957450     1.61209284601821    -8.05828437677121
H   6   1     2.82520634269342     2.40231158819155    -7.83223822317356
C   7   6    -0.04591716574067     1.43050675384137   -10.57963800872440
H   8   1    -1.93966227025444     0.63380613673234   -10.77641154630544
H   9   1     1.55630230933075    -1.92953025305990    12.99630010416247
C   10   6     0.75233899775814    -2.21270439606481    11.10705728102219
H   11   1    -0.43433408177274    -3.90944857546550    11.22216085340412
C   12   6     2.86362581178706    -2.63237380607947     9.17926416456045
H   13   1     4.39038949912609    -1.24955421540245     9.49899813497433
H   14   1     3.74629220191363    -4.48798724300892     9.47414880959024
C   15   6     2.02478325613682    -2.42177285709634     6.44560829588644
C   16   6     3.88048732735477    -3.58795445234514     4.61402886975252
C   17   6    -0.18412382258602    -1.30464291234259     5.76021113872346
C   18   6    -2.10044360464350    -0.26837831858460     7.71610340967100
C   19   6    -3.08956938670431     2.35282328359417     6.88693925039594
C   20   6    -4.37372924086464    -2.09766595989678     7.93610724222001
C   21   6    -0.83850430601230     0.06372213486173    10.33002307638377
H   22   1     0.38411922151109     1.74281358582432    10.27380136542181
H   23   1    -2.30980003007874     0.45460143924521    11.73986301809809
H   24   1     4.58527064644668    -5.38706904487420     5.36778158031719
H   25   1     5.54944938085014    -2.37631462192748     4.35398898413318
H   26   1     3.06633019150423    -3.94118377050688     2.75255466040884
H   27   1    -4.17727778763735     2.26573369139522     5.12914900961283
H   28   1    -1.52662344944051     3.68001877445626     6.59540397144508
H   29   1    -4.32916174397830     3.13643051467482     8.35225460090378
H   30   1    -5.32329548508442    -2.36691813602939     6.11583672749896
H   31   1    -5.77989366602257    -1.33896741843465     9.25748940450990
H   32   1    -3.79310905208926    -3.96389819310853     8.61386170102686
C   33   6    -1.01100794811226    -1.06331657314144     3.11929490449947
C   34   6     0.37686231036534    -0.33275864505552     1.09165013605873
H   35   1    -3.01671213906703    -1.40297922279997     2.77827895090944
C   36   6    -0.64382707979370    -0.11591880174385    -1.42063131251064
H   37   1     2.35569259782137     0.17174499283897     1.33641070251401
H   38   1    -2.63317482980319    -0.60229203511219    -1.66119700387645
C   39   6     1.17709071185639     2.16235266520763   -12.71162929579923
C   40   6     0.01149368127442     1.89967079998079   -15.19747007607967
H   41   1     3.06674924318564     2.97042403350516   -12.64854490967844
O   42   8     1.00001917973751     2.51860460578581   -17.18758625638360
H   43   1    -1.92257659968242     1.06364005135718   -15.17290072571517
[GTO]
1 0
 s    6 1.00
             3047.5249  0.0018347001629433
             457.36951    0.01403730124668
             103.94869   0.068842606114048
             29.210155    0.23218442062076
              9.286663    0.46794134155879
              3.163927    0.36231203217765
 s    3 1.00
             7.8682724   -0.11933240861517
             1.8812885   -0.16085421161283
             0.5442493     1.1434564825515
 s    1 1.00
             0.1687144                   1
 p    3 1.00
             7.8682724   0.068999095584993
             1.8812885    0.31642397975315
             0.5442493    0.74430825237435
 p    1 1.00
             0.1687144                   1
 d    1 1.00
                   0.8                   1

2 0
 s    3 1.00
             18.731137    0.03349459952309
             2.8253937    0.23472694665786
             0.6401217    0.81375731841339
 s    1 1.00
             0.1612778                   1

3 0
 s    6 1.00
             3047.5249  0.0018347001629433
             457.36951    0.01403730124668
             103.94869   0.068842606114048
             29.210155    0.23218442062076
              9.286663    0.46794134155879
              3.163927    0.36231203217765
 s    3 1.00
             7.8682724   -0.11933240861517
             1.8812885   -0.16085421161283
             0.5442493     1.1434564825515
 s    1 1.00
             0.1687144                   1
 p    3 1.00
             7.8682724   0.068999095584993
             1.8812885    0.31642397975315
             0.5442493    0.74430825237435
 p    1 1.00
             0.1687144                   1
 d    1 1.00
                   0.8                   1

4 0
 s    3 1.00
             18.731137    0.03349459952309
             2.8253937    0.23472694665786
             0.6401217    0.81375731841339
 s    1 1.00
             0.1612778                   1

5 0
 s    6 1.00
             3047.5249  0.0018347001629433
             457.36951    0.01403730124668
             103.94869   0.068842606114048
             29.210155    0.23218442062076
              9.286663    0.46794134155879
              3.163927    0.36231203217765
 s    3 1.00
             7.8682724   -0.11933240861517
             1.8812885   -0.16085421161283
             0.5442493     1.1434564825515
 s    1 1.00
             0.1687144                   1
 p    3 1.00
             7.8682724   0.068999095584993
             1.8812885    0.31642397975315
             0.5442493    0.74430825237435
 p    1 1.00
             0.1687144                   1
 d    1 1.00
                   0.8                   1

6 0
 s    3 1.00
             18.731137    0.03349459952309
             2.8253937    0.23472694665786
             0.6401217    0.81375731841339
 s    1 1.00
             0.1612778                   1

7 0
 s    6 1.00
             3047.5249  0.0018347001629433
             457.36951    0.01403730124668
             103.94869   0.068842606114048
             29.210155    0.23218442062076
              9.286663    0.46794134155879
              3.163927    0.36231203217765
 s    3 1.00
             7.8682724   -0.11933240861517
             1.8812885   -0.16085421161283
             0.5442493     1.1434564825515
 s    1 1.00
             0.1687144                   1
 p    3 1.00
             7.8682724   0.068999095584993
             1.8812885    0.31642397975315
             0.5442493    0.74430825237435
 p    1 1.00
             0.1687144                   1
 d    1 1.00
                   0.8                   1

8 0
 s    3 1.00
             18.731137    0.03349459952309
             2.8253937    0.23472694665786
             0.6401217    0.81375731841339
 s    1 1.00
             0.1612778                   1

9 0
 s    3 1.00
             18.731137    0.03349459952309
             2.8253937    0.23472694665786
             0.6401217    0.81375731841339
 s    1 1.00
             0.1612778                   1

10 0
 s    6 1.00
             3047.5249  0.0018347001629433
             457.36951    0.01403730124668
             103.94869   0.068842606114048
             29.210155    0.23218442062076
              9.286663    0.46794134155879
              3.163927    0.36231203217765
 s    3 1.00
             7.8682724   -0.11933240861517
             1.8812885   -0.16085421161283
             0.5442493     1.1434564825515
 s    1 1.00
             0.1687144                   1
 p    3 1.00
             7.8682724   0.068999095584993
             1.8812885    0.31642397975315
             0.5442493    0.74430825237435
 p    1 1.00
             0.1687144                   1
 d    1 1.00
                   0.8                   1

11 0
 s    3 1.00
             18.731137    0.03349459952309
             2.8253937    0.23472694665786
             0.6401217    0.81375731841339
 s    1 1.00
             0.1612778                   1

12 0
 s    6 1.00
             3047.5249  0.0018347001629433
             457.36951    0.01403730124668
             103.94869   0.068842606114048
             29.210155    0.23218442062076
              9.286663    0.46794134155879
              3.163927    0.36231203217765
 s    3 1.00
             7.8682724   -0.11933240861517
             1.8812885   -0.16085421161283
             0.5442493     1.1434564825515
 s    1 1.00
             0.1687144                   1
 p    3 1.00
             7.8682724   0.068999095584993
             1.8812885    0.31642397975315
             0.5442493    0.74430825237435
 p    1 1.00
             0.1687144                   1
 d    1 1.00
                   0.8                   1

13 0
 s    3 1.00
             18.731137    0.03349459952309
             2.8253937    0.23472694665786
             0.6401217    0.81375731841339
 s    1 1.00
             0.1612778                   1

14 0
 s    3 1.00
             18.731137    0.03349459952309
             2.8253937    0.23472694665786
             0.6401217    0.81375731841339
 s    1 1.00
             0.1612778                   1

15 0
 s    6 1.00
             3047.5249  0.0018347001629433
             457.36951    0.01403730124668
             103.94869   0.068842606114048
             29.210155    0.23218442062076
              9.286663    0.46794134155879
              3.163927    0.36231203217765
 s    3 1.00
             7.8682724   -0.11933240861517
             1.8812885   -0.16085421161283
             0.5442493     1.1434564825515
 s    1 1.00
             0.1687144                   1
 p    3 1.00
             7.8682724   0.068999095584993
             1.8812885    0.31642397975315
             0.5442493    0.74430825237435
 p    1 1.00
             0.1687144                   1
 d    1 1.00
                   0.8                   1

16 0
 s    6 1.00
             3047.5249  0.0018347001629433
             457.36951    0.01403730124668
             103.94869   0.068842606114048
             29.210155    0.23218442062076
              9.286663    0.46794134155879
              3.163927    0.36231203217765
 s    3 1.00
             7.8682724   -0.11933240861517
             1.8812885   -0.16085421161283
             0.5442493     1.1434564825515
 s    1 1.00
             0.1687144                   1
 p    3 1.00
             7.8682724   0.068999095584993
             1.8812885    0.31642397975315
             0.5442493    0.74430825237435
 p    1 1.00
             0.1687144                   1
 d    1 1.00
                   0.8                   1

17 0
 s    6 1.00
             3047.5249  0.0018347001629433
             457.36951    0.01403730124668
             103.94869   0.068842606114048
             29.210155    0.23218442062076
              9.286663    0.46794134155879
              3.163927    0.36231203217765
 s    3 1.00
             7.8682724   -0.11933240861517
             1.8812885   -0.16085421161283
             0.5442493     1.1434564825515
 s    1 1.00
             0.1687144                   1
 p    3 1.00
             7.8682724   0.068999095584993
             1.8812885    0.31642397975315
             0.5442493    0.74430825237435
 p    1 1.00
             0.1687144                   1
 d    1 1.00
                   0.8                   1

18 0
 s    6 1.00
             3047.5249  0.0018347001629433
             457.36951    0.01403730124668
             103.94869   0.068842606114048
             29.210155    0.23218442062076
              9.286663    0.46794134155879
              3.163927    0.36231203217765
 s    3 1.00
             7.8682724   -0.11933240861517
             1.8812885   -0.16085421161283
             0.5442493     1.1434564825515
 s    1 1.00
             0.1687144                   1
 p    3 1.00
             7.8682724   0.068999095584993
             1.8812885    0.31642397975315
             0.5442493    0.74430825237435
 p    1 1.00
             0.1687144                   1
 d    1 1.00
                   0.8                   1

19 0
 s    6 1.00
             3047.5249  0.0018347001629433
             457.36951    0.01403730124668
             103.94869   0.068842606114048
             29.210155    0.23218442062076
              9.286663    0.46794134155879
              3.163927    0.36231203217765
 s    3 1.00
             7.8682724   -0.11933240861517
             1.8812885   -0.16085421161283
             0.5442493     1.1434564825515
 s    1 1.00
             0.1687144                   1
 p    3 1.00
             7.8682724   0.068999095584993
             1.8812885    0.31642397975315
             0.5442493    0.74430825237435
 p    1 1.00
             0.1687144                   1
 d    1 1.00
                   0.8                   1

20 0
 s    6 1.00
             3047.5249  0.0018347001629433
             457.36951    0.01403730124668
             103.94869   0.068842606114048
             29.210155    0.23218442062076
              9.286663    0.46794134155879
              3.163927    0.36231203217765
 s    3 1.00
             7.8682724   -0.11933240861517
             1.8812885   -0.16085421161283
             0.5442493     1.1434564825515
 s    1 1.00
             0.1687144                   1
 p    3 1.00
             7.8682724   0.068999095584993
             1.8812885    0.31642397975315
             0.5442493    0.74430825237435
 p    1 1.00
             0.1687144                   1
 d    1 1.00
                   0.8                   1

21 0
 s    6 1.00
             3047.5249  0.0018347001629433
             457.36951    0.01403730124668
             103.94869   0.068842606114048
             29.210155    0.23218442062076
              9.286663    0.46794134155879
              3.163927    0.36231203217765
 s    3 1.00
             7.8682724   -0.11933240861517
             1.8812885   -0.16085421161283
             0.5442493     1.1434564825515
 s    1 1.00
             0.1687144                   1
 p    3 1.00
             7.8682724   0.068999095584993
             1.8812885    0.31642397975315
             0.5442493    0.74430825237435
 p    1 1.00
             0.1687144                   1
 d    1 1.00
                   0.8                   1

22 0
 s    3 1.00
             18.731137    0.03349459952309
             2.8253937    0.23472694665786
             0.6401217    0.81375731841339
 s    1 1.00
             0.1612778                   1

23 0
 s    3 1.00
             18.731137    0.03349459952309
             2.8253937    0.23472694665786
             0.6401217    0.81375731841339
 s    1 1.00
             0.1612778                   1

24 0
 s    3 1.00
             18.731137    0.03349459952309
             2.8253937    0.23472694665786
             0.6401217    0.81375731841339
 s    1 1.00
             0.1612778                   1

25 0
 s    3 1.00
             18.731137    0.03349459952309
             2.8253937    0.23472694665786
             0.6401217    0.81375731841339
 s    1 1.00
             0.1612778                   1

26 0
 s    3 1.00
             18.731137    0.03349459952309
             2.8253937    0.23472694665786
             0.6401217    0.81375731841339
 s    1 1.00
             0.1612778                   1

27 0
 s    3 1.00
             18.731137    0.03349459952309
             2.8253937    0.23472694665786
             0.6401217    0.81375731841339
 s    1 1.00
             0.1612778                   1

28 0
 s    3 1.00
             18.731137    0.03349459952309
             2.8253937    0.23472694665786
             0.6401217    0.81375731841339
 s    1 1.00
             0.1612778                   1

29 0
 s    3 1.00
             18.731137    0.03349459952309
             2.8253937    0.23472694665786
             0.6401217    0.81375731841339
 s    1 1.00
             0.1612778                   1

30 0
 s    3 1.00
             18.731137    0.03349459952309
             2.8253937    0.23472694665786
             0.6401217    0.81375731841339
 s    1 1.00
             0.1612778                   1

31 0
 s    3 1.00
             18.731137    0.03349459952309
             2.8253937    0.23472694665786
             0.6401217    0.81375731841339
 s    1 1.00
             0.1612778                   1

32 0
 s    3 1.00
             18.731137    0.03349459952309
             2.8253937    0.23472694665786
             0.6401217    0.81375731841339
 s    1 1.00
             0.1612778                   1

33 0
 s    6 1.00
             3047.5249  0.0018347001629433
             457.36951    0.01403730124668
             103.94869   0.068842606114048
             29.210155    0.23218442062076
              9.286663    0.46794134155879
              3.163927    0.36231203217765
 s    3 1.00
             7.8682724   -0.11933240861517
             1.8812885   -0.16085421161283
             0.5442493     1.1434564825515
 s    1 1.00
             0.1687144                   1
 p    3 1.00
             7.8682724   0.068999095584993
             1.8812885    0.31642397975315
             0.5442493    0.74430825237435
 p    1 1.00
             0.1687144                   1
 d    1 1.00
                   0.8                   1

34 0
 s    6 1.00
             3047.5249  0.0018347001629433
             457.36951    0.01403730124668
             103.94869   0.068842606114048
             29.210155    0.23218442062076
              9.286663    0.46794134155879
              3.163927    0.36231203217765
 s    3 1.00
             7.8682724   -0.11933240861517
             1.8812885   -0.16085421161283
             0.5442493     1.1434564825515
 s    1 1.00
             0.1687144                   1
 p    3 1.00
             7.8682724   0.068999095584993
             1.8812885    0.31642397975315
             0.5442493    0.74430825237435
 p    1 1.00
             0.1687144                   1
 d    1 1.00
                   0.8                   1

35 0
 s    3 1.00
             18.731137    0.03349459952309
             2.8253937    0.23472694665786
             0.6401217    0.81375731841339
 s    1 1.00
             0.1612778                   1

36 0
 s    6 1.00
             3047.5249  0.0018347001629433
             457.36951    0.01403730124668
             103.94869   0.068842606114048
             29.210155    0.23218442062076
              9.286663    0.46794134155879
              3.163927    0.36231203217765
 s    3 1.00
             7.8682724   -0.11933240861517
             1.8812885   -0.16085421161283
             0.5442493     1.1434564825515
 s    1 1.00
             0.1687144                   1
 p    3 1.00
             7.8682724   0.068999095584993
             1.8812885    0.31642397975315
             0.5442493    0.74430825237435
 p    1 1.00
             0.1687144                   1
 d    1 1.00
                   0.8                   1

37 0
 s    3 1.00
             18.731137    0.03349459952309
             2.8253937    0.23472694665786
             0.6401217    0.81375731841339
 s    1 1.00
             0.1612778                   1

38 0
 s    3 1.00
             18.731137    0.03349459952309
             2.8253937    0.23472694665786
             0.6401217    0.81375731841339
 s    1 1.00
             0.1612778                   1

39 0
 s    6 1.00
             3047.5249  0.0018347001629433
             457.36951    0.01403730124668
             103.94869   0.068842606114048
             29.210155    0.23218442062076
              9.286663    0.46794134155879
              3.163927    0.36231203217765
 s    3 1.00
             7.8682724   -0.11933240861517
             1.8812885   -0.16085421161283
             0.5442493     1.1434564825515
 s    1 1.00
             0.1687144                   1
 p    3 1.00
             7.8682724   0.068999095584993
             1.8812885    0.31642397975315
             0.5442493    0.74430825237435
 p    1 1.00
             0.1687144                   1
 d    1 1.00
                   0.8                   1

40 0
 s    6 1.00
             3047.5249  0.0018347001629433
             457.36951    0.01403730124668
             103.94869   0.068842606114048
             29.210155    0.23218442062076
              9.286663    0.46794134155879
              3.163927    0.36231203217765
 s    3 1.00
             7.8682724   -0.11933240861517
             1.8812885   -0.16085421161283
             0.5442493     1.1434564825515
 s    1 1.00
             0.1687144                   1
 p    3 1.00
             7.8682724   0.068999095584993
             1.8812885    0.31642397975315
             0.5442493    0.74430825237435
 p    1 1.00
             0.1687144                   1
 d    1 1.00
                   0.8                   1

41 0
 s    3 1.00
             18.731137    0.03349459952309
             2.8253937    0.23472694665786
             0.6401217    0.81375731841339
 s    1 1.00
             0.1612778                   1

42 0
 s    6 1.00
             5484.6717   0.001831099805527
             825.23495   0.013950098518422
             188.04696    0.06844509273075
               52.9645    0.23271427528445
              16.89757    0.47019295006289
             5.7996353    0.35852086192309
 s    3 1.00
             15.539616   -0.11077750382508
             3.5999336   -0.14802630511126
             1.0137618     1.1307670390447
 s    1 1.00
             0.2700058                   1
 p    3 1.00
             15.539616   0.070874299543311
             3.5999336    0.33975279781076
             1.0137618    0.72715859531445
 p    1 1.00
             0.2700058                   1
 d    1 1.00
                   0.8                   1

43 0
 s    3 1.00
             18.731137    0.03349459952309
             2.8253937    0.23472694665786
             0.6401217    0.81375731841339
 s    1 1.00
             0.1612778                   1

[5d]
[7f]
[9g]

[MO]
 Sym= A
 Ene=               0
 Spin= Alpha
 Occup=    1.00000
   1    -0.0041322097804752
   2    -7.073575951298e-05
   3    -0.00055130657697082
   4    1.3817047437085e-05
   5    3.1507801314482e-05
   6    -4.2478332974084e-05
   7    -7.0581177815162e-05
   8    -0.00040273547836623
   9    0.0015644087136946
  10    -2.1684946416429e-06
  11    -3.3782459148374e-05
  12    -7.7467719233358e-06
  13    -1.1317314423172e-05
  14    7.5849942728458e-07
  15    8.5210726577463e-05
  16    -0.000118326360329
  17    -0.022859798721598
  18    -0.00054347240633962
  19    0.00017323271425435
  20    -8.5576298238931e-05
  21    -2.3197155794454e-06
  22    -0.00020842301813215
  23    0.00068305965180912
  24    -8.0783936668618e-05
  25    0.0013920929658769
  26    6.3632200803427e-05
  27    8.2525402861876e-06
  28    -3.7669450805441e-06
  29    -0.00011394894189814
  30    -0.00011644730311232
  31    0.00018596692026282
  32    0.0005012527805216
  33    -0.011918550341511
  34    0.0013504557360262
  35    -0.0082021295507733
  36    -0.00041106457634168
  37    -5.1986436006623e-05
  38    -0.0013042949214832
  39    -0.00014453024913335
  40    -0.00045906161920199
  41    0.0044385937609465
  42    0.0011116924982433
  43    0.00093352955399839
  44    0.00019679294127811
  45    0.0002226060864416
  46    0.00010320187277505
  47    0.00047764686487786
  48    0.00066004006161794
  49     -0.99467627105954
  50     -0.03808017660383
  51     0.031485522648893
  52    -0.00056763281468894
  53    -0.00020188528344035
  54    -0.00027903802064064
  55    0.0036406123250882
  56    0.0015390161443226
  57    0.00032381873558407
  58    -0.00088965807364178
  59    0.00035151982990416
  60    0.00033172748002027
  61    -0.00018731851642326
  62    -0.00025642993265269
  63     0.001240121997075
  64    -0.0044966173768105
  65    8.7919470479685e-07
  66    1.2689340056894e-06
  67    -4.0611781258085e-08
  68    9.0996857599244e-07
  69    -3.3048933146162e-06
  70    -6.9104482046438e-07
  71    1.0643705628606e-06
  72    -1.0290540104168e-08
  73    -2.7846587538589e-06
  74    -3.9619921323863e-06
  75    -1.4611379999773e-06
  76    8.7764868019408e-08
  77    1.7329066255016e-07
  78    -1.7273663920494e-07
  79    -1.6954474929306e-07
  80    1.7051794968625e-07
  81    -4.920269761188e-07
  82    -1.0519610157097e-06
  83    -3.7098689544519e-07
  84    1.322585557949e-06
  85    2.7879115555007e-05
  86    -1.6335460158774e-06
  87    6.3067539520912e-07
  88    -3.6204285763844e-06
  89    -7.4376508029866e-06
  90    1.259657663837e-05
  91    -6.6494908082884e-06
  92    -4.7934438928247e-07
  93    6.7021956160687e-07
  94    -6.3608925923562e-07
  95    3.7650437701035e-08
  96    4.4044043179766e-07
  97    -9.212150364444e-07
  98    -1.6301574906278e-06
  99    -7.3510638928017e-07
 100    2.3500373112732e-06
 101    8.1168906687039e-07
 102    -5.8900740602019e-07
 103    -2.3273856635864e-05
 104    2.7625281645874e-07
 105    -1.7938604818043e-06
 106    2.7135115549986e-06
 107    4.7501275252204e-05
 108    -4.361392420362e-05
 109    -6.7549042776467e-05
 110    1.7891845490442e-06
 111    8.1456498939941e-07
 112    -4.3508989927379e-07
 113    -1.2880595225839e-07
 114    1.3646343204429e-06
 115    1.5518056413643e-06
 116    9.6109630625649e-06
 117    -7.7809831179013e-05
 118    1.0457069683537e-06
 119    -4.9242920927421e-07
 120    -2.4667189545734e-06
 121    2.1443070704436e-05
 122    -1.5209072823036e-05
 123    -9.2957749616682e-06
 124    1.0663667894943e-07
 125    9.6054579238933e-07
 126    -2.9049981295876e-07
 127    -7.3573336612276e-07
 128    8.1134455729683e-07
 129    2.3124676797063e-07
 130    1.8336366441553e-05
 131    -9.8042111978514e-05
 132    -6.5078801972499e-06
 133    -2.7589670558372e-06
 134    -1.3174782956959e-05
 135    5.1422020215154e-05
 136    -7.0139628713436e-07
 137    0.00016558399415074
 138    -4.3775104535022e-06
 139    -3.3155195162242e-06
 140    -3.5466092681084e-07
 141    -8.89581208737e-07
 142    -6.5898716830576e-07
 143    1.2628866837698e-06
 144    1.043907293827e-05
 145    -4.6442162977933e-05
 146    -1.2877286042058e-06
 147    -1.8478734237216e-07
 148    -2.6784787088166e-06
 149    -2.0367043768389e-05
 150    9.0597907983978e-06
 151    2.6962893627148e-05
 152    2.2369483128906e-06
 153    1.4542901305937e-06
 154    6.1002259807026e-07
 155    -1.5163922202591e-06
 156    1.8113948255063e-06
 157    -5.5915557841769e-07
 158    -2.7093574282486e-06
 159    1.0232747746932e-05
 160    -1.2848097736346e-06
 161    -6.8000994888101e-07
 162    3.2085600722428e-07
 163    1.3621582062492e-05
 164    -5.0937887221581e-06
 165    -6.0527760996034e-06
 166    -1.3866136470714e-06
 167    6.8648140849467e-07
 168    1.8218000922132e-07
 169    -1.3028193713412e-07
 170    -5.6535520584838e-07
 171    1.8136009332307e-07
 172    1.7093716453094e-07
 173    9.2104777416368e-06
 174    1.1787359934452e-06
 175    1.6376729044906e-07
 176    -3.0292447179765e-06
 177    -6.1459877104181e-06
 178    -3.4862017583153e-06
 179    -7.4552283205195e-07
 180    -1.3300556681524e-08
 181    -9.0033794375752e-07
 182    -3.5938144305192e-07
 183    6.2277805899331e-07
 184    -5.7972365468706e-07
 185    4.9260000677817e-07
 186    7.851322274587e-06
 187    -1.6967631777327e-05
 188    4.1234591994429e-07
 189    8.389556102489e-08
 190    -2.6817064088729e-06
 191    -1.6350991535722e-06
 192    1.5896040827038e-06
 193    1.5257128585922e-05
 194    -7.8032606227219e-07
 195    -2.1280812240514e-07
 196    -7.3427719040051e-07
 197    -1.8596099972972e-07
 198    1.523941526268e-07
 199    1.9410449925059e-06
 200    1.7646834743716e-06
 201    3.874209195862e-08
 202    -6.6802463760747e-06
 203    2.3357472865033e-06
 204    -2.8764835570285e-06
 205    1.3265778187179e-06
 206    8.1818955929143e-06
 207    -8.1722311812297e-08
 208    1.0790833811859e-05
 209    -2.2940797757799e-06
 210    4.6599992981667e-06
 211    -1.9435324845896e-06
 212    -5.200801286903e-06
 213    2.1283509848028e-08
 214    4.9607505205262e-06
 215    2.9795003738398e-06
 216    -1.1824087127062e-05
 217    -1.0724380461685e-06
 218    -3.629248987909e-06
 219    -1.0039239500805e-06
 220    -1.1174934582804e-06
 221    9.558870375386e-06
 222    1.3295015889321e-05
 223    -0.00011970136388498
 224    -3.9197650268493e-06
 225    -3.178681499341e-06
 226    1.0429701113674e-05
 227    -3.8067259548647e-05
 228    -6.3085690107326e-05
 229    0.0002694257099633
 230    -1.3892318457768e-07
 231    1.1037891903281e-05
 232    4.2098655259342e-06
 233    -6.2494961140943e-06
 234    -5.2439993601603e-06
 235    -6.6007645623725e-06
 236    4.2884213236453e-05
 237    0.00014581394331667
 238    1.5408616304483e-05
 239    1.5596733198664e-05
 240    -4.6104755160721e-05
 241    -9.6950594835974e-06
 242    -4.286552268248e-05
 243    0.00018553221590845
 244    7.2240488203297e-07
 245    -1.5434389456759e-05
 246    -1.222653887396e-06
 247    -7.2543194172559e-06
 248    2.8917854748077e-07
 249    2.9404611848239e-06
 250    5.617814286388e-07
 251    4.0859580005477e-05
 252    0.00010738998442232
 253    -0.00081951461986557
 254    -2.2299800705839e-05
 255    -1.0861562340361e-05
 256    1.2921911471813e-05
 257    -0.00051394283651458
 258    -0.00019458423121806
 259    0.00050274385910494
 260    -2.3329568877334e-06
 261    2.8823291977043e-05
 262    9.1696201327094e-06
 263    -1.6467139875577e-05
 264    -1.1328861713447e-05
 265    2.5997028774278e-05
 266    -3.2005580893165e-05
 267    5.6630588074647e-05
 268    -0.00019231813686122
 269    0.00016704233345936
 270    -0.0001672763557235
 271    -0.011426741540264
 272    -0.002655777831871
 273    -0.0014377276447026
 274    0.0031495324013094
 275    -0.00036072187225385
 276    0.00020855792462014
 277    -0.0037900617124228
 278    0.00074688547412725
 279    -0.0011757116600775
 280    -0.00067013301496605