[Molden Format]
made by pyscf v[2.0.1]
[Atoms] (AU)
C   1   6     0.69100024066471     0.64692934207205    -3.48223131169301
H   2   1     2.68052439830868     1.13355088658700    -3.25784032593313
C   3   6    -0.36286361513219     0.85440132524594    -5.97030179418974
H   4   1    -2.35448549047279     0.36322488579172    -6.17995817793143
C   5   6     0.93697958957450     1.61209284601821    -8.05828437677121
H   6   1     1.01317567978386     3.61775130597871    -8.51923024455703
C   7   6     2.23318006711868    -0.09916996805052    -9.71591146992396
H   8   1     2.14101227267567    -2.10272353634710    -9.22908458474476
H   9   1     1.55630230933075    -1.92953025305990    12.99630010416247
C   10   6     0.75233899775814    -2.21270439606481    11.10705728102219
H   11   1    -0.43433408177274    -3.90944857546550    11.22216085340412
C   12   6     2.86362581178706    -2.63237380607947     9.17926416456045
H   13   1     4.39038949912609    -1.24955421540245     9.49899813497433
H   14   1     3.74629220191363    -4.48798724300892     9.47414880959024
C   15   6     2.02478325613682    -2.42177285709634     6.44560829588644
C   16   6     3.88048732735477    -3.58795445234514     4.61402886975252
C   17   6    -0.18412382258602    -1.30464291234259     5.76021113872346
C   18   6    -2.10044360464350    -0.26837831858460     7.71610340967100
C   19   6    -3.08956938670431     2.35282328359417     6.88693925039594
C   20   6    -4.37372924086464    -2.09766595989678     7.93610724222001
C   21   6    -0.83850430601230     0.06372213486173    10.33002307638377
H   22   1     0.38411922151109     1.74281358582432    10.27380136542181
H   23   1    -2.30980003007874     0.45460143924521    11.73986301809809
H   24   1     4.58527064644668    -5.38706904487420     5.36778158031719
H   25   1     5.54944938085014    -2.37631462192748     4.35398898413318
H   26   1     3.06633019150423    -3.94118377050688     2.75255466040884
H   27   1    -4.17727778763735     2.26573369139522     5.12914900961283
H   28   1    -1.52662344944051     3.68001877445626     6.59540397144508
H   29   1    -4.32916174397830     3.13643051467482     8.35225460090378
H   30   1    -5.32329548508442    -2.36691813602939     6.11583672749896
H   31   1    -5.77989366602257    -1.33896741843465     9.25748940450990
H   32   1    -3.79310905208926    -3.96389819310853     8.61386170102686
C   33   6    -1.01100794811226    -1.06331657314144     3.11929490449947
C   34   6     0.37686231036534    -0.33275864505552     1.09165013605873
H   35   1    -3.01671213906703    -1.40297922279997     2.77827895090944
C   36   6    -0.64382707979370    -0.11591880174385    -1.42063131251064
H   37   1     2.35569259782137     0.17174499283897     1.33641070251401
H   38   1    -2.63317482980319    -0.60229203511219    -1.66119700387645
C   39   6     3.54725246111133     0.56802416581284   -11.81467283923754
C   40   6     4.80361465317200    -1.32115012773234   -13.38298311351627
H   41   1     3.71304591439982     2.53035338251259   -12.40589607739641
O   42   8     6.01278787963721    -0.85546385399510   -15.29134904549642
H   43   1     4.58468921437884    -3.30497271823068   -12.70718839688766
[GTO]
1 0
 s    6 1.00
             3047.5249  0.0018347001629433
             457.36951    0.01403730124668
             103.94869   0.068842606114048
             29.210155    0.23218442062076
              9.286663    0.46794134155879
              3.163927    0.36231203217765
 s    3 1.00
             7.8682724   -0.11933240861517
             1.8812885   -0.16085421161283
             0.5442493     1.1434564825515
 s    1 1.00
             0.1687144                   1
 p    3 1.00
             7.8682724   0.068999095584993
             1.8812885    0.31642397975315
             0.5442493    0.74430825237435
 p    1 1.00
             0.1687144                   1
 d    1 1.00
                   0.8                   1

2 0
 s    3 1.00
             18.731137    0.03349459952309
             2.8253937    0.23472694665786
             0.6401217    0.81375731841339
 s    1 1.00
             0.1612778                   1

3 0
 s    6 1.00
             3047.5249  0.0018347001629433
             457.36951    0.01403730124668
             103.94869   0.068842606114048
             29.210155    0.23218442062076
              9.286663    0.46794134155879
              3.163927    0.36231203217765
 s    3 1.00
             7.8682724   -0.11933240861517
             1.8812885   -0.16085421161283
             0.5442493     1.1434564825515
 s    1 1.00
             0.1687144                   1
 p    3 1.00
             7.8682724   0.068999095584993
             1.8812885    0.31642397975315
             0.5442493    0.74430825237435
 p    1 1.00
             0.1687144                   1
 d    1 1.00
                   0.8                   1

4 0
 s    3 1.00
             18.731137    0.03349459952309
             2.8253937    0.23472694665786
             0.6401217    0.81375731841339
 s    1 1.00
             0.1612778                   1

5 0
 s    6 1.00
             3047.5249  0.0018347001629433
             457.36951    0.01403730124668
             103.94869   0.068842606114048
             29.210155    0.23218442062076
              9.286663    0.46794134155879
              3.163927    0.36231203217765
 s    3 1.00
             7.8682724   -0.11933240861517
             1.8812885   -0.16085421161283
             0.5442493     1.1434564825515
 s    1 1.00
             0.1687144                   1
 p    3 1.00
             7.8682724   0.068999095584993
             1.8812885    0.31642397975315
             0.5442493    0.74430825237435
 p    1 1.00
             0.1687144                   1
 d    1 1.00
                   0.8                   1

6 0
 s    3 1.00
             18.731137    0.03349459952309
             2.8253937    0.23472694665786
             0.6401217    0.81375731841339
 s    1 1.00
             0.1612778                   1

7 0
 s    6 1.00
             3047.5249  0.0018347001629433
             457.36951    0.01403730124668
             103.94869   0.068842606114048
             29.210155    0.23218442062076
              9.286663    0.46794134155879
              3.163927    0.36231203217765
 s    3 1.00
             7.8682724   -0.11933240861517
             1.8812885   -0.16085421161283
             0.5442493     1.1434564825515
 s    1 1.00
             0.1687144                   1
 p    3 1.00
             7.8682724   0.068999095584993
             1.8812885    0.31642397975315
             0.5442493    0.74430825237435
 p    1 1.00
             0.1687144                   1
 d    1 1.00
                   0.8                   1

8 0
 s    3 1.00
             18.731137    0.03349459952309
             2.8253937    0.23472694665786
             0.6401217    0.81375731841339
 s    1 1.00
             0.1612778                   1

9 0
 s    3 1.00
             18.731137    0.03349459952309
             2.8253937    0.23472694665786
             0.6401217    0.81375731841339
 s    1 1.00
             0.1612778                   1

10 0
 s    6 1.00
             3047.5249  0.0018347001629433
             457.36951    0.01403730124668
             103.94869   0.068842606114048
             29.210155    0.23218442062076
              9.286663    0.46794134155879
              3.163927    0.36231203217765
 s    3 1.00
             7.8682724   -0.11933240861517
             1.8812885   -0.16085421161283
             0.5442493     1.1434564825515
 s    1 1.00
             0.1687144                   1
 p    3 1.00
             7.8682724   0.068999095584993
             1.8812885    0.31642397975315
             0.5442493    0.74430825237435
 p    1 1.00
             0.1687144                   1
 d    1 1.00
                   0.8                   1

11 0
 s    3 1.00
             18.731137    0.03349459952309
             2.8253937    0.23472694665786
             0.6401217    0.81375731841339
 s    1 1.00
             0.1612778                   1

12 0
 s    6 1.00
             3047.5249  0.0018347001629433
             457.36951    0.01403730124668
             103.94869   0.068842606114048
             29.210155    0.23218442062076
              9.286663    0.46794134155879
              3.163927    0.36231203217765
 s    3 1.00
             7.8682724   -0.11933240861517
             1.8812885   -0.16085421161283
             0.5442493     1.1434564825515
 s    1 1.00
             0.1687144                   1
 p    3 1.00
             7.8682724   0.068999095584993
             1.8812885    0.31642397975315
             0.5442493    0.74430825237435
 p    1 1.00
             0.1687144                   1
 d    1 1.00
                   0.8                   1

13 0
 s    3 1.00
             18.731137    0.03349459952309
             2.8253937    0.23472694665786
             0.6401217    0.81375731841339
 s    1 1.00
             0.1612778                   1

14 0
 s    3 1.00
             18.731137    0.03349459952309
             2.8253937    0.23472694665786
             0.6401217    0.81375731841339
 s    1 1.00
             0.1612778                   1

15 0
 s    6 1.00
             3047.5249  0.0018347001629433
             457.36951    0.01403730124668
             103.94869   0.068842606114048
             29.210155    0.23218442062076
              9.286663    0.46794134155879
              3.163927    0.36231203217765
 s    3 1.00
             7.8682724   -0.11933240861517
             1.8812885   -0.16085421161283
             0.5442493     1.1434564825515
 s    1 1.00
             0.1687144                   1
 p    3 1.00
             7.8682724   0.068999095584993
             1.8812885    0.31642397975315
             0.5442493    0.74430825237435
 p    1 1.00
             0.1687144                   1
 d    1 1.00
                   0.8                   1

16 0
 s    6 1.00
             3047.5249  0.0018347001629433
             457.36951    0.01403730124668
             103.94869   0.068842606114048
             29.210155    0.23218442062076
              9.286663    0.46794134155879
              3.163927    0.36231203217765
 s    3 1.00
             7.8682724   -0.11933240861517
             1.8812885   -0.16085421161283
             0.5442493     1.1434564825515
 s    1 1.00
             0.1687144                   1
 p    3 1.00
             7.8682724   0.068999095584993
             1.8812885    0.31642397975315
             0.5442493    0.74430825237435
 p    1 1.00
             0.1687144                   1
 d    1 1.00
                   0.8                   1

17 0
 s    6 1.00
             3047.5249  0.0018347001629433
             457.36951    0.01403730124668
             103.94869   0.068842606114048
             29.210155    0.23218442062076
              9.286663    0.46794134155879
              3.163927    0.36231203217765
 s    3 1.00
             7.8682724   -0.11933240861517
             1.8812885   -0.16085421161283
             0.5442493     1.1434564825515
 s    1 1.00
             0.1687144                   1
 p    3 1.00
             7.8682724   0.068999095584993
             1.8812885    0.31642397975315
             0.5442493    0.74430825237435
 p    1 1.00
             0.1687144                   1
 d    1 1.00
                   0.8                   1

18 0
 s    6 1.00
             3047.5249  0.0018347001629433
             457.36951    0.01403730124668
             103.94869   0.068842606114048
             29.210155    0.23218442062076
              9.286663    0.46794134155879
              3.163927    0.36231203217765
 s    3 1.00
             7.8682724   -0.11933240861517
             1.8812885   -0.16085421161283
             0.5442493     1.1434564825515
 s    1 1.00
             0.1687144                   1
 p    3 1.00
             7.8682724   0.068999095584993
             1.8812885    0.31642397975315
             0.5442493    0.74430825237435
 p    1 1.00
             0.1687144                   1
 d    1 1.00
                   0.8                   1

19 0
 s    6 1.00
             3047.5249  0.0018347001629433
             457.36951    0.01403730124668
             103.94869   0.068842606114048
             29.210155    0.23218442062076
              9.286663    0.46794134155879
              3.163927    0.36231203217765
 s    3 1.00
             7.8682724   -0.11933240861517
             1.8812885   -0.16085421161283
             0.5442493     1.1434564825515
 s    1 1.00
             0.1687144                   1
 p    3 1.00
             7.8682724   0.068999095584993
             1.8812885    0.31642397975315
             0.5442493    0.74430825237435
 p    1 1.00
             0.1687144                   1
 d    1 1.00
                   0.8                   1

20 0
 s    6 1.00
             3047.5249  0.0018347001629433
             457.36951    0.01403730124668
             103.94869   0.068842606114048
             29.210155    0.23218442062076
              9.286663    0.46794134155879
              3.163927    0.36231203217765
 s    3 1.00
             7.8682724   -0.11933240861517
             1.8812885   -0.16085421161283
             0.5442493     1.1434564825515
 s    1 1.00
             0.1687144                   1
 p    3 1.00
             7.8682724   0.068999095584993
             1.8812885    0.31642397975315
             0.5442493    0.74430825237435
 p    1 1.00
             0.1687144                   1
 d    1 1.00
                   0.8                   1

21 0
 s    6 1.00
             3047.5249  0.0018347001629433
             457.36951    0.01403730124668
             103.94869   0.068842606114048
             29.210155    0.23218442062076
              9.286663    0.46794134155879
              3.163927    0.36231203217765
 s    3 1.00
             7.8682724   -0.11933240861517
             1.8812885   -0.16085421161283
             0.5442493     1.1434564825515
 s    1 1.00
             0.1687144                   1
 p    3 1.00
             7.8682724   0.068999095584993
             1.8812885    0.31642397975315
             0.5442493    0.74430825237435
 p    1 1.00
             0.1687144                   1
 d    1 1.00
                   0.8                   1

22 0
 s    3 1.00
             18.731137    0.03349459952309
             2.8253937    0.23472694665786
             0.6401217    0.81375731841339
 s    1 1.00
             0.1612778                   1

23 0
 s    3 1.00
             18.731137    0.03349459952309
             2.8253937    0.23472694665786
             0.6401217    0.81375731841339
 s    1 1.00
             0.1612778                   1

24 0
 s    3 1.00
             18.731137    0.03349459952309
             2.8253937    0.23472694665786
             0.6401217    0.81375731841339
 s    1 1.00
             0.1612778                   1

25 0
 s    3 1.00
             18.731137    0.03349459952309
             2.8253937    0.23472694665786
             0.6401217    0.81375731841339
 s    1 1.00
             0.1612778                   1

26 0
 s    3 1.00
             18.731137    0.03349459952309
             2.8253937    0.23472694665786
             0.6401217    0.81375731841339
 s    1 1.00
             0.1612778                   1

27 0
 s    3 1.00
             18.731137    0.03349459952309
             2.8253937    0.23472694665786
             0.6401217    0.81375731841339
 s    1 1.00
             0.1612778                   1

28 0
 s    3 1.00
             18.731137    0.03349459952309
             2.8253937    0.23472694665786
             0.6401217    0.81375731841339
 s    1 1.00
             0.1612778                   1

29 0
 s    3 1.00
             18.731137    0.03349459952309
             2.8253937    0.23472694665786
             0.6401217    0.81375731841339
 s    1 1.00
             0.1612778                   1

30 0
 s    3 1.00
             18.731137    0.03349459952309
             2.8253937    0.23472694665786
             0.6401217    0.81375731841339
 s    1 1.00
             0.1612778                   1

31 0
 s    3 1.00
             18.731137    0.03349459952309
             2.8253937    0.23472694665786
             0.6401217    0.81375731841339
 s    1 1.00
             0.1612778                   1

32 0
 s    3 1.00
             18.731137    0.03349459952309
             2.8253937    0.23472694665786
             0.6401217    0.81375731841339
 s    1 1.00
             0.1612778                   1

33 0
 s    6 1.00
             3047.5249  0.0018347001629433
             457.36951    0.01403730124668
             103.94869   0.068842606114048
             29.210155    0.23218442062076
              9.286663    0.46794134155879
              3.163927    0.36231203217765
 s    3 1.00
             7.8682724   -0.11933240861517
             1.8812885   -0.16085421161283
             0.5442493     1.1434564825515
 s    1 1.00
             0.1687144                   1
 p    3 1.00
             7.8682724   0.068999095584993
             1.8812885    0.31642397975315
             0.5442493    0.74430825237435
 p    1 1.00
             0.1687144                   1
 d    1 1.00
                   0.8                   1

34 0
 s    6 1.00
             3047.5249  0.0018347001629433
             457.36951    0.01403730124668
             103.94869   0.068842606114048
             29.210155    0.23218442062076
              9.286663    0.46794134155879
              3.163927    0.36231203217765
 s    3 1.00
             7.8682724   -0.11933240861517
             1.8812885   -0.16085421161283
             0.5442493     1.1434564825515
 s    1 1.00
             0.1687144                   1
 p    3 1.00
             7.8682724   0.068999095584993
             1.8812885    0.31642397975315
             0.5442493    0.74430825237435
 p    1 1.00
             0.1687144                   1
 d    1 1.00
                   0.8                   1

35 0
 s    3 1.00
             18.731137    0.03349459952309
             2.8253937    0.23472694665786
             0.6401217    0.81375731841339
 s    1 1.00
             0.1612778                   1

36 0
 s    6 1.00
             3047.5249  0.0018347001629433
             457.36951    0.01403730124668
             103.94869   0.068842606114048
             29.210155    0.23218442062076
              9.286663    0.46794134155879
              3.163927    0.36231203217765
 s    3 1.00
             7.8682724   -0.11933240861517
             1.8812885   -0.16085421161283
             0.5442493     1.1434564825515
 s    1 1.00
             0.1687144                   1
 p    3 1.00
             7.8682724   0.068999095584993
             1.8812885    0.31642397975315
             0.5442493    0.74430825237435
 p    1 1.00
             0.1687144                   1
 d    1 1.00
                   0.8                   1

37 0
 s    3 1.00
             18.731137    0.03349459952309
             2.8253937    0.23472694665786
             0.6401217    0.81375731841339
 s    1 1.00
             0.1612778                   1

38 0
 s    3 1.00
             18.731137    0.03349459952309
             2.8253937    0.23472694665786
             0.6401217    0.81375731841339
 s    1 1.00
             0.1612778                   1

39 0
 s    6 1.00
             3047.5249  0.0018347001629433
             457.36951    0.01403730124668
             103.94869   0.068842606114048
             29.210155    0.23218442062076
              9.286663    0.46794134155879
              3.163927    0.36231203217765
 s    3 1.00
             7.8682724   -0.11933240861517
             1.8812885   -0.16085421161283
             0.5442493     1.1434564825515
 s    1 1.00
             0.1687144                   1
 p    3 1.00
             7.8682724   0.068999095584993
             1.8812885    0.31642397975315
             0.5442493    0.74430825237435
 p    1 1.00
             0.1687144                   1
 d    1 1.00
                   0.8                   1

40 0
 s    6 1.00
             3047.5249  0.0018347001629433
             457.36951    0.01403730124668
             103.94869   0.068842606114048
             29.210155    0.23218442062076
              9.286663    0.46794134155879
              3.163927    0.36231203217765
 s    3 1.00
             7.8682724   -0.11933240861517
             1.8812885   -0.16085421161283
             0.5442493     1.1434564825515
 s    1 1.00
             0.1687144                   1
 p    3 1.00
             7.8682724   0.068999095584993
             1.8812885    0.31642397975315
             0.5442493    0.74430825237435
 p    1 1.00
             0.1687144                   1
 d    1 1.00
                   0.8                   1

41 0
 s    3 1.00
             18.731137    0.03349459952309
             2.8253937    0.23472694665786
             0.6401217    0.81375731841339
 s    1 1.00
             0.1612778                   1

42 0
 s    6 1.00
             5484.6717   0.001831099805527
             825.23495   0.013950098518422
             188.04696    0.06844509273075
               52.9645    0.23271427528445
              16.89757    0.47019295006289
             5.7996353    0.35852086192309
 s    3 1.00
             15.539616   -0.11077750382508
             3.5999336   -0.14802630511126
             1.0137618     1.1307670390447
 s    1 1.00
             0.2700058                   1
 p    3 1.00
             15.539616   0.070874299543311
             3.5999336    0.33975279781076
             1.0137618    0.72715859531445
 p    1 1.00
             0.2700058                   1
 d    1 1.00
                   0.8                   1

43 0
 s    3 1.00
             18.731137    0.03349459952309
             2.8253937    0.23472694665786
             0.6401217    0.81375731841339
 s    1 1.00
             0.1612778                   1

[5d]
[7f]
[9g]

[MO]
 Sym= A
 Ene=               0
 Spin= Alpha
 Occup=    1.00000
   1    -6.0302399191835e-07
   2    -2.2015450065862e-05
   3    -1.1436204328523e-05
   4    -4.3137777132361e-07
   5    -1.6692842790306e-05
   6    2.2019199589445e-05
   7    3.9898985708297e-05
   8    0.00010060202037839
   9    -0.00040071224569453
  10    7.8208354138711e-07
  11    1.1322746084055e-05
  12    2.1845072217664e-06
  13     1.46845228338e-05
  14    -8.180005920092e-06
  15    -1.6195784444067e-05
  16    1.5917064577377e-05
  17    5.3937376370195e-06
  18    0.00017730415633876
  19    0.00046613558951637
  20    6.4154556539214e-05
  21    -2.828186377575e-06
  22    -8.4664426186311e-05
  23    0.00018937657947378
  24    -0.00011149710421137
  25    -0.00065008866138449
  26     2.05558657748e-05
  27    -2.404135245121e-05
  28    1.0164487063503e-05
  29    4.4032710273273e-05
  30    -5.8454996863297e-07
  31    -1.0521436944043e-05
  32    3.6289381416666e-05
  33    8.1381180820952e-05
  34    0.00031263503121128
  35    -0.0047300434541745
  36    -0.00012439629383023
  37    8.1800923863505e-05
  38    0.00021966729528471
  39    -0.00055996102329889
  40    0.0020610788168639
  41    0.00055542292234868
  42    -2.2502792569356e-05
  43    0.00011455730878941
  44    -6.8880052501451e-05
  45    2.8340531319648e-05
  46     6.05670567756e-05
  47    -1.1406819351244e-05
  48    -0.00027092825001162
  49    -5.4191807913392e-05
  50    0.0003164157393486
  51    0.0039083354845693
  52    0.00031677771156303
  53    -0.00035562095872765
  54    -0.00044017312811212
  55    -0.0018361020986251
  56    0.0026777969271629
  57    0.0022918983479676
  58    -2.6104142936027e-05
  59    3.3552601454322e-05
  60    0.00019554459423077
  61    2.5631984743972e-05
  62    -0.00012331524912167
  63    0.00041748101498259
  64    0.00014431485470581
  65    -2.6187199268752e-07
  66    -6.1928495382071e-07
  67    -8.6999347143659e-08
  68    -4.8217100364474e-07
  69    3.1635357989891e-06
  70    4.0817262576878e-07
  71    -4.7567426831438e-07
  72    5.783199583825e-08
  73    4.490842628488e-07
  74    1.1721294023786e-06
  75    3.4856446638079e-07
  76    -5.2229362685883e-08
  77    -1.4471814607689e-07
  78    5.0459880653087e-08
  79    6.4884417367347e-08
  80    -1.2361535484409e-07
  81    7.7415377144363e-08
  82    -1.9072661970616e-07
  83    -6.2098701049912e-08
  84    -8.9461154353161e-08
  85    -1.3287764219713e-05
  86    5.1086676739189e-07
  87    -5.3999130551105e-09
  88    6.2620415617104e-07
  89    3.5114365333817e-06
  90    -4.6768561676565e-06
  91    2.7910142962625e-06
  92    2.1830749003392e-07
  93    -3.7760858205987e-07
  94    2.6895500310519e-07
  95    1.3474993353013e-08
  96    -2.4396613097376e-07
  97    1.3931903219615e-07
  98    -5.946167963453e-07
  99    2.9080419455258e-07
 100    -4.1193117105983e-07
 101    1.2498868658717e-07
 102    -1.3744713606892e-06
 103    1.3080759542512e-05
 104    1.9660698737159e-06
 105    1.2276836817919e-06
 106    -5.3318334879562e-07
 107    -1.9440506396596e-05
 108    2.1628571482887e-05
 109    3.2328139304543e-05
 110    -6.0575104088819e-07
 111    -5.4190214717684e-07
 112    2.7675926193478e-07
 113    4.2532436943269e-07
 114    -5.2525502136516e-07
 115    -5.6367525364577e-07
 116    -4.7669709648659e-06
 117    3.9400278266687e-05
 118    -7.832374929735e-07
 119    1.0961778990944e-06
 120    6.1384704648429e-07
 121    -9.1811917065141e-06
 122    1.1032818792286e-06
 123    3.0830690143692e-06
 124    -6.4245833766372e-08
 125    -1.5964561997817e-07
 126    -6.3405789895984e-08
 127    3.0316576224113e-08
 128    -4.4824554075303e-07
 129    -9.2330834060727e-07
 130    -9.6023246421934e-06
 131    5.4524614207195e-05
 132    -5.2285961684998e-07
 133    -1.8882355785133e-06
 134    3.9773572393059e-06
 135    -2.6805765815408e-05
 136    -9.1743778226034e-07
 137    -8.6751867858015e-05
 138    2.7564209715668e-06
 139    1.584766773438e-06
 140    5.5272235692075e-07
 141    5.2870583523796e-07
 142    2.5306793777671e-07
 143    -6.6290985179241e-07
 144    -3.6588160131699e-06
 145    2.2572049415631e-05
 146    8.8691136176791e-07
 147    6.1243070484306e-07
 148    -3.097090907024e-07
 149    1.3580013579411e-05
 150    -6.2854205297569e-06
 151    -3.5814625182176e-06
 152    -1.1387204569955e-06
 153    -3.7051351352138e-07
 154    -9.7915142947594e-08
 155    7.2730375026489e-07
 156    -8.5677725096601e-07
 157    -7.5263714064783e-08
 158    1.4122057258822e-06
 159    1.3423250077131e-06
 160    8.3950691624602e-07
 161    -4.8371127920016e-07
 162    -4.3355156763584e-07
 163    -7.3233014127441e-06
 164    5.0412949432409e-07
 165    8.6124136427157e-07
 166    4.4771693033339e-07
 167    -1.1834464318407e-07
 168    -1.7747575012516e-08
 169    -1.1733341597398e-07
 170    3.164291479434e-07
 171    1.0309871656987e-07
 172    -6.6439638726679e-07
 173    -1.642474716797e-06
 174    -1.0387011624213e-06
 175    -3.8201372277426e-07
 176     9.36545078887e-07
 177    -2.8892058553322e-07
 178    1.387766629248e-06
 179    -2.1031781443144e-06
 180    1.4152358486125e-07
 181    1.7228894482009e-07
 182    2.3135455688291e-08
 183    -3.8060444418574e-07
 184    1.8748940029495e-07
 185    -2.7699482772979e-07
 186    -3.3374373627054e-06
 187    2.0881438966671e-06
 188    -1.2770807267894e-07
 189    1.7748304853438e-07
 190    1.4523245144049e-06
 191    3.0295365050856e-06
 192    7.2980939525477e-07
 193    -5.6186262434166e-06
 194    3.7163844346685e-07
 195    -7.4851202833864e-08
 196    2.0559431678079e-07
 197    8.5530126442853e-08
 198    -1.1893498755435e-07
 199    -9.1882564847149e-07
 200    -1.6930307933517e-06
 201    2.7162000838723e-07
 202    4.2007199388598e-06
 203    -1.5733460870462e-06
 204    -1.4639707464777e-06
 205    -7.5075545884941e-07
 206    -3.5190710558712e-06
 207    1.5666170719329e-06
 208    -1.2094559109504e-05
 209    1.3599202270779e-06
 210    -4.8519042013596e-06
 211     5.62797793561e-07
 212    2.9240905848489e-06
 213    -5.441776741642e-07
 214    -3.3043425996632e-06
 215    -6.9473693406007e-07
 216    4.9627114213668e-07
 217    5.6817252396334e-07
 218    1.6419923849728e-06
 219    2.3029371312871e-07
 220    9.4679794152487e-07
 221    -9.6415902299127e-07
 222    -8.317825965163e-06
 223    -5.0826134349746e-06
 224    2.0281521679794e-06
 225    -5.7280218792101e-06
 226    2.6798497047579e-06
 227    1.4261264210143e-05
 228    2.3662154515594e-05
 229    -0.00010387876148253
 230    -1.3031883063611e-06
 231    -4.3614298102641e-06
 232    -2.3844699404799e-06
 233    1.8682322016759e-06
 234    3.1100119107904e-06
 235    -9.2141097525777e-07
 236    -1.2394133231833e-05
 237    1.9586792140463e-05
 238    -2.2688782643721e-06
 239    9.1881806754946e-06
 240    6.6351597121272e-06
 241    -2.2647916486856e-05
 242    -2.9228728541435e-06
 243    -9.2568590358229e-05
 244    1.6887019817802e-06
 245    7.2524950097226e-06
 246    1.5664602288603e-06
 247    2.6335967186587e-06
 248    1.5089752543434e-06
 249    -4.571358744182e-06
 250    1.1214660949851e-05
 251    -4.9398770951497e-06
 252    -2.9827377082702e-05
 253    0.00028423331594011
 254    5.2372893762889e-06
 255    -2.8424189612276e-06
 256    5.1472569265976e-06
 257    0.00012099932248146
 258    0.00011526322881642
 259    -0.00025896399722532
 260     2.36801014211e-06
 261    -1.3359256394378e-05
 262    -5.2049478013911e-06
 263    8.5712440911908e-06
 264    6.1243847258843e-06
 265    -5.2428328685354e-06
 266    2.8951474465425e-05
 267    -8.7341453662382e-06
 268    4.2542890453574e-05
 269    -7.3095023450714e-05
 270    9.6958642828259e-06
 271    0.0033572624849091
 272    -0.00011005400082483
 273    -0.00025721190448276
 274    0.00014510306788397
 275    0.0022052229350711
 276    0.00062082234462842
 277    -0.0034955993622489
 278    0.00022450774862155
 279    -0.00023270907230523
 280    0.00016066212296821