[Molden Format]
made by pyscf v[2.0.1]
[Atoms] (AU)
C   1   6     0.69100024066471     0.64692934207205    -3.48223131169301
H   2   1     2.68052439830868     1.13355088658700    -3.25784032593313
C   3   6    -0.36286361513219     0.85440132524594    -5.97030179418974
H   4   1    -2.35448549047279     0.36322488579172    -6.17995817793143
C   5   6     0.93697958957450     1.61209284601821    -8.05828437677121
H   6   1     2.50035468987728     2.93484935641869    -7.84122146962088
C   7   6     0.36255105159660     0.76050131278393   -10.56848504450332
H   8   1    -1.20802221204617    -0.56532983436663   -10.75608465244450
H   9   1     1.55630230933075    -1.92953025305990    12.99630010416247
C   10   6     0.75233899775814    -2.21270439606481    11.10705728102219
H   11   1    -0.43433408177274    -3.90944857546550    11.22216085340412
C   12   6     2.86362581178706    -2.63237380607947     9.17926416456045
H   13   1     4.39038949912609    -1.24955421540245     9.49899813497433
H   14   1     3.74629220191363    -4.48798724300892     9.47414880959024
C   15   6     2.02478325613682    -2.42177285709634     6.44560829588644
C   16   6     3.88048732735477    -3.58795445234514     4.61402886975252
C   17   6    -0.18412382258602    -1.30464291234259     5.76021113872346
C   18   6    -2.10044360464350    -0.26837831858460     7.71610340967100
C   19   6    -3.08956938670431     2.35282328359417     6.88693925039594
C   20   6    -4.37372924086464    -2.09766595989678     7.93610724222001
C   21   6    -0.83850430601230     0.06372213486173    10.33002307638377
H   22   1     0.38411922151109     1.74281358582432    10.27380136542181
H   23   1    -2.30980003007874     0.45460143924521    11.73986301809809
H   24   1     4.58527064644668    -5.38706904487420     5.36778158031719
H   25   1     5.54944938085014    -2.37631462192748     4.35398898413318
H   26   1     3.06633019150423    -3.94118377050688     2.75255466040884
H   27   1    -4.17727778763735     2.26573369139522     5.12914900961283
H   28   1    -1.52662344944051     3.68001877445626     6.59540397144508
H   29   1    -4.32916174397830     3.13643051467482     8.35225460090378
H   30   1    -5.32329548508442    -2.36691813602939     6.11583672749896
H   31   1    -5.77989366602257    -1.33896741843465     9.25748940450990
H   32   1    -3.79310905208926    -3.96389819310853     8.61386170102686
C   33   6    -1.01100794811226    -1.06331657314144     3.11929490449947
C   34   6     0.37686231036534    -0.33275864505552     1.09165013605873
H   35   1    -3.01671213906703    -1.40297922279997     2.77827895090944
C   36   6    -0.64382707979370    -0.11591880174385    -1.42063131251064
H   37   1     2.35569259782137     0.17174499283897     1.33641070251401
H   38   1    -2.63317482980319    -0.60229203511219    -1.66119700387645
C   39   6     1.60144441070444     1.46482489722556   -12.70057441592292
C   40   6     0.86980516734608     0.48994136718256   -15.17470632539007
H   41   1     3.18180515535191     2.77908821383906   -12.64635086980665
O   42   8     1.89724046327418     1.04291297454121   -17.16453627851552
H   43   1    -0.75645459108880    -0.84958730954869   -15.14122439828819
[GTO]
1 0
 s    6 1.00
             3047.5249  0.0018347001629433
             457.36951    0.01403730124668
             103.94869   0.068842606114048
             29.210155    0.23218442062076
              9.286663    0.46794134155879
              3.163927    0.36231203217765
 s    3 1.00
             7.8682724   -0.11933240861517
             1.8812885   -0.16085421161283
             0.5442493     1.1434564825515
 s    1 1.00
             0.1687144                   1
 p    3 1.00
             7.8682724   0.068999095584993
             1.8812885    0.31642397975315
             0.5442493    0.74430825237435
 p    1 1.00
             0.1687144                   1
 d    1 1.00
                   0.8                   1

2 0
 s    3 1.00
             18.731137    0.03349459952309
             2.8253937    0.23472694665786
             0.6401217    0.81375731841339
 s    1 1.00
             0.1612778                   1

3 0
 s    6 1.00
             3047.5249  0.0018347001629433
             457.36951    0.01403730124668
             103.94869   0.068842606114048
             29.210155    0.23218442062076
              9.286663    0.46794134155879
              3.163927    0.36231203217765
 s    3 1.00
             7.8682724   -0.11933240861517
             1.8812885   -0.16085421161283
             0.5442493     1.1434564825515
 s    1 1.00
             0.1687144                   1
 p    3 1.00
             7.8682724   0.068999095584993
             1.8812885    0.31642397975315
             0.5442493    0.74430825237435
 p    1 1.00
             0.1687144                   1
 d    1 1.00
                   0.8                   1

4 0
 s    3 1.00
             18.731137    0.03349459952309
             2.8253937    0.23472694665786
             0.6401217    0.81375731841339
 s    1 1.00
             0.1612778                   1

5 0
 s    6 1.00
             3047.5249  0.0018347001629433
             457.36951    0.01403730124668
             103.94869   0.068842606114048
             29.210155    0.23218442062076
              9.286663    0.46794134155879
              3.163927    0.36231203217765
 s    3 1.00
             7.8682724   -0.11933240861517
             1.8812885   -0.16085421161283
             0.5442493     1.1434564825515
 s    1 1.00
             0.1687144                   1
 p    3 1.00
             7.8682724   0.068999095584993
             1.8812885    0.31642397975315
             0.5442493    0.74430825237435
 p    1 1.00
             0.1687144                   1
 d    1 1.00
                   0.8                   1

6 0
 s    3 1.00
             18.731137    0.03349459952309
             2.8253937    0.23472694665786
             0.6401217    0.81375731841339
 s    1 1.00
             0.1612778                   1

7 0
 s    6 1.00
             3047.5249  0.0018347001629433
             457.36951    0.01403730124668
             103.94869   0.068842606114048
             29.210155    0.23218442062076
              9.286663    0.46794134155879
              3.163927    0.36231203217765
 s    3 1.00
             7.8682724   -0.11933240861517
             1.8812885   -0.16085421161283
             0.5442493     1.1434564825515
 s    1 1.00
             0.1687144                   1
 p    3 1.00
             7.8682724   0.068999095584993
             1.8812885    0.31642397975315
             0.5442493    0.74430825237435
 p    1 1.00
             0.1687144                   1
 d    1 1.00
                   0.8                   1

8 0
 s    3 1.00
             18.731137    0.03349459952309
             2.8253937    0.23472694665786
             0.6401217    0.81375731841339
 s    1 1.00
             0.1612778                   1

9 0
 s    3 1.00
             18.731137    0.03349459952309
             2.8253937    0.23472694665786
             0.6401217    0.81375731841339
 s    1 1.00
             0.1612778                   1

10 0
 s    6 1.00
             3047.5249  0.0018347001629433
             457.36951    0.01403730124668
             103.94869   0.068842606114048
             29.210155    0.23218442062076
              9.286663    0.46794134155879
              3.163927    0.36231203217765
 s    3 1.00
             7.8682724   -0.11933240861517
             1.8812885   -0.16085421161283
             0.5442493     1.1434564825515
 s    1 1.00
             0.1687144                   1
 p    3 1.00
             7.8682724   0.068999095584993
             1.8812885    0.31642397975315
             0.5442493    0.74430825237435
 p    1 1.00
             0.1687144                   1
 d    1 1.00
                   0.8                   1

11 0
 s    3 1.00
             18.731137    0.03349459952309
             2.8253937    0.23472694665786
             0.6401217    0.81375731841339
 s    1 1.00
             0.1612778                   1

12 0
 s    6 1.00
             3047.5249  0.0018347001629433
             457.36951    0.01403730124668
             103.94869   0.068842606114048
             29.210155    0.23218442062076
              9.286663    0.46794134155879
              3.163927    0.36231203217765
 s    3 1.00
             7.8682724   -0.11933240861517
             1.8812885   -0.16085421161283
             0.5442493     1.1434564825515
 s    1 1.00
             0.1687144                   1
 p    3 1.00
             7.8682724   0.068999095584993
             1.8812885    0.31642397975315
             0.5442493    0.74430825237435
 p    1 1.00
             0.1687144                   1
 d    1 1.00
                   0.8                   1

13 0
 s    3 1.00
             18.731137    0.03349459952309
             2.8253937    0.23472694665786
             0.6401217    0.81375731841339
 s    1 1.00
             0.1612778                   1

14 0
 s    3 1.00
             18.731137    0.03349459952309
             2.8253937    0.23472694665786
             0.6401217    0.81375731841339
 s    1 1.00
             0.1612778                   1

15 0
 s    6 1.00
             3047.5249  0.0018347001629433
             457.36951    0.01403730124668
             103.94869   0.068842606114048
             29.210155    0.23218442062076
              9.286663    0.46794134155879
              3.163927    0.36231203217765
 s    3 1.00
             7.8682724   -0.11933240861517
             1.8812885   -0.16085421161283
             0.5442493     1.1434564825515
 s    1 1.00
             0.1687144                   1
 p    3 1.00
             7.8682724   0.068999095584993
             1.8812885    0.31642397975315
             0.5442493    0.74430825237435
 p    1 1.00
             0.1687144                   1
 d    1 1.00
                   0.8                   1

16 0
 s    6 1.00
             3047.5249  0.0018347001629433
             457.36951    0.01403730124668
             103.94869   0.068842606114048
             29.210155    0.23218442062076
              9.286663    0.46794134155879
              3.163927    0.36231203217765
 s    3 1.00
             7.8682724   -0.11933240861517
             1.8812885   -0.16085421161283
             0.5442493     1.1434564825515
 s    1 1.00
             0.1687144                   1
 p    3 1.00
             7.8682724   0.068999095584993
             1.8812885    0.31642397975315
             0.5442493    0.74430825237435
 p    1 1.00
             0.1687144                   1
 d    1 1.00
                   0.8                   1

17 0
 s    6 1.00
             3047.5249  0.0018347001629433
             457.36951    0.01403730124668
             103.94869   0.068842606114048
             29.210155    0.23218442062076
              9.286663    0.46794134155879
              3.163927    0.36231203217765
 s    3 1.00
             7.8682724   -0.11933240861517
             1.8812885   -0.16085421161283
             0.5442493     1.1434564825515
 s    1 1.00
             0.1687144                   1
 p    3 1.00
             7.8682724   0.068999095584993
             1.8812885    0.31642397975315
             0.5442493    0.74430825237435
 p    1 1.00
             0.1687144                   1
 d    1 1.00
                   0.8                   1

18 0
 s    6 1.00
             3047.5249  0.0018347001629433
             457.36951    0.01403730124668
             103.94869   0.068842606114048
             29.210155    0.23218442062076
              9.286663    0.46794134155879
              3.163927    0.36231203217765
 s    3 1.00
             7.8682724   -0.11933240861517
             1.8812885   -0.16085421161283
             0.5442493     1.1434564825515
 s    1 1.00
             0.1687144                   1
 p    3 1.00
             7.8682724   0.068999095584993
             1.8812885    0.31642397975315
             0.5442493    0.74430825237435
 p    1 1.00
             0.1687144                   1
 d    1 1.00
                   0.8                   1

19 0
 s    6 1.00
             3047.5249  0.0018347001629433
             457.36951    0.01403730124668
             103.94869   0.068842606114048
             29.210155    0.23218442062076
              9.286663    0.46794134155879
              3.163927    0.36231203217765
 s    3 1.00
             7.8682724   -0.11933240861517
             1.8812885   -0.16085421161283
             0.5442493     1.1434564825515
 s    1 1.00
             0.1687144                   1
 p    3 1.00
             7.8682724   0.068999095584993
             1.8812885    0.31642397975315
             0.5442493    0.74430825237435
 p    1 1.00
             0.1687144                   1
 d    1 1.00
                   0.8                   1

20 0
 s    6 1.00
             3047.5249  0.0018347001629433
             457.36951    0.01403730124668
             103.94869   0.068842606114048
             29.210155    0.23218442062076
              9.286663    0.46794134155879
              3.163927    0.36231203217765
 s    3 1.00
             7.8682724   -0.11933240861517
             1.8812885   -0.16085421161283
             0.5442493     1.1434564825515
 s    1 1.00
             0.1687144                   1
 p    3 1.00
             7.8682724   0.068999095584993
             1.8812885    0.31642397975315
             0.5442493    0.74430825237435
 p    1 1.00
             0.1687144                   1
 d    1 1.00
                   0.8                   1

21 0
 s    6 1.00
             3047.5249  0.0018347001629433
             457.36951    0.01403730124668
             103.94869   0.068842606114048
             29.210155    0.23218442062076
              9.286663    0.46794134155879
              3.163927    0.36231203217765
 s    3 1.00
             7.8682724   -0.11933240861517
             1.8812885   -0.16085421161283
             0.5442493     1.1434564825515
 s    1 1.00
             0.1687144                   1
 p    3 1.00
             7.8682724   0.068999095584993
             1.8812885    0.31642397975315
             0.5442493    0.74430825237435
 p    1 1.00
             0.1687144                   1
 d    1 1.00
                   0.8                   1

22 0
 s    3 1.00
             18.731137    0.03349459952309
             2.8253937    0.23472694665786
             0.6401217    0.81375731841339
 s    1 1.00
             0.1612778                   1

23 0
 s    3 1.00
             18.731137    0.03349459952309
             2.8253937    0.23472694665786
             0.6401217    0.81375731841339
 s    1 1.00
             0.1612778                   1

24 0
 s    3 1.00
             18.731137    0.03349459952309
             2.8253937    0.23472694665786
             0.6401217    0.81375731841339
 s    1 1.00
             0.1612778                   1

25 0
 s    3 1.00
             18.731137    0.03349459952309
             2.8253937    0.23472694665786
             0.6401217    0.81375731841339
 s    1 1.00
             0.1612778                   1

26 0
 s    3 1.00
             18.731137    0.03349459952309
             2.8253937    0.23472694665786
             0.6401217    0.81375731841339
 s    1 1.00
             0.1612778                   1

27 0
 s    3 1.00
             18.731137    0.03349459952309
             2.8253937    0.23472694665786
             0.6401217    0.81375731841339
 s    1 1.00
             0.1612778                   1

28 0
 s    3 1.00
             18.731137    0.03349459952309
             2.8253937    0.23472694665786
             0.6401217    0.81375731841339
 s    1 1.00
             0.1612778                   1

29 0
 s    3 1.00
             18.731137    0.03349459952309
             2.8253937    0.23472694665786
             0.6401217    0.81375731841339
 s    1 1.00
             0.1612778                   1

30 0
 s    3 1.00
             18.731137    0.03349459952309
             2.8253937    0.23472694665786
             0.6401217    0.81375731841339
 s    1 1.00
             0.1612778                   1

31 0
 s    3 1.00
             18.731137    0.03349459952309
             2.8253937    0.23472694665786
             0.6401217    0.81375731841339
 s    1 1.00
             0.1612778                   1

32 0
 s    3 1.00
             18.731137    0.03349459952309
             2.8253937    0.23472694665786
             0.6401217    0.81375731841339
 s    1 1.00
             0.1612778                   1

33 0
 s    6 1.00
             3047.5249  0.0018347001629433
             457.36951    0.01403730124668
             103.94869   0.068842606114048
             29.210155    0.23218442062076
              9.286663    0.46794134155879
              3.163927    0.36231203217765
 s    3 1.00
             7.8682724   -0.11933240861517
             1.8812885   -0.16085421161283
             0.5442493     1.1434564825515
 s    1 1.00
             0.1687144                   1
 p    3 1.00
             7.8682724   0.068999095584993
             1.8812885    0.31642397975315
             0.5442493    0.74430825237435
 p    1 1.00
             0.1687144                   1
 d    1 1.00
                   0.8                   1

34 0
 s    6 1.00
             3047.5249  0.0018347001629433
             457.36951    0.01403730124668
             103.94869   0.068842606114048
             29.210155    0.23218442062076
              9.286663    0.46794134155879
              3.163927    0.36231203217765
 s    3 1.00
             7.8682724   -0.11933240861517
             1.8812885   -0.16085421161283
             0.5442493     1.1434564825515
 s    1 1.00
             0.1687144                   1
 p    3 1.00
             7.8682724   0.068999095584993
             1.8812885    0.31642397975315
             0.5442493    0.74430825237435
 p    1 1.00
             0.1687144                   1
 d    1 1.00
                   0.8                   1

35 0
 s    3 1.00
             18.731137    0.03349459952309
             2.8253937    0.23472694665786
             0.6401217    0.81375731841339
 s    1 1.00
             0.1612778                   1

36 0
 s    6 1.00
             3047.5249  0.0018347001629433
             457.36951    0.01403730124668
             103.94869   0.068842606114048
             29.210155    0.23218442062076
              9.286663    0.46794134155879
              3.163927    0.36231203217765
 s    3 1.00
             7.8682724   -0.11933240861517
             1.8812885   -0.16085421161283
             0.5442493     1.1434564825515
 s    1 1.00
             0.1687144                   1
 p    3 1.00
             7.8682724   0.068999095584993
             1.8812885    0.31642397975315
             0.5442493    0.74430825237435
 p    1 1.00
             0.1687144                   1
 d    1 1.00
                   0.8                   1

37 0
 s    3 1.00
             18.731137    0.03349459952309
             2.8253937    0.23472694665786
             0.6401217    0.81375731841339
 s    1 1.00
             0.1612778                   1

38 0
 s    3 1.00
             18.731137    0.03349459952309
             2.8253937    0.23472694665786
             0.6401217    0.81375731841339
 s    1 1.00
             0.1612778                   1

39 0
 s    6 1.00
             3047.5249  0.0018347001629433
             457.36951    0.01403730124668
             103.94869   0.068842606114048
             29.210155    0.23218442062076
              9.286663    0.46794134155879
              3.163927    0.36231203217765
 s    3 1.00
             7.8682724   -0.11933240861517
             1.8812885   -0.16085421161283
             0.5442493     1.1434564825515
 s    1 1.00
             0.1687144                   1
 p    3 1.00
             7.8682724   0.068999095584993
             1.8812885    0.31642397975315
             0.5442493    0.74430825237435
 p    1 1.00
             0.1687144                   1
 d    1 1.00
                   0.8                   1

40 0
 s    6 1.00
             3047.5249  0.0018347001629433
             457.36951    0.01403730124668
             103.94869   0.068842606114048
             29.210155    0.23218442062076
              9.286663    0.46794134155879
              3.163927    0.36231203217765
 s    3 1.00
             7.8682724   -0.11933240861517
             1.8812885   -0.16085421161283
             0.5442493     1.1434564825515
 s    1 1.00
             0.1687144                   1
 p    3 1.00
             7.8682724   0.068999095584993
             1.8812885    0.31642397975315
             0.5442493    0.74430825237435
 p    1 1.00
             0.1687144                   1
 d    1 1.00
                   0.8                   1

41 0
 s    3 1.00
             18.731137    0.03349459952309
             2.8253937    0.23472694665786
             0.6401217    0.81375731841339
 s    1 1.00
             0.1612778                   1

42 0
 s    6 1.00
             5484.6717   0.001831099805527
             825.23495   0.013950098518422
             188.04696    0.06844509273075
               52.9645    0.23271427528445
              16.89757    0.47019295006289
             5.7996353    0.35852086192309
 s    3 1.00
             15.539616   -0.11077750382508
             3.5999336   -0.14802630511126
             1.0137618     1.1307670390447
 s    1 1.00
             0.2700058                   1
 p    3 1.00
             15.539616   0.070874299543311
             3.5999336    0.33975279781076
             1.0137618    0.72715859531445
 p    1 1.00
             0.2700058                   1
 d    1 1.00
                   0.8                   1

43 0
 s    3 1.00
             18.731137    0.03349459952309
             2.8253937    0.23472694665786
             0.6401217    0.81375731841339
 s    1 1.00
             0.1612778                   1

[5d]
[7f]
[9g]

[MO]
 Sym= A
 Ene=               0
 Spin= Alpha
 Occup=    1.00000
   1    7.9184108523638e-06
   2    2.0460392132241e-05
   3    9.901817948783e-05
   4    1.3603384111713e-05
   5    3.0659336730729e-05
   6    -1.1095873734432e-05
   7    -0.00021579877895282
   8    -0.00026867108338374
   9    0.00065241921683279
  10    -1.6550430796193e-05
  11    -2.3102427446549e-05
  12    -1.757110872192e-07
  13    -1.3719176661305e-06
  14    -8.1968665444491e-07
  15    3.471041547063e-05
  16    3.4882817241687e-05
  17    -1.5027362245483e-05
  18    -2.5817808891642e-05
  19    0.0017955746381321
  20    2.8720494878441e-05
  21    -4.4550767057912e-06
  22    -7.799813463119e-05
  23    0.00039210514326938
  24    0.00013782860473955
  25    -0.0007661970580275
  26    4.8532027711115e-05
  27    -1.9551941054289e-05
  28    -2.2456348717672e-05
  29    2.3445947451588e-05
  30    -2.9862524716173e-05
  31    8.5582909737438e-07
  32    -6.1868391080003e-05
  33    8.6234804257874e-05
  34    0.00031018900249115
  35    -0.0054879837583152
  36    -2.1660225839978e-05
  37    2.5590058976644e-05
  38    0.00021853362905886
  39    0.0015028542207652
  40     0.001373984048225
  41    0.0014324295369817
  42    -0.00015546084761704
  43    -1.292806776718e-05
  44    -6.631537892997e-05
  45    -2.1285499462974e-06
  46    -5.2588379541199e-05
  47    -3.0808869173864e-05
  48    -0.00031314355993385
  49    -5.9308029457305e-05
  50    0.00028641593987527
  51    0.0043208651261558
  52    -8.6515465807706e-05
  53    -0.0001684782109713
  54    -0.00061554082058301
  55    0.0010624683697591
  56    0.0015012933145875
  57    0.0037838160754323
  58    0.0001021013088686
  59    0.00014611075734088
  60    0.00013619901229415
  61    -4.4056550513269e-05
  62    -9.2928568362489e-05
  63    0.0004155724600258
  64    0.0001702154997782
  65    3.3023972896747e-08
  66    -1.5006491642771e-06
  67    8.9571191923563e-08
  68    9.1021194331897e-07
  69    1.051416813322e-06
  70    -5.5976151669407e-07
  71    6.3366690637444e-07
  72    -3.028925240162e-07
  73    -1.6952885146209e-06
  74    -1.8942522497789e-07
  75    2.1444483371604e-06
  76    -1.9358975941378e-07
  77    -8.6494803242186e-08
  78    -9.8045792033807e-08
  79    -6.3678655944958e-08
  80    -7.9361118200173e-08
  81    -9.854921614705e-08
  82    -5.6286911527459e-07
  83    -2.027744062307e-07
  84    -1.3920782881039e-06
  85    6.1595094054499e-06
  86    -2.4285596351021e-07
  87    2.9569399901269e-08
  88    -4.6122164258388e-07
  89    -3.2038932171034e-06
  90    5.4868584127115e-06
  91    -1.2030576937159e-07
  92    1.1113760859361e-07
  93    3.1993376442962e-07
  94    -6.5391668866995e-07
  95    2.336801400729e-07
  96    -1.7889312271631e-08
  97    -9.3231249485796e-07
  98    -3.3557617144126e-07
  99    2.0376568019246e-07
 100    9.8595217782223e-07
 101    4.3842141777142e-07
 102    1.3953105190809e-06
 103    -5.6374772606282e-05
 104    7.1618855137149e-07
 105    -2.37928278121e-07
 106    1.7953369359727e-06
 107    2.2013010228868e-05
 108    -2.316961698771e-05
 109    6.0912601848159e-06
 110    -6.0549403950212e-07
 111    -9.4149357464977e-07
 112    4.2322197936074e-07
 113    6.2675964297911e-07
 114    1.1661668188579e-06
 115    -3.9202570267788e-07
 116    -4.0043157478427e-06
 117    1.1788828739326e-05
 118    1.9872241566641e-07
 119    -8.8974255314936e-07
 120    1.0716833519599e-06
 121    -3.4048414887039e-06
 122    7.1243672555835e-06
 123    -1.3167899446703e-05
 124    -3.9382837329179e-07
 125    5.0511160018553e-07
 126    4.2545183047334e-07
 127    2.5576127656429e-08
 128    1.2814537370785e-07
 129    -3.2769428519201e-07
 130    -4.1475489540002e-06
 131    -3.1105670234555e-05
 132    -4.1084715254941e-06
 133    -1.8884963531746e-06
 134    3.7541881989647e-06
 135    7.8450215777807e-05
 136    -4.3073949720331e-06
 137    1.6199976238025e-05
 138    -4.1401984752043e-07
 139    -6.3357348133058e-07
 140    -1.8702227579631e-06
 141    3.0598600682892e-07
 142    -1.2413893537234e-06
 143    9.5700060057567e-09
 144    1.8505988121071e-06
 145    2.5097483165796e-05
 146    4.7682584443744e-07
 147    1.2472999333851e-06
 148    -3.8328960536886e-06
 149    8.8009019845357e-06
 150    -2.9550688793108e-05
 151    1.4515969832097e-05
 152    4.9044931799683e-07
 153    -1.2093573413502e-07
 154    1.528859153255e-06
 155    1.9671554062874e-07
 156    7.2971846087029e-07
 157    -5.0893462616258e-07
 158    -3.7519723940874e-06
 159    2.5103392411668e-05
 160    -8.2358458747776e-08
 161    -8.1950876969155e-07
 162    8.4692484413715e-07
 163    7.3166367549321e-06
 164    -9.6534308741168e-06
 165    -1.3985678304559e-06
 166    -8.1545133777229e-07
 167    3.0824784151729e-07
 168    -1.7601086088374e-07
 169    -3.7159604666063e-07
 170    -6.0857740741535e-07
 171    -1.9046455155315e-08
 172    -2.6188087032418e-07
 173    -3.6576837942803e-06
 174    -5.6579115015625e-08
 175    1.5193687792035e-07
 176    -9.6069368971564e-07
 177    -9.1332488471064e-06
 178    -3.0706071130562e-06
 179    -4.7407003592962e-06
 180    2.8850859000196e-07
 181    -1.0292510817566e-06
 182    -6.9052838695953e-08
 183    -6.0432834664101e-07
 184    -7.6057230676813e-07
 185    4.8702094551175e-07
 186    3.9261539821073e-06
 187    -2.0476321437736e-05
 188    8.2148215572424e-07
 189    8.2352338381655e-08
 190    2.4094431274218e-07
 191    1.1690156244934e-06
 192    7.8483431573956e-06
 193    8.8033017261823e-06
 194    -3.0968285729066e-07
 195    -6.0579620206351e-07
 196    -1.1640906273547e-06
 197    3.2715704796436e-07
 198    -2.7177353797693e-07
 199    1.1373445981215e-06
 200    -1.6079791780605e-06
 201    3.6700983625271e-07
 202    -4.8499976937547e-07
 203    2.7230882189031e-07
 204    4.0317759835866e-06
 205    -2.2093573903057e-06
 206    -8.231895879161e-07
 207    1.0280753900663e-06
 208    -1.6886157478772e-05
 209    -1.6488128917454e-06
 210    -7.5873198179882e-07
 211    -1.4618016362828e-06
 212    -2.1392831796155e-06
 213    -4.4070867274308e-07
 214    2.0927860199105e-06
 215    1.9164971087604e-06
 216    -1.2912803807418e-05
 217    -4.3369128827768e-07
 218    2.3278007960625e-07
 219    -5.820957743942e-07
 220    1.9266457824745e-06
 221    2.3934140434404e-06
 222    1.5185340826813e-05
 223    -0.00018051226696443
 224    -4.6389193244688e-06
 225    1.7905940140849e-07
 226    -1.9100229146888e-07
 227    -2.4854051432248e-05
 228    -3.6338262332589e-05
 229    0.00019070278115277
 230    -4.6268142803124e-06
 231    6.3374833541085e-06
 232    4.1559761911749e-06
 233    -2.2176660172826e-06
 234    -1.1170307636788e-06
 235    -5.7235583170906e-06
 236    -3.5938231424473e-05
 237    0.00055816904419552
 238    3.0412031143651e-06
 239    7.0860259267488e-06
 240    -1.2179146985178e-05
 241    -0.00017388511649735
 242    -4.7081908257742e-05
 243    -0.0001006905185342
 244    1.6127699819752e-05
 245    -1.3221354691326e-06
 246    -3.3311330335276e-06
 247    1.3098099562964e-06
 248    3.8332271943355e-06
 249    8.1251306963083e-06
 250    1.7644139828039e-05
 251    4.9996329085992e-06
 252    3.7236592742426e-05
 253    -0.00078591529832981
 254    1.4508388563095e-05
 255    -1.2806735566904e-05
 256    2.4585425284072e-05
 257    -0.00034794864095748
 258    -1.0161988441311e-05
 259    -0.00010732920286589
 260    -1.5677737173507e-05
 261    2.6357739231716e-06
 262    2.8104536915783e-06
 263    -4.694869137713e-06
 264    2.0436711725408e-06
 265    4.5085724966693e-06
 266    9.8137365908402e-06
 267    -2.1492629580092e-05
 268    -4.15050139999e-05
 269    -7.1937028044491e-05
 270    1.7463723156319e-05
 271    0.0033113233771905
 272    -0.00024118524775151
 273    -0.0001692563733522
 274     9.54758831309e-05
 275    0.0017008641399158
 276    0.00082663068530478
 277    -0.0038367746216187
 278    0.00038232725454347
 279    -0.00010145932430056