[Molden Format]
made by pyscf v[2.0.1]
[Atoms] (AU)
C   1   6     0.69100024066471     0.64692934207205    -3.48223131169301
H   2   1     2.68052439830868     1.13355088658700    -3.25784032593313
C   3   6    -0.36286361513219     0.85440132524594    -5.97030179418974
H   4   1    -2.35448549047279     0.36322488579172    -6.17995817793143
C   5   6     0.93697958957450     1.61209284601821    -8.05828437677121
H   6   1     1.09182490265505     3.62435627880799    -8.46787148771875
C   7   6     2.13423629966321    -0.10744231105711    -9.78050935942977
H   8   1     1.96390963868834    -2.11762116447114    -9.34474333768613
H   9   1     1.55630230933075    -1.92953025305990    12.99630010416247
C   10   6     0.75233899775814    -2.21270439606481    11.10705728102219
H   11   1    -0.43433408177274    -3.90944857546550    11.22216085340412
C   12   6     2.86362581178706    -2.63237380607947     9.17926416456045
H   13   1     4.39038949912609    -1.24955421540245     9.49899813497433
H   14   1     3.74629220191363    -4.48798724300892     9.47414880959024
C   15   6     2.02478325613682    -2.42177285709634     6.44560829588644
C   16   6     3.88048732735477    -3.58795445234514     4.61402886975252
C   17   6    -0.18412382258602    -1.30464291234259     5.76021113872346
C   18   6    -2.10044360464350    -0.26837831858460     7.71610340967100
C   19   6    -3.08956938670431     2.35282328359417     6.88693925039594
C   20   6    -4.37372924086464    -2.09766595989678     7.93610724222001
C   21   6    -0.83850430601230     0.06372213486173    10.33002307638377
H   22   1     0.38411922151109     1.74281358582432    10.27380136542181
H   23   1    -2.30980003007874     0.45460143924521    11.73986301809809
H   24   1     4.58527064644668    -5.38706904487420     5.36778158031719
H   25   1     5.54944938085014    -2.37631462192748     4.35398898413318
H   26   1     3.06633019150423    -3.94118377050688     2.75255466040884
H   27   1    -4.17727778763735     2.26573369139522     5.12914900961283
H   28   1    -1.52662344944051     3.68001877445626     6.59540397144508
H   29   1    -4.32916174397830     3.13643051467482     8.35225460090378
H   30   1    -5.32329548508442    -2.36691813602939     6.11583672749896
H   31   1    -5.77989366602257    -1.33896741843465     9.25748940450990
H   32   1    -3.79310905208926    -3.96389819310853     8.61386170102686
C   33   6    -1.01100794811226    -1.06331657314144     3.11929490449947
C   34   6     0.37686231036534    -0.33275864505552     1.09165013605873
H   35   1    -3.01671213906703    -1.40297922279997     2.77827895090944
C   36   6    -0.64382707979370    -0.11591880174385    -1.42063131251064
H   37   1     2.35569259782137     0.17174499283897     1.33641070251401
H   38   1    -2.63317482980319    -0.60229203511219    -1.66119700387645
C   39   6     3.44427310754987     0.55955226130243   -11.88185544133447
C   40   6     4.59546774580895    -1.33837842065929   -13.51881378425706
H   41   1     3.68484150802705     2.52824088205540   -12.42422090941845
O   42   8     5.79494197127018    -0.87330187518197   -15.43343894779829
H   43   1     4.30216020100717    -3.32855150553013   -12.89162904717628
[GTO]
1 0
 s    6 1.00
             3047.5249  0.0018347001629433
             457.36951    0.01403730124668
             103.94869   0.068842606114048
             29.210155    0.23218442062076
              9.286663    0.46794134155879
              3.163927    0.36231203217765
 s    3 1.00
             7.8682724   -0.11933240861517
             1.8812885   -0.16085421161283
             0.5442493     1.1434564825515
 s    1 1.00
             0.1687144                   1
 p    3 1.00
             7.8682724   0.068999095584993
             1.8812885    0.31642397975315
             0.5442493    0.74430825237435
 p    1 1.00
             0.1687144                   1
 d    1 1.00
                   0.8                   1

2 0
 s    3 1.00
             18.731137    0.03349459952309
             2.8253937    0.23472694665786
             0.6401217    0.81375731841339
 s    1 1.00
             0.1612778                   1

3 0
 s    6 1.00
             3047.5249  0.0018347001629433
             457.36951    0.01403730124668
             103.94869   0.068842606114048
             29.210155    0.23218442062076
              9.286663    0.46794134155879
              3.163927    0.36231203217765
 s    3 1.00
             7.8682724   -0.11933240861517
             1.8812885   -0.16085421161283
             0.5442493     1.1434564825515
 s    1 1.00
             0.1687144                   1
 p    3 1.00
             7.8682724   0.068999095584993
             1.8812885    0.31642397975315
             0.5442493    0.74430825237435
 p    1 1.00
             0.1687144                   1
 d    1 1.00
                   0.8                   1

4 0
 s    3 1.00
             18.731137    0.03349459952309
             2.8253937    0.23472694665786
             0.6401217    0.81375731841339
 s    1 1.00
             0.1612778                   1

5 0
 s    6 1.00
             3047.5249  0.0018347001629433
             457.36951    0.01403730124668
             103.94869   0.068842606114048
             29.210155    0.23218442062076
              9.286663    0.46794134155879
              3.163927    0.36231203217765
 s    3 1.00
             7.8682724   -0.11933240861517
             1.8812885   -0.16085421161283
             0.5442493     1.1434564825515
 s    1 1.00
             0.1687144                   1
 p    3 1.00
             7.8682724   0.068999095584993
             1.8812885    0.31642397975315
             0.5442493    0.74430825237435
 p    1 1.00
             0.1687144                   1
 d    1 1.00
                   0.8                   1

6 0
 s    3 1.00
             18.731137    0.03349459952309
             2.8253937    0.23472694665786
             0.6401217    0.81375731841339
 s    1 1.00
             0.1612778                   1

7 0
 s    6 1.00
             3047.5249  0.0018347001629433
             457.36951    0.01403730124668
             103.94869   0.068842606114048
             29.210155    0.23218442062076
              9.286663    0.46794134155879
              3.163927    0.36231203217765
 s    3 1.00
             7.8682724   -0.11933240861517
             1.8812885   -0.16085421161283
             0.5442493     1.1434564825515
 s    1 1.00
             0.1687144                   1
 p    3 1.00
             7.8682724   0.068999095584993
             1.8812885    0.31642397975315
             0.5442493    0.74430825237435
 p    1 1.00
             0.1687144                   1
 d    1 1.00
                   0.8                   1

8 0
 s    3 1.00
             18.731137    0.03349459952309
             2.8253937    0.23472694665786
             0.6401217    0.81375731841339
 s    1 1.00
             0.1612778                   1

9 0
 s    3 1.00
             18.731137    0.03349459952309
             2.8253937    0.23472694665786
             0.6401217    0.81375731841339
 s    1 1.00
             0.1612778                   1

10 0
 s    6 1.00
             3047.5249  0.0018347001629433
             457.36951    0.01403730124668
             103.94869   0.068842606114048
             29.210155    0.23218442062076
              9.286663    0.46794134155879
              3.163927    0.36231203217765
 s    3 1.00
             7.8682724   -0.11933240861517
             1.8812885   -0.16085421161283
             0.5442493     1.1434564825515
 s    1 1.00
             0.1687144                   1
 p    3 1.00
             7.8682724   0.068999095584993
             1.8812885    0.31642397975315
             0.5442493    0.74430825237435
 p    1 1.00
             0.1687144                   1
 d    1 1.00
                   0.8                   1

11 0
 s    3 1.00
             18.731137    0.03349459952309
             2.8253937    0.23472694665786
             0.6401217    0.81375731841339
 s    1 1.00
             0.1612778                   1

12 0
 s    6 1.00
             3047.5249  0.0018347001629433
             457.36951    0.01403730124668
             103.94869   0.068842606114048
             29.210155    0.23218442062076
              9.286663    0.46794134155879
              3.163927    0.36231203217765
 s    3 1.00
             7.8682724   -0.11933240861517
             1.8812885   -0.16085421161283
             0.5442493     1.1434564825515
 s    1 1.00
             0.1687144                   1
 p    3 1.00
             7.8682724   0.068999095584993
             1.8812885    0.31642397975315
             0.5442493    0.74430825237435
 p    1 1.00
             0.1687144                   1
 d    1 1.00
                   0.8                   1

13 0
 s    3 1.00
             18.731137    0.03349459952309
             2.8253937    0.23472694665786
             0.6401217    0.81375731841339
 s    1 1.00
             0.1612778                   1

14 0
 s    3 1.00
             18.731137    0.03349459952309
             2.8253937    0.23472694665786
             0.6401217    0.81375731841339
 s    1 1.00
             0.1612778                   1

15 0
 s    6 1.00
             3047.5249  0.0018347001629433
             457.36951    0.01403730124668
             103.94869   0.068842606114048
             29.210155    0.23218442062076
              9.286663    0.46794134155879
              3.163927    0.36231203217765
 s    3 1.00
             7.8682724   -0.11933240861517
             1.8812885   -0.16085421161283
             0.5442493     1.1434564825515
 s    1 1.00
             0.1687144                   1
 p    3 1.00
             7.8682724   0.068999095584993
             1.8812885    0.31642397975315
             0.5442493    0.74430825237435
 p    1 1.00
             0.1687144                   1
 d    1 1.00
                   0.8                   1

16 0
 s    6 1.00
             3047.5249  0.0018347001629433
             457.36951    0.01403730124668
             103.94869   0.068842606114048
             29.210155    0.23218442062076
              9.286663    0.46794134155879
              3.163927    0.36231203217765
 s    3 1.00
             7.8682724   -0.11933240861517
             1.8812885   -0.16085421161283
             0.5442493     1.1434564825515
 s    1 1.00
             0.1687144                   1
 p    3 1.00
             7.8682724   0.068999095584993
             1.8812885    0.31642397975315
             0.5442493    0.74430825237435
 p    1 1.00
             0.1687144                   1
 d    1 1.00
                   0.8                   1

17 0
 s    6 1.00
             3047.5249  0.0018347001629433
             457.36951    0.01403730124668
             103.94869   0.068842606114048
             29.210155    0.23218442062076
              9.286663    0.46794134155879
              3.163927    0.36231203217765
 s    3 1.00
             7.8682724   -0.11933240861517
             1.8812885   -0.16085421161283
             0.5442493     1.1434564825515
 s    1 1.00
             0.1687144                   1
 p    3 1.00
             7.8682724   0.068999095584993
             1.8812885    0.31642397975315
             0.5442493    0.74430825237435
 p    1 1.00
             0.1687144                   1
 d    1 1.00
                   0.8                   1

18 0
 s    6 1.00
             3047.5249  0.0018347001629433
             457.36951    0.01403730124668
             103.94869   0.068842606114048
             29.210155    0.23218442062076
              9.286663    0.46794134155879
              3.163927    0.36231203217765
 s    3 1.00
             7.8682724   -0.11933240861517
             1.8812885   -0.16085421161283
             0.5442493     1.1434564825515
 s    1 1.00
             0.1687144                   1
 p    3 1.00
             7.8682724   0.068999095584993
             1.8812885    0.31642397975315
             0.5442493    0.74430825237435
 p    1 1.00
             0.1687144                   1
 d    1 1.00
                   0.8                   1

19 0
 s    6 1.00
             3047.5249  0.0018347001629433
             457.36951    0.01403730124668
             103.94869   0.068842606114048
             29.210155    0.23218442062076
              9.286663    0.46794134155879
              3.163927    0.36231203217765
 s    3 1.00
             7.8682724   -0.11933240861517
             1.8812885   -0.16085421161283
             0.5442493     1.1434564825515
 s    1 1.00
             0.1687144                   1
 p    3 1.00
             7.8682724   0.068999095584993
             1.8812885    0.31642397975315
             0.5442493    0.74430825237435
 p    1 1.00
             0.1687144                   1
 d    1 1.00
                   0.8                   1

20 0
 s    6 1.00
             3047.5249  0.0018347001629433
             457.36951    0.01403730124668
             103.94869   0.068842606114048
             29.210155    0.23218442062076
              9.286663    0.46794134155879
              3.163927    0.36231203217765
 s    3 1.00
             7.8682724   -0.11933240861517
             1.8812885   -0.16085421161283
             0.5442493     1.1434564825515
 s    1 1.00
             0.1687144                   1
 p    3 1.00
             7.8682724   0.068999095584993
             1.8812885    0.31642397975315
             0.5442493    0.74430825237435
 p    1 1.00
             0.1687144                   1
 d    1 1.00
                   0.8                   1

21 0
 s    6 1.00
             3047.5249  0.0018347001629433
             457.36951    0.01403730124668
             103.94869   0.068842606114048
             29.210155    0.23218442062076
              9.286663    0.46794134155879
              3.163927    0.36231203217765
 s    3 1.00
             7.8682724   -0.11933240861517
             1.8812885   -0.16085421161283
             0.5442493     1.1434564825515
 s    1 1.00
             0.1687144                   1
 p    3 1.00
             7.8682724   0.068999095584993
             1.8812885    0.31642397975315
             0.5442493    0.74430825237435
 p    1 1.00
             0.1687144                   1
 d    1 1.00
                   0.8                   1

22 0
 s    3 1.00
             18.731137    0.03349459952309
             2.8253937    0.23472694665786
             0.6401217    0.81375731841339
 s    1 1.00
             0.1612778                   1

23 0
 s    3 1.00
             18.731137    0.03349459952309
             2.8253937    0.23472694665786
             0.6401217    0.81375731841339
 s    1 1.00
             0.1612778                   1

24 0
 s    3 1.00
             18.731137    0.03349459952309
             2.8253937    0.23472694665786
             0.6401217    0.81375731841339
 s    1 1.00
             0.1612778                   1

25 0
 s    3 1.00
             18.731137    0.03349459952309
             2.8253937    0.23472694665786
             0.6401217    0.81375731841339
 s    1 1.00
             0.1612778                   1

26 0
 s    3 1.00
             18.731137    0.03349459952309
             2.8253937    0.23472694665786
             0.6401217    0.81375731841339
 s    1 1.00
             0.1612778                   1

27 0
 s    3 1.00
             18.731137    0.03349459952309
             2.8253937    0.23472694665786
             0.6401217    0.81375731841339
 s    1 1.00
             0.1612778                   1

28 0
 s    3 1.00
             18.731137    0.03349459952309
             2.8253937    0.23472694665786
             0.6401217    0.81375731841339
 s    1 1.00
             0.1612778                   1

29 0
 s    3 1.00
             18.731137    0.03349459952309
             2.8253937    0.23472694665786
             0.6401217    0.81375731841339
 s    1 1.00
             0.1612778                   1

30 0
 s    3 1.00
             18.731137    0.03349459952309
             2.8253937    0.23472694665786
             0.6401217    0.81375731841339
 s    1 1.00
             0.1612778                   1

31 0
 s    3 1.00
             18.731137    0.03349459952309
             2.8253937    0.23472694665786
             0.6401217    0.81375731841339
 s    1 1.00
             0.1612778                   1

32 0
 s    3 1.00
             18.731137    0.03349459952309
             2.8253937    0.23472694665786
             0.6401217    0.81375731841339
 s    1 1.00
             0.1612778                   1

33 0
 s    6 1.00
             3047.5249  0.0018347001629433
             457.36951    0.01403730124668
             103.94869   0.068842606114048
             29.210155    0.23218442062076
              9.286663    0.46794134155879
              3.163927    0.36231203217765
 s    3 1.00
             7.8682724   -0.11933240861517
             1.8812885   -0.16085421161283
             0.5442493     1.1434564825515
 s    1 1.00
             0.1687144                   1
 p    3 1.00
             7.8682724   0.068999095584993
             1.8812885    0.31642397975315
             0.5442493    0.74430825237435
 p    1 1.00
             0.1687144                   1
 d    1 1.00
                   0.8                   1

34 0
 s    6 1.00
             3047.5249  0.0018347001629433
             457.36951    0.01403730124668
             103.94869   0.068842606114048
             29.210155    0.23218442062076
              9.286663    0.46794134155879
              3.163927    0.36231203217765
 s    3 1.00
             7.8682724   -0.11933240861517
             1.8812885   -0.16085421161283
             0.5442493     1.1434564825515
 s    1 1.00
             0.1687144                   1
 p    3 1.00
             7.8682724   0.068999095584993
             1.8812885    0.31642397975315
             0.5442493    0.74430825237435
 p    1 1.00
             0.1687144                   1
 d    1 1.00
                   0.8                   1

35 0
 s    3 1.00
             18.731137    0.03349459952309
             2.8253937    0.23472694665786
             0.6401217    0.81375731841339
 s    1 1.00
             0.1612778                   1

36 0
 s    6 1.00
             3047.5249  0.0018347001629433
             457.36951    0.01403730124668
             103.94869   0.068842606114048
             29.210155    0.23218442062076
              9.286663    0.46794134155879
              3.163927    0.36231203217765
 s    3 1.00
             7.8682724   -0.11933240861517
             1.8812885   -0.16085421161283
             0.5442493     1.1434564825515
 s    1 1.00
             0.1687144                   1
 p    3 1.00
             7.8682724   0.068999095584993
             1.8812885    0.31642397975315
             0.5442493    0.74430825237435
 p    1 1.00
             0.1687144                   1
 d    1 1.00
                   0.8                   1

37 0
 s    3 1.00
             18.731137    0.03349459952309
             2.8253937    0.23472694665786
             0.6401217    0.81375731841339
 s    1 1.00
             0.1612778                   1

38 0
 s    3 1.00
             18.731137    0.03349459952309
             2.8253937    0.23472694665786
             0.6401217    0.81375731841339
 s    1 1.00
             0.1612778                   1

39 0
 s    6 1.00
             3047.5249  0.0018347001629433
             457.36951    0.01403730124668
             103.94869   0.068842606114048
             29.210155    0.23218442062076
              9.286663    0.46794134155879
              3.163927    0.36231203217765
 s    3 1.00
             7.8682724   -0.11933240861517
             1.8812885   -0.16085421161283
             0.5442493     1.1434564825515
 s    1 1.00
             0.1687144                   1
 p    3 1.00
             7.8682724   0.068999095584993
             1.8812885    0.31642397975315
             0.5442493    0.74430825237435
 p    1 1.00
             0.1687144                   1
 d    1 1.00
                   0.8                   1

40 0
 s    6 1.00
             3047.5249  0.0018347001629433
             457.36951    0.01403730124668
             103.94869   0.068842606114048
             29.210155    0.23218442062076
              9.286663    0.46794134155879
              3.163927    0.36231203217765
 s    3 1.00
             7.8682724   -0.11933240861517
             1.8812885   -0.16085421161283
             0.5442493     1.1434564825515
 s    1 1.00
             0.1687144                   1
 p    3 1.00
             7.8682724   0.068999095584993
             1.8812885    0.31642397975315
             0.5442493    0.74430825237435
 p    1 1.00
             0.1687144                   1
 d    1 1.00
                   0.8                   1

41 0
 s    3 1.00
             18.731137    0.03349459952309
             2.8253937    0.23472694665786
             0.6401217    0.81375731841339
 s    1 1.00
             0.1612778                   1

42 0
 s    6 1.00
             5484.6717   0.001831099805527
             825.23495   0.013950098518422
             188.04696    0.06844509273075
               52.9645    0.23271427528445
              16.89757    0.47019295006289
             5.7996353    0.35852086192309
 s    3 1.00
             15.539616   -0.11077750382508
             3.5999336   -0.14802630511126
             1.0137618     1.1307670390447
 s    1 1.00
             0.2700058                   1
 p    3 1.00
             15.539616   0.070874299543311
             3.5999336    0.33975279781076
             1.0137618    0.72715859531445
 p    1 1.00
             0.2700058                   1
 d    1 1.00
                   0.8                   1

43 0
 s    3 1.00
             18.731137    0.03349459952309
             2.8253937    0.23472694665786
             0.6401217    0.81375731841339
 s    1 1.00
             0.1612778                   1

[5d]
[7f]
[9g]

[MO]
 Sym= A
 Ene=               0
 Spin= Alpha
 Occup=    1.00000
   1    -6.015331252773e-07
   2    -2.3981975420616e-05
   3    1.3906845005001e-05
   4    -9.9166642558378e-07
   5    -1.2998481090409e-05
   6    2.2858196484929e-05
   7    2.9265792874083e-05
   8    8.4763704868109e-05
   9    -0.00039646975555113
  10    7.6003675269981e-07
  11    1.1553758949821e-05
  12    2.6980616984267e-06
  13    1.459617404785e-05
  14    -8.051932937088e-06
  15    -1.6041776338964e-05
  16    1.8771981344716e-05
  17    5.3687481624815e-06
  18    0.00017664649987102
  19    0.00046806287682374
  20    6.2981752494189e-05
  21    -4.3196691312307e-06
  22    -8.5053199050093e-05
  23    0.00017728829869863
  24    -0.00010240498681279
  25    -0.00067007605509037
  26    2.0742677495398e-05
  27    -2.3800558879011e-05
  28     8.40468794136e-06
  29    4.4474852676008e-05
  30    -3.4374073192466e-06
  31    -9.9421398587729e-06
  32    3.337427557925e-05
  33    8.1294360344249e-05
  34    0.00031143900018896
  35    -0.0047338977003648
  36    -0.00011799330877239
  37    8.176229211688e-05
  38    0.00022308465036222
  39    -0.00045773587231965
  40    0.0020644008185263
  41    0.00061436089519999
  42    -2.8576174898679e-05
  43    0.00011201049838432
  44    -7.4430801861078e-05
  45    3.3030131581298e-05
  46    5.3266293293496e-05
  47    -1.0836239993168e-05
  48    -0.00027010944085482
  49    -5.4132755732419e-05
  50    0.00031652162944557
  51    0.0039045145513824
  52    0.00029482050816854
  53    -0.00035683217047371
  54    -0.00045447038889573
  55    -0.0016834299025088
  56    0.0026888491942663
  57    0.0023878036706485
  58    -1.8277006911037e-05
  59    3.7829665119778e-05
  60    0.00019617792883344
  61    2.0972418739491e-05
  62    -0.00012330438665956
  63    0.00041749612747508
  64    0.00014407092093485
  65    -2.6502779501624e-07
  66    -6.0169855409893e-07
  67    -8.2305581554612e-08
  68    -4.8698412814506e-07
  69    3.1862875225827e-06
  70    3.9467294892919e-07
  71    -4.6335169476403e-07
  72    5.3530022584993e-08
  73    4.1601049219824e-07
  74    1.2117193324536e-06
  75    3.6728249565429e-07
  76    -5.061355960757e-08
  77    -1.4254615896167e-07
  78    5.1824403929869e-08
  79    6.8383265353745e-08
  80    -1.1929861415578e-07
  81    7.4854944457196e-08
  82    -1.6047978786596e-07
  83    -5.3479895676369e-08
  84    -6.4579003789069e-08
  85    -1.284546064399e-05
  86    4.9551328975415e-07
  87    2.4607193406498e-08
  88    6.2548227146582e-07
  89    3.4961577970907e-06
  90    -4.7103304416146e-06
  91     2.63510405207e-06
  92    2.1114274991578e-07
  93    -3.6642768902308e-07
  94    2.6894895160391e-07
  95    8.9259354227411e-09
  96    -2.3141113553872e-07
  97    1.7734686065119e-07
  98    -4.4949425942674e-07
  99    2.4354237197129e-07
 100    -4.9413621379397e-07
 101    9.9317154958844e-08
 102    -1.4340805186978e-06
 103    1.4119186109964e-05
 104    1.7738993502293e-06
 105    1.0504716185069e-06
 106    -4.9680367593096e-07
 107    -1.9327914359304e-05
 108    2.0994087636081e-05
 109    3.0797085414829e-05
 110    -5.936121149611e-07
 111    -5.2151761254472e-07
 112    2.6800941503011e-07
 113    4.5969233595843e-07
 114    -5.1530521550734e-07
 115    -5.5722549241912e-07
 116    -4.748165860934e-06
 117    3.8698270956159e-05
 118    -7.6059337241213e-07
 119    1.1132048764281e-06
 120    6.0753142351804e-07
 121    -8.7666835662332e-06
 122    7.3958318090095e-07
 123    2.6397802291505e-06
 124    -5.3466582358731e-08
 125    -1.3756758363833e-07
 126    -8.5312284707389e-08
 127    1.0273118759163e-08
 128    -4.1940315710057e-07
 129    -8.9682821634984e-07
 130    -9.4714559675464e-06
 131    5.1767039612792e-05
 132    -4.5838509196288e-07
 133    -1.9046723938759e-06
 134    3.9722744326939e-06
 135    -2.6933371733805e-05
 136    2.032401097985e-07
 137    -8.3372127583738e-05
 138    2.6724397260187e-06
 139    1.510664956795e-06
 140    5.3542918370945e-07
 141    5.0568591440414e-07
 142    2.6020987716446e-07
 143    -6.1115410422455e-07
 144    -3.3532163537788e-06
 145    2.0473645297593e-05
 146    8.7338190618692e-07
 147    6.6400484533814e-07
 148    -2.8196114062167e-07
 149    1.257819782706e-05
 150    -6.6192556181422e-06
 151    -2.9602851426616e-06
 152    -1.1314886436044e-06
 153    -3.4848358509241e-07
 154    -8.9053939114149e-08
 155    7.1220283958482e-07
 156    -8.0383298738865e-07
 157    -7.0006090589533e-08
 158    1.3324593166027e-06
 159    1.7542071115849e-06
 160    8.4238048288701e-07
 161    -4.879314856329e-07
 162    -3.7003072448884e-07
 163    -6.9536136557496e-06
 164    2.7783300988035e-07
 165    8.3078103782899e-07
 166    4.1605777298787e-07
 167    -8.9883334396729e-08
 168    -2.2052919548541e-08
 169    -1.1785889118088e-07
 170    2.9066905834438e-07
 171    9.933461156049e-08
 172    -6.3014091307403e-07
 173    -1.8564788744497e-06
 174    -1.0191561356478e-06
 175    -3.5470036176827e-07
 176    9.1890058004614e-07
 177    -3.2011677643848e-07
 178    1.2628392338017e-06
 179    -2.1729301279611e-06
 180    1.4717540301678e-07
 181    1.6968735040988e-07
 182    6.9043705439651e-09
 183    -3.7596812720685e-07
 184    1.8104444089043e-07
 185    -2.7365623398067e-07
 186    -3.2721796846072e-06
 187    2.2355033320049e-06
 188    -1.3720031233636e-07
 189    1.7094274816161e-07
 190    1.3920259289804e-06
 191    3.0096546257461e-06
 192    8.5551940476476e-07
 193    -5.6856020199703e-06
 194    3.8515024605524e-07
 195    -7.1697615810808e-08
 196    1.794678046054e-07
 197    7.4565497879365e-08
 198    -1.1297383864305e-07
 199    -9.1177247426891e-07
 200    -1.7128382362888e-06
 201    2.6288433938435e-07
 202    4.0949156058146e-06
 203    -1.598242657385e-06
 204    -1.6032952168366e-06
 205    -7.1189262665236e-07
 206    -3.3817625176067e-06
 207    1.6792175781361e-06
 208    -1.2737761094547e-05
 209    1.2917992936573e-06
 210    -4.6912747514774e-06
 211    5.1170125945329e-07
 212    2.8548099041927e-06
 213    -5.1011648708478e-07
 214    -3.1812574201458e-06
 215    -6.8218171971888e-07
 216    4.554942009102e-07
 217    5.6218737398761e-07
 218    1.6231330812209e-06
 219    2.1438690229016e-07
 220    9.5204975195082e-07
 221    -9.7133858911035e-07
 222    -8.2953055112295e-06
 223    -2.4654554628228e-06
 224    1.8075252775786e-06
 225    -5.1333041980378e-06
 226    2.5608662097986e-06
 227    1.5877433332023e-05
 228    2.3161435119003e-05
 229    -0.00010015560738197
 230    -1.2770212372318e-06
 231    -4.2069030220629e-06
 232    -2.3747156770605e-06
 233    1.8215613333159e-06
 234    3.0865963886426e-06
 235    -9.8055504314121e-07
 236    -1.2903902150822e-05
 237    2.3573663462384e-05
 238    -2.2342009652605e-06
 239    8.7725380198078e-06
 240    6.5233915060691e-06
 241    -2.2137231593234e-05
 242    -3.8683865593876e-06
 243    -9.5458894370662e-05
 244    1.9972082169252e-06
 245    7.2032168010348e-06
 246    1.7672174850244e-06
 247    2.5806000583192e-06
 248    1.7254399579197e-06
 249    -4.2336834566245e-06
 250    1.1403291716409e-05
 251    -4.7875529878399e-06
 252    -2.8486962449715e-05
 253    0.00026348610489905
 254    5.6621818577872e-06
 255    -3.926829559793e-06
 256    5.0924605090744e-06
 257    0.00011357499188478
 258    0.00011760225039654
 259    -0.00025117806626851
 260    1.8591289806575e-06
 261    -1.2980803329401e-05
 262    -5.4690878222543e-06
 263    8.089424094259e-06
 264    6.6347571431805e-06
 265    -5.4296886726401e-06
 266    2.8507554395722e-05
 267    -8.6982218884233e-06
 268    4.2567505820912e-05
 269    -7.3101676633485e-05
 270    9.8442126706308e-06
 271    0.0033566311525373
 272    -0.00011760276350832
 273    -0.00025605733217425
 274    0.00014097530632691
 275    0.0021780054076479
 276    0.00062083901781284
 277    -0.0035134570406742
 278    0.0002378130862201
 279    -0.00022533205405142
 280    0.00015507803015334