[Molden Format]
made by pyscf v[2.0.1]
[Atoms] (AU)
C   1   6     0.69100024069495     0.64692934212497    -3.48223131168734
H   2   1     2.68052439835215     1.13355088667581    -3.25784032595959
C   3   6    -0.36286361514353     0.85440132525350    -5.97030179416329
H   4   1    -2.35448549056350     0.36322488588432    -6.17995817799568
C   5   6     0.93697958950647     1.61209284601065    -8.05828437675987
H   6   1     2.92721069186250     2.10853558287052    -7.87534295441726
C   7   6    -0.17413039189613     1.80008207487984   -10.52534301739428
H   8   1    -2.16943049770440     1.29533627648343   -10.67939296478009
H   9   1     1.55630230933264    -1.92953025311848    12.99630010417381
C   10   6     0.75233899783373    -2.21270439606859    11.10705728099195
H   11   1    -0.43433408176896    -3.90944857543337    11.22216085348160
C   12   6     2.86362581169447    -2.63237380608325     9.17926416459635
H   13   1     4.39038949906562    -1.24955421532309     9.49899813488174
H   14   1     3.74629220184371    -4.48798724298246     9.47414880962803
C   15   6     2.02478325622942    -2.42177285713224     6.44560829586187
C   16   6     3.88048732732831    -3.58795445236593     4.61402886975252
C   17   6    -0.18412382264649    -1.30464291231236     5.76021113881606
C   18   6    -2.10044360460382    -0.26837831862807     7.71610340970501
C   19   6    -3.08956938678556     2.35282328352614     6.88693925042618
C   20   6    -4.37372924094212    -2.09766595985142     7.93610724215954
C   21   6    -0.83850430593104     0.06372213486551    10.33002307643668
H   22   1     0.38411922142983     1.74281358590180    10.27380136539346
H   23   1    -2.30980003011276     0.45460143923765    11.73986301804329
H   24   1     4.58527064636731    -5.38706904479673     5.36778158023404
H   25   1     5.54944938091628    -2.37631462201630     4.35398898404058
H   26   1     3.06633019144754    -3.94118377051822     2.75255466032570
H   27   1    -4.17727778763546     2.26573369145191     5.12914900957504
H   28   1    -1.52662344935358     3.68001877441469     6.59540397151878
H   29   1    -4.32916174393862     3.13643051473529     8.35225460094913
H   30   1    -5.32329548507875    -2.36691813603695     6.11583672741581
H   31   1    -5.77989366598289    -1.33896741838552     9.25748940451935
H   32   1    -3.79310905209871    -3.96389819308585     8.61386170106276
C   33   6    -1.01100794815762    -1.06331657313199     3.11929490450892
C   34   6     0.37686231029920    -0.33275864510088     1.09165013596992
H   35   1    -3.01671213911428    -1.40297922289257     2.77827895090755
C   36   6    -0.64382707979748    -0.11591880174763    -1.42063131255788
H   37   1     2.35569259790262     0.17174499287298     1.33641070253857
H   38   1    -2.63317482972383    -0.60229203504227    -1.66119700396716
C   39   6     1.04406642127022     2.54697835791677   -12.65486785204246
C   40   6    -0.25769856063703     2.67711278008941   -15.08293200861523
H   41   1     3.03094671002655     3.07573165426063   -12.63261900496242
O   42   8     0.71886931482866     3.33224024015006   -17.06735820381613
H   43   1    -2.28855418566595     2.11893682007881   -15.01778643592878
[GTO]
1 0
 s    6 1.00
             3047.5249  0.0018347001629433
             457.36951    0.01403730124668
             103.94869   0.068842606114048
             29.210155    0.23218442062076
              9.286663    0.46794134155879
              3.163927    0.36231203217765
 s    3 1.00
             7.8682724   -0.11933240861517
             1.8812885   -0.16085421161283
             0.5442493     1.1434564825515
 s    1 1.00
             0.1687144                   1
 p    3 1.00
             7.8682724   0.068999095584993
             1.8812885    0.31642397975315
             0.5442493    0.74430825237435
 p    1 1.00
             0.1687144                   1
 d    1 1.00
                   0.8                   1

2 0
 s    3 1.00
             18.731137    0.03349459952309
             2.8253937    0.23472694665786
             0.6401217    0.81375731841339
 s    1 1.00
             0.1612778                   1

3 0
 s    6 1.00
             3047.5249  0.0018347001629433
             457.36951    0.01403730124668
             103.94869   0.068842606114048
             29.210155    0.23218442062076
              9.286663    0.46794134155879
              3.163927    0.36231203217765
 s    3 1.00
             7.8682724   -0.11933240861517
             1.8812885   -0.16085421161283
             0.5442493     1.1434564825515
 s    1 1.00
             0.1687144                   1
 p    3 1.00
             7.8682724   0.068999095584993
             1.8812885    0.31642397975315
             0.5442493    0.74430825237435
 p    1 1.00
             0.1687144                   1
 d    1 1.00
                   0.8                   1

4 0
 s    3 1.00
             18.731137    0.03349459952309
             2.8253937    0.23472694665786
             0.6401217    0.81375731841339
 s    1 1.00
             0.1612778                   1

5 0
 s    6 1.00
             3047.5249  0.0018347001629433
             457.36951    0.01403730124668
             103.94869   0.068842606114048
             29.210155    0.23218442062076
              9.286663    0.46794134155879
              3.163927    0.36231203217765
 s    3 1.00
             7.8682724   -0.11933240861517
             1.8812885   -0.16085421161283
             0.5442493     1.1434564825515
 s    1 1.00
             0.1687144                   1
 p    3 1.00
             7.8682724   0.068999095584993
             1.8812885    0.31642397975315
             0.5442493    0.74430825237435
 p    1 1.00
             0.1687144                   1
 d    1 1.00
                   0.8                   1

6 0
 s    3 1.00
             18.731137    0.03349459952309
             2.8253937    0.23472694665786
             0.6401217    0.81375731841339
 s    1 1.00
             0.1612778                   1

7 0
 s    6 1.00
             3047.5249  0.0018347001629433
             457.36951    0.01403730124668
             103.94869   0.068842606114048
             29.210155    0.23218442062076
              9.286663    0.46794134155879
              3.163927    0.36231203217765
 s    3 1.00
             7.8682724   -0.11933240861517
             1.8812885   -0.16085421161283
             0.5442493     1.1434564825515
 s    1 1.00
             0.1687144                   1
 p    3 1.00
             7.8682724   0.068999095584993
             1.8812885    0.31642397975315
             0.5442493    0.74430825237435
 p    1 1.00
             0.1687144                   1
 d    1 1.00
                   0.8                   1

8 0
 s    3 1.00
             18.731137    0.03349459952309
             2.8253937    0.23472694665786
             0.6401217    0.81375731841339
 s    1 1.00
             0.1612778                   1

9 0
 s    3 1.00
             18.731137    0.03349459952309
             2.8253937    0.23472694665786
             0.6401217    0.81375731841339
 s    1 1.00
             0.1612778                   1

10 0
 s    6 1.00
             3047.5249  0.0018347001629433
             457.36951    0.01403730124668
             103.94869   0.068842606114048
             29.210155    0.23218442062076
              9.286663    0.46794134155879
              3.163927    0.36231203217765
 s    3 1.00
             7.8682724   -0.11933240861517
             1.8812885   -0.16085421161283
             0.5442493     1.1434564825515
 s    1 1.00
             0.1687144                   1
 p    3 1.00
             7.8682724   0.068999095584993
             1.8812885    0.31642397975315
             0.5442493    0.74430825237435
 p    1 1.00
             0.1687144                   1
 d    1 1.00
                   0.8                   1

11 0
 s    3 1.00
             18.731137    0.03349459952309
             2.8253937    0.23472694665786
             0.6401217    0.81375731841339
 s    1 1.00
             0.1612778                   1

12 0
 s    6 1.00
             3047.5249  0.0018347001629433
             457.36951    0.01403730124668
             103.94869   0.068842606114048
             29.210155    0.23218442062076
              9.286663    0.46794134155879
              3.163927    0.36231203217765
 s    3 1.00
             7.8682724   -0.11933240861517
             1.8812885   -0.16085421161283
             0.5442493     1.1434564825515
 s    1 1.00
             0.1687144                   1
 p    3 1.00
             7.8682724   0.068999095584993
             1.8812885    0.31642397975315
             0.5442493    0.74430825237435
 p    1 1.00
             0.1687144                   1
 d    1 1.00
                   0.8                   1

13 0
 s    3 1.00
             18.731137    0.03349459952309
             2.8253937    0.23472694665786
             0.6401217    0.81375731841339
 s    1 1.00
             0.1612778                   1

14 0
 s    3 1.00
             18.731137    0.03349459952309
             2.8253937    0.23472694665786
             0.6401217    0.81375731841339
 s    1 1.00
             0.1612778                   1

15 0
 s    6 1.00
             3047.5249  0.0018347001629433
             457.36951    0.01403730124668
             103.94869   0.068842606114048
             29.210155    0.23218442062076
              9.286663    0.46794134155879
              3.163927    0.36231203217765
 s    3 1.00
             7.8682724   -0.11933240861517
             1.8812885   -0.16085421161283
             0.5442493     1.1434564825515
 s    1 1.00
             0.1687144                   1
 p    3 1.00
             7.8682724   0.068999095584993
             1.8812885    0.31642397975315
             0.5442493    0.74430825237435
 p    1 1.00
             0.1687144                   1
 d    1 1.00
                   0.8                   1

16 0
 s    6 1.00
             3047.5249  0.0018347001629433
             457.36951    0.01403730124668
             103.94869   0.068842606114048
             29.210155    0.23218442062076
              9.286663    0.46794134155879
              3.163927    0.36231203217765
 s    3 1.00
             7.8682724   -0.11933240861517
             1.8812885   -0.16085421161283
             0.5442493     1.1434564825515
 s    1 1.00
             0.1687144                   1
 p    3 1.00
             7.8682724   0.068999095584993
             1.8812885    0.31642397975315
             0.5442493    0.74430825237435
 p    1 1.00
             0.1687144                   1
 d    1 1.00
                   0.8                   1

17 0
 s    6 1.00
             3047.5249  0.0018347001629433
             457.36951    0.01403730124668
             103.94869   0.068842606114048
             29.210155    0.23218442062076
              9.286663    0.46794134155879
              3.163927    0.36231203217765
 s    3 1.00
             7.8682724   -0.11933240861517
             1.8812885   -0.16085421161283
             0.5442493     1.1434564825515
 s    1 1.00
             0.1687144                   1
 p    3 1.00
             7.8682724   0.068999095584993
             1.8812885    0.31642397975315
             0.5442493    0.74430825237435
 p    1 1.00
             0.1687144                   1
 d    1 1.00
                   0.8                   1

18 0
 s    6 1.00
             3047.5249  0.0018347001629433
             457.36951    0.01403730124668
             103.94869   0.068842606114048
             29.210155    0.23218442062076
              9.286663    0.46794134155879
              3.163927    0.36231203217765
 s    3 1.00
             7.8682724   -0.11933240861517
             1.8812885   -0.16085421161283
             0.5442493     1.1434564825515
 s    1 1.00
             0.1687144                   1
 p    3 1.00
             7.8682724   0.068999095584993
             1.8812885    0.31642397975315
             0.5442493    0.74430825237435
 p    1 1.00
             0.1687144                   1
 d    1 1.00
                   0.8                   1

19 0
 s    6 1.00
             3047.5249  0.0018347001629433
             457.36951    0.01403730124668
             103.94869   0.068842606114048
             29.210155    0.23218442062076
              9.286663    0.46794134155879
              3.163927    0.36231203217765
 s    3 1.00
             7.8682724   -0.11933240861517
             1.8812885   -0.16085421161283
             0.5442493     1.1434564825515
 s    1 1.00
             0.1687144                   1
 p    3 1.00
             7.8682724   0.068999095584993
             1.8812885    0.31642397975315
             0.5442493    0.74430825237435
 p    1 1.00
             0.1687144                   1
 d    1 1.00
                   0.8                   1

20 0
 s    6 1.00
             3047.5249  0.0018347001629433
             457.36951    0.01403730124668
             103.94869   0.068842606114048
             29.210155    0.23218442062076
              9.286663    0.46794134155879
              3.163927    0.36231203217765
 s    3 1.00
             7.8682724   -0.11933240861517
             1.8812885   -0.16085421161283
             0.5442493     1.1434564825515
 s    1 1.00
             0.1687144                   1
 p    3 1.00
             7.8682724   0.068999095584993
             1.8812885    0.31642397975315
             0.5442493    0.74430825237435
 p    1 1.00
             0.1687144                   1
 d    1 1.00
                   0.8                   1

21 0
 s    6 1.00
             3047.5249  0.0018347001629433
             457.36951    0.01403730124668
             103.94869   0.068842606114048
             29.210155    0.23218442062076
              9.286663    0.46794134155879
              3.163927    0.36231203217765
 s    3 1.00
             7.8682724   -0.11933240861517
             1.8812885   -0.16085421161283
             0.5442493     1.1434564825515
 s    1 1.00
             0.1687144                   1
 p    3 1.00
             7.8682724   0.068999095584993
             1.8812885    0.31642397975315
             0.5442493    0.74430825237435
 p    1 1.00
             0.1687144                   1
 d    1 1.00
                   0.8                   1

22 0
 s    3 1.00
             18.731137    0.03349459952309
             2.8253937    0.23472694665786
             0.6401217    0.81375731841339
 s    1 1.00
             0.1612778                   1

23 0
 s    3 1.00
             18.731137    0.03349459952309
             2.8253937    0.23472694665786
             0.6401217    0.81375731841339
 s    1 1.00
             0.1612778                   1

24 0
 s    3 1.00
             18.731137    0.03349459952309
             2.8253937    0.23472694665786
             0.6401217    0.81375731841339
 s    1 1.00
             0.1612778                   1

25 0
 s    3 1.00
             18.731137    0.03349459952309
             2.8253937    0.23472694665786
             0.6401217    0.81375731841339
 s    1 1.00
             0.1612778                   1

26 0
 s    3 1.00
             18.731137    0.03349459952309
             2.8253937    0.23472694665786
             0.6401217    0.81375731841339
 s    1 1.00
             0.1612778                   1

27 0
 s    3 1.00
             18.731137    0.03349459952309
             2.8253937    0.23472694665786
             0.6401217    0.81375731841339
 s    1 1.00
             0.1612778                   1

28 0
 s    3 1.00
             18.731137    0.03349459952309
             2.8253937    0.23472694665786
             0.6401217    0.81375731841339
 s    1 1.00
             0.1612778                   1

29 0
 s    3 1.00
             18.731137    0.03349459952309
             2.8253937    0.23472694665786
             0.6401217    0.81375731841339
 s    1 1.00
             0.1612778                   1

30 0
 s    3 1.00
             18.731137    0.03349459952309
             2.8253937    0.23472694665786
             0.6401217    0.81375731841339
 s    1 1.00
             0.1612778                   1

31 0
 s    3 1.00
             18.731137    0.03349459952309
             2.8253937    0.23472694665786
             0.6401217    0.81375731841339
 s    1 1.00
             0.1612778                   1

32 0
 s    3 1.00
             18.731137    0.03349459952309
             2.8253937    0.23472694665786
             0.6401217    0.81375731841339
 s    1 1.00
             0.1612778                   1

33 0
 s    6 1.00
             3047.5249  0.0018347001629433
             457.36951    0.01403730124668
             103.94869   0.068842606114048
             29.210155    0.23218442062076
              9.286663    0.46794134155879
              3.163927    0.36231203217765
 s    3 1.00
             7.8682724   -0.11933240861517
             1.8812885   -0.16085421161283
             0.5442493     1.1434564825515
 s    1 1.00
             0.1687144                   1
 p    3 1.00
             7.8682724   0.068999095584993
             1.8812885    0.31642397975315
             0.5442493    0.74430825237435
 p    1 1.00
             0.1687144                   1
 d    1 1.00
                   0.8                   1

34 0
 s    6 1.00
             3047.5249  0.0018347001629433
             457.36951    0.01403730124668
             103.94869   0.068842606114048
             29.210155    0.23218442062076
              9.286663    0.46794134155879
              3.163927    0.36231203217765
 s    3 1.00
             7.8682724   -0.11933240861517
             1.8812885   -0.16085421161283
             0.5442493     1.1434564825515
 s    1 1.00
             0.1687144                   1
 p    3 1.00
             7.8682724   0.068999095584993
             1.8812885    0.31642397975315
             0.5442493    0.74430825237435
 p    1 1.00
             0.1687144                   1
 d    1 1.00
                   0.8                   1

35 0
 s    3 1.00
             18.731137    0.03349459952309
             2.8253937    0.23472694665786
             0.6401217    0.81375731841339
 s    1 1.00
             0.1612778                   1

36 0
 s    6 1.00
             3047.5249  0.0018347001629433
             457.36951    0.01403730124668
             103.94869   0.068842606114048
             29.210155    0.23218442062076
              9.286663    0.46794134155879
              3.163927    0.36231203217765
 s    3 1.00
             7.8682724   -0.11933240861517
             1.8812885   -0.16085421161283
             0.5442493     1.1434564825515
 s    1 1.00
             0.1687144                   1
 p    3 1.00
             7.8682724   0.068999095584993
             1.8812885    0.31642397975315
             0.5442493    0.74430825237435
 p    1 1.00
             0.1687144                   1
 d    1 1.00
                   0.8                   1

37 0
 s    3 1.00
             18.731137    0.03349459952309
             2.8253937    0.23472694665786
             0.6401217    0.81375731841339
 s    1 1.00
             0.1612778                   1

38 0
 s    3 1.00
             18.731137    0.03349459952309
             2.8253937    0.23472694665786
             0.6401217    0.81375731841339
 s    1 1.00
             0.1612778                   1

39 0
 s    6 1.00
             3047.5249  0.0018347001629433
             457.36951    0.01403730124668
             103.94869   0.068842606114048
             29.210155    0.23218442062076
              9.286663    0.46794134155879
              3.163927    0.36231203217765
 s    3 1.00
             7.8682724   -0.11933240861517
             1.8812885   -0.16085421161283
             0.5442493     1.1434564825515
 s    1 1.00
             0.1687144                   1
 p    3 1.00
             7.8682724   0.068999095584993
             1.8812885    0.31642397975315
             0.5442493    0.74430825237435
 p    1 1.00
             0.1687144                   1
 d    1 1.00
                   0.8                   1

40 0
 s    6 1.00
             3047.5249  0.0018347001629433
             457.36951    0.01403730124668
             103.94869   0.068842606114048
             29.210155    0.23218442062076
              9.286663    0.46794134155879
              3.163927    0.36231203217765
 s    3 1.00
             7.8682724   -0.11933240861517
             1.8812885   -0.16085421161283
             0.5442493     1.1434564825515
 s    1 1.00
             0.1687144                   1
 p    3 1.00
             7.8682724   0.068999095584993
             1.8812885    0.31642397975315
             0.5442493    0.74430825237435
 p    1 1.00
             0.1687144                   1
 d    1 1.00
                   0.8                   1

41 0
 s    3 1.00
             18.731137    0.03349459952309
             2.8253937    0.23472694665786
             0.6401217    0.81375731841339
 s    1 1.00
             0.1612778                   1

42 0
 s    6 1.00
             5484.6717   0.001831099805527
             825.23495   0.013950098518422
             188.04696    0.06844509273075
               52.9645    0.23271427528445
              16.89757    0.47019295006289
             5.7996353    0.35852086192309
 s    3 1.00
             15.539616   -0.11077750382508
             3.5999336   -0.14802630511126
             1.0137618     1.1307670390447
 s    1 1.00
             0.2700058                   1
 p    3 1.00
             15.539616   0.070874299543311
             3.5999336    0.33975279781076
             1.0137618    0.72715859531445
 p    1 1.00
             0.2700058                   1
 d    1 1.00
                   0.8                   1

43 0
 s    3 1.00
             18.731137    0.03349459952309
             2.8253937    0.23472694665786
             0.6401217    0.81375731841339
 s    1 1.00
             0.1612778                   1

[5d]
[7f]
[9g]

[MO]
 Sym= A
 Ene=               0
 Spin= Alpha
 Occup=    1.00000
   1    -1.273294512959e-05
   2    -5.848604510515e-05
   3    -7.6834408707225e-06
   4    -2.8407332579081e-05
   5    -1.4921687104383e-05
   6    3.732906555992e-05
   7    0.00029008210215615
   8    0.00030584353639123
   9    -0.0011637386491346
  10    2.538829715835e-05
  11    4.3536126146859e-05
  12    1.2824381680219e-06
  13    9.7340256552856e-06
  14    -3.6072671099928e-06
  15    -5.8551439482637e-05
  16    -2.9927213565198e-05
  17    2.5028787596874e-05
  18    0.00011346841934312
  19    -0.0025128161846071
  20    -1.8082017995852e-05
  21    -1.9751919405941e-05
  22    7.6145162551377e-05
  23    -0.00050136700795135
  24    -0.00028009931009616
  25    0.00074447174092772
  26    -6.601440051568e-05
  27    1.0909773552391e-05
  28    2.5557985038201e-05
  29    4.453849368826e-06
  30    -1.1540903354351e-06
  31    -1.5395806016695e-06
  32    0.00012935555816753
  33    -9.4580237576532e-05
  34    -0.00036803933430968
  35     0.006176834650904
  36    -3.0904565276365e-06
  37    3.7905416868928e-05
  38    -0.00019697257038923
  39    -0.0023200385882884
  40    -0.00031726156114428
  41    -0.0015420052234506
  42    0.00016900308174393
  43    7.6028664117035e-05
  44    -4.9504801284644e-05
  45    4.9161990138142e-05
  46    1.4948639993992e-05
  47    4.7390802375764e-05
  48    0.00032726496886604
  49    6.5088669891028e-05
  50     -0.00024949261026
  51    -0.0046916779704605
  52    0.00020742749619626
  53    -6.4634784973552e-05
  54    0.00061051304363467
  55    -0.0020648260000688
  56    0.00024900805443576
  57    -0.0040749607031165
  58    -0.00011094981199187
  59    -0.00021063751245452
  60    -3.6396281214232e-05
  61    6.0021754108824e-05
  62    8.1503462002053e-05
  63    -0.00040502016449449
  64    -0.00020801124617611
  65    -1.8996105269513e-07
  66    2.2475512796778e-06
  67    -1.8333900927725e-07
  68    -1.8574264071656e-06
  69    1.0367848759362e-06
  70    1.0807296716357e-06
  71    -1.140184979563e-06
  72    4.7526347236973e-07
  73    2.1928957097899e-06
  74    8.2732369726151e-07
  75    -3.354346670314e-06
  76    2.9389329216392e-07
  77    5.2679273178208e-08
  78    1.9342408269551e-07
  79    1.7181683083996e-07
  80    7.8668427367857e-08
  81    5.9487306414153e-08
  82    6.3726597550977e-07
  83    3.5788393917745e-07
  84    2.5835093038171e-06
  85    -1.2820840764032e-05
  86    4.3749430991579e-07
  87    1.8445119404925e-07
  88    9.5130939060832e-07
  89    6.9819035777837e-06
  90    -1.1013155492707e-05
  91    1.9834704871619e-07
  92    -1.634743916058e-07
  93    -6.1853080073116e-07
  94    1.1455054777064e-06
  95    -4.090275455245e-07
  96    -4.0903018121743e-09
  97    1.6891390434629e-06
  98    9.0366780514949e-07
  99    -4.7343216297943e-07
 100    -1.966568327418e-06
 101    -8.890950065226e-07
 102    -4.0139103624037e-06
 103    0.00011050521233559
 104    -1.392015525756e-06
 105    2.6878105604203e-07
 106    -2.8384875371779e-06
 107    -4.3071305957778e-05
 108    4.2992814503993e-05
 109    -8.7406090066149e-06
 110    9.2436696648039e-07
 111    1.3334081897513e-06
 112    -5.8403237717718e-07
 113    -2.6624879696304e-07
 114    -2.0302229549413e-06
 115    3.8661585616985e-07
 116    4.2750602434489e-06
 117    -4.3058908546997e-06
 118    -6.8780235014822e-07
 119    2.728054543556e-06
 120    -1.8517733664648e-06
 121    5.4905436788817e-06
 122    -1.7771816892959e-05
 123    1.743746626318e-05
 124    6.9518726232789e-07
 125    -5.1319259571297e-07
 126    -1.0056987908427e-06
 127    -3.9470809715981e-07
 128    -1.7492985889582e-07
 129    2.0150227718073e-07
 130    2.1867924728832e-06
 131    5.5699772913677e-05
 132    6.5881979903872e-06
 133    8.7172655407115e-07
 134    -3.923772631419e-06
 135    -0.00014312631917887
 136    1.8093693372983e-05
 137    -4.0681670963151e-05
 138    1.5561100345055e-06
 139    1.0418306296802e-06
 140    3.2750834435343e-06
 141    -4.0937237077117e-07
 142    2.1529137502749e-06
 143    1.6766342053103e-07
 144    -1.0409807849331e-06
 145    -5.0834325269998e-05
 146    -3.9706108369771e-07
 147    -1.0416185582125e-06
 148    5.7568247093812e-06
 149    -1.594190204706e-05
 150    4.0045645273311e-05
 151    -1.4901982329872e-05
 152    -1.3886862744912e-06
 153    3.9339778300274e-07
 154    -2.3767214752437e-06
 155    -7.4029680910958e-08
 156    -1.0802135664492e-06
 157    7.3441670356348e-07
 158    6.001697348726e-06
 159    -3.2918619835698e-05
 160    7.201076068669e-07
 161    7.2365044074993e-07
 162    -9.3632973109728e-07
 163    -1.2243219018009e-05
 164    1.2619386234171e-05
 165    1.6865314939534e-06
 166     1.12319630989e-06
 167    -1.8337590182557e-07
 168    2.6727463842069e-07
 169    4.467669415805e-07
 170    9.0286681728897e-07
 171    8.7706531202379e-08
 172    3.9237258598273e-07
 173    3.3134648331765e-06
 174    -2.8706192068393e-07
 175    -2.3918497707672e-07
 176    1.7813935547272e-06
 177    1.3488877344344e-05
 178    4.4836914918214e-06
 179    5.1721972386642e-06
 180    -3.0081634896099e-07
 181    1.6014924268122e-06
 182    -1.2771003406238e-07
 183    7.8108653051909e-07
 184    1.2413738717802e-06
 185    -8.7893632158997e-07
 186    -7.3358249017246e-06
 187    3.3297876568477e-05
 188    -1.4634855593051e-06
 189    -7.753693230738e-08
 190    -1.0689488106654e-07
 191    7.0793380932979e-07
 192    -1.0314893753836e-05
 193    -1.7221775852167e-05
 194    8.4505167951154e-07
 195    8.8985790303017e-07
 196    1.6574937422072e-06
 197    -6.0087714146696e-07
 198    4.1325086682505e-07
 199    -2.2955978412557e-06
 200    9.8222068709177e-07
 201    -3.9041922471836e-07
 202    2.417265706956e-06
 203    -1.7381131972419e-06
 204    -1.0150845460647e-05
 205    3.5532552102181e-06
 206    9.9251459803302e-07
 207    1.0973789315301e-06
 208    1.0641840869139e-05
 209    2.6996690257426e-06
 210    -8.3813383835285e-07
 211    1.9640144107785e-06
 212    4.6373731200268e-06
 213    6.2240307004151e-07
 214    -4.2268071197631e-06
 215    -3.2829282773325e-06
 216    1.9582064828288e-05
 217    9.9721535389951e-07
 218    3.2095247819401e-07
 219    8.7831273477889e-07
 220    -2.3510260675343e-06
 221    -4.2315110390724e-06
 222    -2.8054919996549e-05
 223    0.00029531036839521
 224    6.298069820363e-06
 225    1.3425554515194e-06
 226    7.9781594309078e-07
 227    5.856171070102e-05
 228    6.4345483553941e-05
 229    -0.00031916241261098
 230    6.5305201360853e-06
 231    -1.0502711712106e-05
 232    -8.079166780798e-06
 233    3.6273538393963e-06
 234    3.5059476374153e-06
 235    7.9267232890636e-06
 236    4.5691994815126e-05
 237    -0.00082656803678137
 238    -6.5146347887198e-06
 239    -5.9388072113385e-06
 240    2.1536432620324e-05
 241    0.00026518163432502
 242    5.2187629990146e-05
 243    8.9194329934921e-05
 244    -2.1498921096326e-05
 245    4.9380425126063e-06
 246    9.0321501107989e-06
 247    -1.5599327386265e-06
 248    -2.173345569345e-06
 249    -1.2371653177828e-05
 250    -1.986440579594e-05
 251    -9.0593777755922e-06
 252    -6.3422621756484e-05
 253    0.0012054831663119
 254    -1.488775950428e-05
 255    2.9439362489322e-06
 256    -3.6937818021474e-05
 257    0.00053049758486669
 258    0.00012316627510879
 259    0.00010355267667267
 260    2.119634375168e-05
 261    -6.5205989782092e-06
 262    -1.0822996053386e-05
 263    6.0471987028772e-06
 264    5.6344971003187e-06
 265    -1.1545438398152e-05
 266    -2.3197369536177e-06
 267    2.9344199547291e-05
 268    8.131330641398e-05
 269    7.2535141287444e-05
 270    -1.1924426934669e-05
 271    -0.0034113411093719
 272    0.00027250049543491
 273    9.3814357789744e-05
 274    -0.00010581653704947
 275    -0.0014195155078296
 276    -0.0011485805633654
 277     0.003883425688603
 278    -0.00037333691570742
 279    4.4518615848617e-05
 280    0.00010980658619809