[Molden Format]
made by pyscf v[2.0.1]
[Atoms] (AU)
C   1   6     0.69100024066471     0.64692934207205    -3.48223131169301
H   2   1     2.68052439830868     1.13355088658700    -3.25784032593313
C   3   6    -0.36286361513219     0.85440132524594    -5.97030179418974
H   4   1    -2.35448549047279     0.36322488579172    -6.17995817793143
C   5   6     0.93697958957450     1.61209284601821    -8.05828437677121
H   6   1    -0.10682308805726     2.30253989392639    -9.69373588628611
C   7   6     3.64263503193718     1.55467149193689    -8.23832629511906
H   8   1     4.66272936056768     0.85936926442728    -6.58433578959761
H   9   1     1.55630230933075    -1.92953025305990    12.99630010416247
C   10   6     0.75233899775814    -2.21270439606481    11.10705728102219
H   11   1    -0.43433408177274    -3.90944857546550    11.22216085340412
C   12   6     2.86362581178706    -2.63237380607947     9.17926416456045
H   13   1     4.39038949912609    -1.24955421540245     9.49899813497433
H   14   1     3.74629220191363    -4.48798724300892     9.47414880959024
C   15   6     2.02478325613682    -2.42177285709634     6.44560829588644
C   16   6     3.88048732735477    -3.58795445234514     4.61402886975252
C   17   6    -0.18412382258602    -1.30464291234259     5.76021113872346
C   18   6    -2.10044360464350    -0.26837831858460     7.71610340967100
C   19   6    -3.08956938670431     2.35282328359417     6.88693925039594
C   20   6    -4.37372924086464    -2.09766595989678     7.93610724222001
C   21   6    -0.83850430601230     0.06372213486173    10.33002307638377
H   22   1     0.38411922151109     1.74281358582432    10.27380136542181
H   23   1    -2.30980003007874     0.45460143924521    11.73986301809809
H   24   1     4.58527064644668    -5.38706904487420     5.36778158031719
H   25   1     5.54944938085014    -2.37631462192748     4.35398898413318
H   26   1     3.06633019150423    -3.94118377050688     2.75255466040884
H   27   1    -4.17727778763735     2.26573369139522     5.12914900961283
H   28   1    -1.52662344944051     3.68001877445626     6.59540397144508
H   29   1    -4.32916174397830     3.13643051467482     8.35225460090378
H   30   1    -5.32329548508442    -2.36691813602939     6.11583672749896
H   31   1    -5.77989366602257    -1.33896741843465     9.25748940450990
H   32   1    -3.79310905208926    -3.96389819310853     8.61386170102686
C   33   6    -1.01100794811226    -1.06331657314144     3.11929490449947
C   34   6     0.37686231036534    -0.33275864505552     1.09165013605873
H   35   1    -3.01671213906703    -1.40297922279997     2.77827895090944
C   36   6    -0.64382707979370    -0.11591880174385    -1.42063131251064
H   37   1     2.35569259782137     0.17174499283897     1.33641070251401
H   38   1    -2.63317482980319    -0.60229203511219    -1.66119700387645
C   39   6     5.01588399354044     2.28654094702299   -10.27677863573407
C   40   6     7.77080404832789     2.15450646451281   -10.27454889780196
H   41   1     4.11782812209845     2.99683739506263   -11.98462609656630
O   42   8     9.12060555425099     2.77825484064970   -12.03801083010553
H   43   1     8.60983853061047     1.41663292301779    -8.48800399433497
[GTO]
1 0
 s    6 1.00
             3047.5249  0.0018347001629433
             457.36951    0.01403730124668
             103.94869   0.068842606114048
             29.210155    0.23218442062076
              9.286663    0.46794134155879
              3.163927    0.36231203217765
 s    3 1.00
             7.8682724   -0.11933240861517
             1.8812885   -0.16085421161283
             0.5442493     1.1434564825515
 s    1 1.00
             0.1687144                   1
 p    3 1.00
             7.8682724   0.068999095584993
             1.8812885    0.31642397975315
             0.5442493    0.74430825237435
 p    1 1.00
             0.1687144                   1
 d    1 1.00
                   0.8                   1

2 0
 s    3 1.00
             18.731137    0.03349459952309
             2.8253937    0.23472694665786
             0.6401217    0.81375731841339
 s    1 1.00
             0.1612778                   1

3 0
 s    6 1.00
             3047.5249  0.0018347001629433
             457.36951    0.01403730124668
             103.94869   0.068842606114048
             29.210155    0.23218442062076
              9.286663    0.46794134155879
              3.163927    0.36231203217765
 s    3 1.00
             7.8682724   -0.11933240861517
             1.8812885   -0.16085421161283
             0.5442493     1.1434564825515
 s    1 1.00
             0.1687144                   1
 p    3 1.00
             7.8682724   0.068999095584993
             1.8812885    0.31642397975315
             0.5442493    0.74430825237435
 p    1 1.00
             0.1687144                   1
 d    1 1.00
                   0.8                   1

4 0
 s    3 1.00
             18.731137    0.03349459952309
             2.8253937    0.23472694665786
             0.6401217    0.81375731841339
 s    1 1.00
             0.1612778                   1

5 0
 s    6 1.00
             3047.5249  0.0018347001629433
             457.36951    0.01403730124668
             103.94869   0.068842606114048
             29.210155    0.23218442062076
              9.286663    0.46794134155879
              3.163927    0.36231203217765
 s    3 1.00
             7.8682724   -0.11933240861517
             1.8812885   -0.16085421161283
             0.5442493     1.1434564825515
 s    1 1.00
             0.1687144                   1
 p    3 1.00
             7.8682724   0.068999095584993
             1.8812885    0.31642397975315
             0.5442493    0.74430825237435
 p    1 1.00
             0.1687144                   1
 d    1 1.00
                   0.8                   1

6 0
 s    3 1.00
             18.731137    0.03349459952309
             2.8253937    0.23472694665786
             0.6401217    0.81375731841339
 s    1 1.00
             0.1612778                   1

7 0
 s    6 1.00
             3047.5249  0.0018347001629433
             457.36951    0.01403730124668
             103.94869   0.068842606114048
             29.210155    0.23218442062076
              9.286663    0.46794134155879
              3.163927    0.36231203217765
 s    3 1.00
             7.8682724   -0.11933240861517
             1.8812885   -0.16085421161283
             0.5442493     1.1434564825515
 s    1 1.00
             0.1687144                   1
 p    3 1.00
             7.8682724   0.068999095584993
             1.8812885    0.31642397975315
             0.5442493    0.74430825237435
 p    1 1.00
             0.1687144                   1
 d    1 1.00
                   0.8                   1

8 0
 s    3 1.00
             18.731137    0.03349459952309
             2.8253937    0.23472694665786
             0.6401217    0.81375731841339
 s    1 1.00
             0.1612778                   1

9 0
 s    3 1.00
             18.731137    0.03349459952309
             2.8253937    0.23472694665786
             0.6401217    0.81375731841339
 s    1 1.00
             0.1612778                   1

10 0
 s    6 1.00
             3047.5249  0.0018347001629433
             457.36951    0.01403730124668
             103.94869   0.068842606114048
             29.210155    0.23218442062076
              9.286663    0.46794134155879
              3.163927    0.36231203217765
 s    3 1.00
             7.8682724   -0.11933240861517
             1.8812885   -0.16085421161283
             0.5442493     1.1434564825515
 s    1 1.00
             0.1687144                   1
 p    3 1.00
             7.8682724   0.068999095584993
             1.8812885    0.31642397975315
             0.5442493    0.74430825237435
 p    1 1.00
             0.1687144                   1
 d    1 1.00
                   0.8                   1

11 0
 s    3 1.00
             18.731137    0.03349459952309
             2.8253937    0.23472694665786
             0.6401217    0.81375731841339
 s    1 1.00
             0.1612778                   1

12 0
 s    6 1.00
             3047.5249  0.0018347001629433
             457.36951    0.01403730124668
             103.94869   0.068842606114048
             29.210155    0.23218442062076
              9.286663    0.46794134155879
              3.163927    0.36231203217765
 s    3 1.00
             7.8682724   -0.11933240861517
             1.8812885   -0.16085421161283
             0.5442493     1.1434564825515
 s    1 1.00
             0.1687144                   1
 p    3 1.00
             7.8682724   0.068999095584993
             1.8812885    0.31642397975315
             0.5442493    0.74430825237435
 p    1 1.00
             0.1687144                   1
 d    1 1.00
                   0.8                   1

13 0
 s    3 1.00
             18.731137    0.03349459952309
             2.8253937    0.23472694665786
             0.6401217    0.81375731841339
 s    1 1.00
             0.1612778                   1

14 0
 s    3 1.00
             18.731137    0.03349459952309
             2.8253937    0.23472694665786
             0.6401217    0.81375731841339
 s    1 1.00
             0.1612778                   1

15 0
 s    6 1.00
             3047.5249  0.0018347001629433
             457.36951    0.01403730124668
             103.94869   0.068842606114048
             29.210155    0.23218442062076
              9.286663    0.46794134155879
              3.163927    0.36231203217765
 s    3 1.00
             7.8682724   -0.11933240861517
             1.8812885   -0.16085421161283
             0.5442493     1.1434564825515
 s    1 1.00
             0.1687144                   1
 p    3 1.00
             7.8682724   0.068999095584993
             1.8812885    0.31642397975315
             0.5442493    0.74430825237435
 p    1 1.00
             0.1687144                   1
 d    1 1.00
                   0.8                   1

16 0
 s    6 1.00
             3047.5249  0.0018347001629433
             457.36951    0.01403730124668
             103.94869   0.068842606114048
             29.210155    0.23218442062076
              9.286663    0.46794134155879
              3.163927    0.36231203217765
 s    3 1.00
             7.8682724   -0.11933240861517
             1.8812885   -0.16085421161283
             0.5442493     1.1434564825515
 s    1 1.00
             0.1687144                   1
 p    3 1.00
             7.8682724   0.068999095584993
             1.8812885    0.31642397975315
             0.5442493    0.74430825237435
 p    1 1.00
             0.1687144                   1
 d    1 1.00
                   0.8                   1

17 0
 s    6 1.00
             3047.5249  0.0018347001629433
             457.36951    0.01403730124668
             103.94869   0.068842606114048
             29.210155    0.23218442062076
              9.286663    0.46794134155879
              3.163927    0.36231203217765
 s    3 1.00
             7.8682724   -0.11933240861517
             1.8812885   -0.16085421161283
             0.5442493     1.1434564825515
 s    1 1.00
             0.1687144                   1
 p    3 1.00
             7.8682724   0.068999095584993
             1.8812885    0.31642397975315
             0.5442493    0.74430825237435
 p    1 1.00
             0.1687144                   1
 d    1 1.00
                   0.8                   1

18 0
 s    6 1.00
             3047.5249  0.0018347001629433
             457.36951    0.01403730124668
             103.94869   0.068842606114048
             29.210155    0.23218442062076
              9.286663    0.46794134155879
              3.163927    0.36231203217765
 s    3 1.00
             7.8682724   -0.11933240861517
             1.8812885   -0.16085421161283
             0.5442493     1.1434564825515
 s    1 1.00
             0.1687144                   1
 p    3 1.00
             7.8682724   0.068999095584993
             1.8812885    0.31642397975315
             0.5442493    0.74430825237435
 p    1 1.00
             0.1687144                   1
 d    1 1.00
                   0.8                   1

19 0
 s    6 1.00
             3047.5249  0.0018347001629433
             457.36951    0.01403730124668
             103.94869   0.068842606114048
             29.210155    0.23218442062076
              9.286663    0.46794134155879
              3.163927    0.36231203217765
 s    3 1.00
             7.8682724   -0.11933240861517
             1.8812885   -0.16085421161283
             0.5442493     1.1434564825515
 s    1 1.00
             0.1687144                   1
 p    3 1.00
             7.8682724   0.068999095584993
             1.8812885    0.31642397975315
             0.5442493    0.74430825237435
 p    1 1.00
             0.1687144                   1
 d    1 1.00
                   0.8                   1

20 0
 s    6 1.00
             3047.5249  0.0018347001629433
             457.36951    0.01403730124668
             103.94869   0.068842606114048
             29.210155    0.23218442062076
              9.286663    0.46794134155879
              3.163927    0.36231203217765
 s    3 1.00
             7.8682724   -0.11933240861517
             1.8812885   -0.16085421161283
             0.5442493     1.1434564825515
 s    1 1.00
             0.1687144                   1
 p    3 1.00
             7.8682724   0.068999095584993
             1.8812885    0.31642397975315
             0.5442493    0.74430825237435
 p    1 1.00
             0.1687144                   1
 d    1 1.00
                   0.8                   1

21 0
 s    6 1.00
             3047.5249  0.0018347001629433
             457.36951    0.01403730124668
             103.94869   0.068842606114048
             29.210155    0.23218442062076
              9.286663    0.46794134155879
              3.163927    0.36231203217765
 s    3 1.00
             7.8682724   -0.11933240861517
             1.8812885   -0.16085421161283
             0.5442493     1.1434564825515
 s    1 1.00
             0.1687144                   1
 p    3 1.00
             7.8682724   0.068999095584993
             1.8812885    0.31642397975315
             0.5442493    0.74430825237435
 p    1 1.00
             0.1687144                   1
 d    1 1.00
                   0.8                   1

22 0
 s    3 1.00
             18.731137    0.03349459952309
             2.8253937    0.23472694665786
             0.6401217    0.81375731841339
 s    1 1.00
             0.1612778                   1

23 0
 s    3 1.00
             18.731137    0.03349459952309
             2.8253937    0.23472694665786
             0.6401217    0.81375731841339
 s    1 1.00
             0.1612778                   1

24 0
 s    3 1.00
             18.731137    0.03349459952309
             2.8253937    0.23472694665786
             0.6401217    0.81375731841339
 s    1 1.00
             0.1612778                   1

25 0
 s    3 1.00
             18.731137    0.03349459952309
             2.8253937    0.23472694665786
             0.6401217    0.81375731841339
 s    1 1.00
             0.1612778                   1

26 0
 s    3 1.00
             18.731137    0.03349459952309
             2.8253937    0.23472694665786
             0.6401217    0.81375731841339
 s    1 1.00
             0.1612778                   1

27 0
 s    3 1.00
             18.731137    0.03349459952309
             2.8253937    0.23472694665786
             0.6401217    0.81375731841339
 s    1 1.00
             0.1612778                   1

28 0
 s    3 1.00
             18.731137    0.03349459952309
             2.8253937    0.23472694665786
             0.6401217    0.81375731841339
 s    1 1.00
             0.1612778                   1

29 0
 s    3 1.00
             18.731137    0.03349459952309
             2.8253937    0.23472694665786
             0.6401217    0.81375731841339
 s    1 1.00
             0.1612778                   1

30 0
 s    3 1.00
             18.731137    0.03349459952309
             2.8253937    0.23472694665786
             0.6401217    0.81375731841339
 s    1 1.00
             0.1612778                   1

31 0
 s    3 1.00
             18.731137    0.03349459952309
             2.8253937    0.23472694665786
             0.6401217    0.81375731841339
 s    1 1.00
             0.1612778                   1

32 0
 s    3 1.00
             18.731137    0.03349459952309
             2.8253937    0.23472694665786
             0.6401217    0.81375731841339
 s    1 1.00
             0.1612778                   1

33 0
 s    6 1.00
             3047.5249  0.0018347001629433
             457.36951    0.01403730124668
             103.94869   0.068842606114048
             29.210155    0.23218442062076
              9.286663    0.46794134155879
              3.163927    0.36231203217765
 s    3 1.00
             7.8682724   -0.11933240861517
             1.8812885   -0.16085421161283
             0.5442493     1.1434564825515
 s    1 1.00
             0.1687144                   1
 p    3 1.00
             7.8682724   0.068999095584993
             1.8812885    0.31642397975315
             0.5442493    0.74430825237435
 p    1 1.00
             0.1687144                   1
 d    1 1.00
                   0.8                   1

34 0
 s    6 1.00
             3047.5249  0.0018347001629433
             457.36951    0.01403730124668
             103.94869   0.068842606114048
             29.210155    0.23218442062076
              9.286663    0.46794134155879
              3.163927    0.36231203217765
 s    3 1.00
             7.8682724   -0.11933240861517
             1.8812885   -0.16085421161283
             0.5442493     1.1434564825515
 s    1 1.00
             0.1687144                   1
 p    3 1.00
             7.8682724   0.068999095584993
             1.8812885    0.31642397975315
             0.5442493    0.74430825237435
 p    1 1.00
             0.1687144                   1
 d    1 1.00
                   0.8                   1

35 0
 s    3 1.00
             18.731137    0.03349459952309
             2.8253937    0.23472694665786
             0.6401217    0.81375731841339
 s    1 1.00
             0.1612778                   1

36 0
 s    6 1.00
             3047.5249  0.0018347001629433
             457.36951    0.01403730124668
             103.94869   0.068842606114048
             29.210155    0.23218442062076
              9.286663    0.46794134155879
              3.163927    0.36231203217765
 s    3 1.00
             7.8682724   -0.11933240861517
             1.8812885   -0.16085421161283
             0.5442493     1.1434564825515
 s    1 1.00
             0.1687144                   1
 p    3 1.00
             7.8682724   0.068999095584993
             1.8812885    0.31642397975315
             0.5442493    0.74430825237435
 p    1 1.00
             0.1687144                   1
 d    1 1.00
                   0.8                   1

37 0
 s    3 1.00
             18.731137    0.03349459952309
             2.8253937    0.23472694665786
             0.6401217    0.81375731841339
 s    1 1.00
             0.1612778                   1

38 0
 s    3 1.00
             18.731137    0.03349459952309
             2.8253937    0.23472694665786
             0.6401217    0.81375731841339
 s    1 1.00
             0.1612778                   1

39 0
 s    6 1.00
             3047.5249  0.0018347001629433
             457.36951    0.01403730124668
             103.94869   0.068842606114048
             29.210155    0.23218442062076
              9.286663    0.46794134155879
              3.163927    0.36231203217765
 s    3 1.00
             7.8682724   -0.11933240861517
             1.8812885   -0.16085421161283
             0.5442493     1.1434564825515
 s    1 1.00
             0.1687144                   1
 p    3 1.00
             7.8682724   0.068999095584993
             1.8812885    0.31642397975315
             0.5442493    0.74430825237435
 p    1 1.00
             0.1687144                   1
 d    1 1.00
                   0.8                   1

40 0
 s    6 1.00
             3047.5249  0.0018347001629433
             457.36951    0.01403730124668
             103.94869   0.068842606114048
             29.210155    0.23218442062076
              9.286663    0.46794134155879
              3.163927    0.36231203217765
 s    3 1.00
             7.8682724   -0.11933240861517
             1.8812885   -0.16085421161283
             0.5442493     1.1434564825515
 s    1 1.00
             0.1687144                   1
 p    3 1.00
             7.8682724   0.068999095584993
             1.8812885    0.31642397975315
             0.5442493    0.74430825237435
 p    1 1.00
             0.1687144                   1
 d    1 1.00
                   0.8                   1

41 0
 s    3 1.00
             18.731137    0.03349459952309
             2.8253937    0.23472694665786
             0.6401217    0.81375731841339
 s    1 1.00
             0.1612778                   1

42 0
 s    6 1.00
             5484.6717   0.001831099805527
             825.23495   0.013950098518422
             188.04696    0.06844509273075
               52.9645    0.23271427528445
              16.89757    0.47019295006289
             5.7996353    0.35852086192309
 s    3 1.00
             15.539616   -0.11077750382508
             3.5999336   -0.14802630511126
             1.0137618     1.1307670390447
 s    1 1.00
             0.2700058                   1
 p    3 1.00
             15.539616   0.070874299543311
             3.5999336    0.33975279781076
             1.0137618    0.72715859531445
 p    1 1.00
             0.2700058                   1
 d    1 1.00
                   0.8                   1

43 0
 s    3 1.00
             18.731137    0.03349459952309
             2.8253937    0.23472694665786
             0.6401217    0.81375731841339
 s    1 1.00
             0.1612778                   1

[5d]
[7f]
[9g]

[MO]
 Sym= A
 Ene=               0
 Spin= Alpha
 Occup=    1.00000
   1    -1.3962017486367e-05
   2    -9.9903938744704e-05
   3     0.001356932905847
   4    -3.7337298990149e-05
   5    1.6739008799593e-05
   6    1.9861531070314e-05
   7    -4.2766617485659e-05
   8    0.00010853501989102
   9    -0.0013338596854924
  10    4.0997927106532e-05
  11    4.0855013571962e-05
  12    5.1641535864019e-06
  13    4.7930489316944e-06
  14    -1.3016388186169e-06
  15    -4.0251665804106e-05
  16    2.1805375540003e-06
  17    3.1119994625131e-05
  18    0.00015182641371199
  19    -0.0028417146056641
  20    -2.8435403951596e-05
  21    -2.0127425740257e-05
  22    8.7226118906112e-05
  23    -0.0018162013534316
  24    -0.00017950927878459
  25    -0.00045525407663601
  26    -4.9827476837593e-05
  27    2.7003015789002e-05
  28    3.7131191165719e-06
  29    -2.8433097770076e-05
  30    -2.8074506671543e-05
  31    -6.0401703892829e-05
  32    -0.00038206739089418
  33    -9.5274598599844e-05
  34    -0.00037666757730123
  35    0.0060693952639455
  36    0.00020249665087482
  37    3.2121176042269e-05
  38    -8.5127016812477e-05
  39    0.0028131605862701
  40    -0.00062709035338129
  41      0.00154272011897
  42    -2.2083143921562e-05
  43    -5.0003731332609e-05
  44    -4.4926221078784e-05
  45    0.00016390162470898
  46    -6.3460555378596e-06
  47    5.6057971899613e-05
  48    0.00055117763507438
  49    6.0314819246477e-05
  50    -0.00028420252453346
  51    -0.0046164421224628
  52    -0.00064259054195344
  53    -1.3121881639008e-06
  54    0.00011052736338504
  55     0.004753330484133
  56    -0.00021630974215884
  57    -0.00020794485597933
  58    0.0002071077954218
  59    -2.8533933199661e-05
  60    -0.00010645279732142
  61    -0.00012135200503325
  62    2.5280505502193e-05
  63    -0.00038728388608551
  64    -0.00032300931656984
  65    -3.4912091802872e-07
  66    1.5927031280926e-06
  67    -8.7184312735589e-08
  68    -9.9186603969117e-07
  69    -1.0462294282371e-06
  70    6.6430533210947e-07
  71    -9.8225164372598e-07
  72    7.1748583886325e-08
  73    2.606360349816e-06
  74    2.4624435623247e-06
  75    -1.1105916050084e-06
  76    3.412528536193e-07
  77    2.114845849989e-07
  78    9.2502452307549e-08
  79    1.7132305777839e-07
  80    2.1418984013469e-07
  81    2.9768708233414e-07
  82    1.8782087950583e-06
  83    3.1785425336081e-07
  84    2.6620148674313e-06
  85    3.7329775438135e-06
  86    -2.2516372311251e-07
  87    9.4051594660089e-07
  88    4.7155199292656e-08
  89    2.7952879186708e-06
  90    -1.1098938165278e-05
  91    -4.7767413344695e-06
  92    -1.6301858460629e-07
  93    -2.2997022526847e-07
  94    7.9055221777366e-07
  95    -4.7897599767295e-07
  96    1.2866162007854e-07
  97    1.4965450917227e-06
  98    2.5520681773228e-06
  99    -1.2019128070069e-06
 100    -3.042521177674e-06
 101    -7.9469227085476e-07
 102    -3.6864183979575e-06
 103    8.9125954595532e-05
 104    -2.7714992803973e-06
 105    -7.2633442759637e-07
 106    -9.8983522276144e-07
 107    -2.1854858594227e-05
 108    2.4650854771926e-05
 109    -4.1867496738659e-05
 110    6.4968029589655e-07
 111    1.6724165363029e-06
 112    -7.1511610630849e-07
 113    -2.0378402573218e-08
 114    -1.184102119555e-06
 115    3.3992705972993e-07
 116    3.1239743137479e-06
 117    -1.8765695730101e-05
 118    1.6512399326529e-07
 119    1.606313046647e-06
 120    -1.6386884285212e-06
 121    1.1376120917394e-05
 122    -1.8104776213638e-05
 123    4.6019300788929e-06
 124    7.8363189008599e-07
 125    -1.269418922912e-07
 126    -1.2199901044452e-06
 127    -5.6394696470566e-07
 128    2.2923896994513e-07
 129    1.0988452243015e-06
 130    5.6041401965413e-06
 131    -3.45546797762e-05
 132    4.9513264819788e-06
 133    -1.1902221679429e-06
 134    -2.5107519586732e-06
 135    -0.00010468259013111
 136    2.0132186805001e-05
 137    6.2191778865294e-05
 138    -2.1570615725029e-06
 139    -3.3954320303792e-07
 140    2.7209936485277e-06
 141    -2.6861117149041e-07
 142    2.6859351051716e-06
 143    6.7274487962107e-07
 144    3.5657644871514e-06
 145    -7.297645996647e-05
 146    5.7876622151369e-07
 147    1.1822406951192e-08
 148    5.3316659831454e-06
 149    -3.5722282436547e-05
 150    3.6543736549432e-05
 151    -1.8458808259871e-05
 152    -4.0511325998102e-07
 153    1.7394743206976e-07
 154    -1.9457285120419e-06
 155    -6.940254997739e-07
 156    1.3343223097286e-08
 157    7.1621381605598e-07
 158    5.9995599601129e-06
 159    -3.2023798160216e-05
 160    8.4092677014466e-07
 161    4.0846310642588e-07
 162    -7.6195808486323e-07
 163    -6.1174096397282e-06
 164    1.2677654121743e-05
 165    4.2041743581133e-06
 166    6.3121178783614e-07
 167    7.5786185001802e-08
 168    -2.3007922475302e-08
 169    8.2901849336543e-07
 170    2.0607221879679e-07
 171    -2.4195964318681e-08
 172    -6.3607571690137e-07
 173    7.9991282545014e-08
 174    -1.0471117872822e-06
 175    -3.1655971902058e-08
 176    2.0410402283465e-06
 177    1.625453023148e-05
 178    -5.8079012207257e-07
 179    3.247113904573e-06
 180    -1.9119900797174e-07
 181    1.5892551970633e-06
 182    -2.1817613635941e-07
 183    1.1139425702954e-06
 184    1.1411643714648e-06
 185    -6.4870257378131e-07
 186    -4.7305491427618e-06
 187    3.7481646265247e-05
 188    -1.2588882189419e-06
 189    -3.5628633485177e-07
 190    -1.5259003009071e-06
 191    -3.8332405620467e-06
 192    -8.4603286021253e-06
 193    -1.6307729905697e-05
 194    8.3623080861381e-07
 195    1.0322487256851e-06
 196    1.1632447824156e-06
 197    -6.7256327370327e-07
 198    5.9439005198206e-07
 199    -1.7609940935695e-06
 200    1.2440271010179e-06
 201    -6.5927122027405e-07
 202    -1.0568998850261e-06
 203    -1.288454804037e-06
 204    -7.6512133006743e-06
 205    3.1377465342874e-06
 206    6.0189356590275e-08
 207    3.1513448331559e-06
 208    -5.2095355304132e-07
 209    2.2041341562487e-06
 210    3.9213339703413e-06
 211    1.513783058677e-06
 212    2.7563359285395e-06
 213    8.5795070341598e-07
 214    -3.9181802061094e-06
 215    -3.6751188301333e-06
 216    1.9096479564485e-05
 217    1.2468536231298e-06
 218    3.2888970181413e-06
 219    9.0093695809922e-08
 220    -4.2179236159838e-06
 221    -5.032750992442e-06
 222    -3.1299288941794e-05
 223    0.00043185642987772
 224    3.2883196788573e-06
 225    6.309387360585e-06
 226    -6.2873795653821e-06
 227    0.00012575582398933
 228    5.3421920365417e-05
 229    -0.00020196714385316
 230    8.3095194819642e-06
 231    -7.2346877341827e-06
 232    -7.5539583579202e-06
 233    3.4897598619049e-06
 234    3.2795955858182e-06
 235    5.1701232489533e-06
 236     2.44132993772e-05
 237    -0.00067928773305663
 238    -8.1158001365566e-06
 239    -9.6635253590862e-06
 240    2.3452105521549e-05
 241    0.00026366330599289
 242    7.642537000561e-05
 243    -6.4849158590661e-05
 244    -1.2280143975292e-05
 245    7.1308363420906e-06
 246    8.5227728780935e-06
 247    -5.3451081175884e-07
 248    3.1764444864285e-08
 249    -2.6912056626402e-06
 250    -1.2748589957989e-05
 251    -3.0718353856325e-06
 252    -1.4983812709281e-05
 253    0.00058416629799818
 254    -8.1561865350489e-06
 255    -4.0359051896838e-06
 256    -2.9786644013676e-05
 257    0.00035728730793369
 258    9.5297254092676e-05
 259    0.0002628342220834
 260    4.3732377289491e-06
 261    1.9528804684193e-06
 262    -6.7741191745128e-06
 263    3.5056669283953e-07
 264    9.1085713244968e-06
 265    -2.0116998399592e-05
 266    -5.6667787894951e-06
 267    2.5986624884409e-05
 268    0.00011599288427252
 269    7.5159788540795e-05
 270    3.0968466644201e-06
 271    -0.0036190611722653
 272    -2.1239211493044e-05
 273    0.00010319733307722
 274    -0.00029025435318286
 275    -0.0028619833225541
 276    -0.00098029556676887
 277    0.0029071764852299
 278    0.00012888619495165
 279    0.00035268361831547
 280    -4.3168775093448e-05