[Molden Format]
made by pyscf v[2.0.1]
[Atoms] (AU)
C   1   6     0.69100024066471     0.64692934207205    -3.48223131169301
H   2   1     2.68052439830868     1.13355088658700    -3.25784032593313
C   3   6    -0.36286361513219     0.85440132524594    -5.97030179418974
H   4   1    -2.35448549047279     0.36322488579172    -6.17995817793143
C   5   6     0.93697958957450     1.61209284601821    -8.05828437677121
H   6   1    -0.04002876534153     1.70579051152009    -9.86870372539436
C   7   6     3.55882871340184     2.30532870411993    -8.01809862923490
H   8   1     4.51217335653741     2.20318273111775    -6.19041637810672
H   9   1     1.55630230933075    -1.92953025305990    12.99630010416247
C   10   6     0.75233899775814    -2.21270439606481    11.10705728102219
H   11   1    -0.43433408177274    -3.90944857546550    11.22216085340412
C   12   6     2.86362581178706    -2.63237380607947     9.17926416456045
H   13   1     4.39038949912609    -1.24955421540245     9.49899813497433
H   14   1     3.74629220191363    -4.48798724300892     9.47414880959024
C   15   6     2.02478325613682    -2.42177285709634     6.44560829588644
C   16   6     3.88048732735477    -3.58795445234514     4.61402886975252
C   17   6    -0.18412382258602    -1.30464291234259     5.76021113872346
C   18   6    -2.10044360464350    -0.26837831858460     7.71610340967100
C   19   6    -3.08956938670431     2.35282328359417     6.88693925039594
C   20   6    -4.37372924086464    -2.09766595989678     7.93610724222001
C   21   6    -0.83850430601230     0.06372213486173    10.33002307638377
H   22   1     0.38411922151109     1.74281358582432    10.27380136542181
H   23   1    -2.30980003007874     0.45460143924521    11.73986301809809
H   24   1     4.58527064644668    -5.38706904487420     5.36778158031719
H   25   1     5.54944938085014    -2.37631462192748     4.35398898413318
H   26   1     3.06633019150423    -3.94118377050688     2.75255466040884
H   27   1    -4.17727778763735     2.26573369139522     5.12914900961283
H   28   1    -1.52662344944051     3.68001877445626     6.59540397144508
H   29   1    -4.32916174397830     3.13643051467482     8.35225460090378
H   30   1    -5.32329548508442    -2.36691813602939     6.11583672749896
H   31   1    -5.77989366602257    -1.33896741843465     9.25748940450990
H   32   1    -3.79310905208926    -3.96389819310853     8.61386170102686
C   33   6    -1.01100794811226    -1.06331657314144     3.11929490449947
C   34   6     0.37686231036534    -0.33275864505552     1.09165013605873
H   35   1    -3.01671213906703    -1.40297922279997     2.77827895090944
C   36   6    -0.64382707979370    -0.11591880174385    -1.42063131251064
H   37   1     2.35569259782137     0.17174499283897     1.33641070251401
H   38   1    -2.63317482980319    -0.60229203511219    -1.66119700387645
C   39   6     4.92949292707610     3.06752929189425   -10.04715344157890
C   40   6     7.59555456141448     3.73329481661799    -9.81073387339210
H   41   1     4.09542353861424     3.21030697797155   -11.92110945203513
O   42   8     8.93835728030826     4.43020973545744   -11.55200196938216
H   43   1     8.37079058468688     3.56000927179912    -7.85902689076443
[GTO]
1 0
 s    6 1.00
             3047.5249  0.0018347001629433
             457.36951    0.01403730124668
             103.94869   0.068842606114048
             29.210155    0.23218442062076
              9.286663    0.46794134155879
              3.163927    0.36231203217765
 s    3 1.00
             7.8682724   -0.11933240861517
             1.8812885   -0.16085421161283
             0.5442493     1.1434564825515
 s    1 1.00
             0.1687144                   1
 p    3 1.00
             7.8682724   0.068999095584993
             1.8812885    0.31642397975315
             0.5442493    0.74430825237435
 p    1 1.00
             0.1687144                   1
 d    1 1.00
                   0.8                   1

2 0
 s    3 1.00
             18.731137    0.03349459952309
             2.8253937    0.23472694665786
             0.6401217    0.81375731841339
 s    1 1.00
             0.1612778                   1

3 0
 s    6 1.00
             3047.5249  0.0018347001629433
             457.36951    0.01403730124668
             103.94869   0.068842606114048
             29.210155    0.23218442062076
              9.286663    0.46794134155879
              3.163927    0.36231203217765
 s    3 1.00
             7.8682724   -0.11933240861517
             1.8812885   -0.16085421161283
             0.5442493     1.1434564825515
 s    1 1.00
             0.1687144                   1
 p    3 1.00
             7.8682724   0.068999095584993
             1.8812885    0.31642397975315
             0.5442493    0.74430825237435
 p    1 1.00
             0.1687144                   1
 d    1 1.00
                   0.8                   1

4 0
 s    3 1.00
             18.731137    0.03349459952309
             2.8253937    0.23472694665786
             0.6401217    0.81375731841339
 s    1 1.00
             0.1612778                   1

5 0
 s    6 1.00
             3047.5249  0.0018347001629433
             457.36951    0.01403730124668
             103.94869   0.068842606114048
             29.210155    0.23218442062076
              9.286663    0.46794134155879
              3.163927    0.36231203217765
 s    3 1.00
             7.8682724   -0.11933240861517
             1.8812885   -0.16085421161283
             0.5442493     1.1434564825515
 s    1 1.00
             0.1687144                   1
 p    3 1.00
             7.8682724   0.068999095584993
             1.8812885    0.31642397975315
             0.5442493    0.74430825237435
 p    1 1.00
             0.1687144                   1
 d    1 1.00
                   0.8                   1

6 0
 s    3 1.00
             18.731137    0.03349459952309
             2.8253937    0.23472694665786
             0.6401217    0.81375731841339
 s    1 1.00
             0.1612778                   1

7 0
 s    6 1.00
             3047.5249  0.0018347001629433
             457.36951    0.01403730124668
             103.94869   0.068842606114048
             29.210155    0.23218442062076
              9.286663    0.46794134155879
              3.163927    0.36231203217765
 s    3 1.00
             7.8682724   -0.11933240861517
             1.8812885   -0.16085421161283
             0.5442493     1.1434564825515
 s    1 1.00
             0.1687144                   1
 p    3 1.00
             7.8682724   0.068999095584993
             1.8812885    0.31642397975315
             0.5442493    0.74430825237435
 p    1 1.00
             0.1687144                   1
 d    1 1.00
                   0.8                   1

8 0
 s    3 1.00
             18.731137    0.03349459952309
             2.8253937    0.23472694665786
             0.6401217    0.81375731841339
 s    1 1.00
             0.1612778                   1

9 0
 s    3 1.00
             18.731137    0.03349459952309
             2.8253937    0.23472694665786
             0.6401217    0.81375731841339
 s    1 1.00
             0.1612778                   1

10 0
 s    6 1.00
             3047.5249  0.0018347001629433
             457.36951    0.01403730124668
             103.94869   0.068842606114048
             29.210155    0.23218442062076
              9.286663    0.46794134155879
              3.163927    0.36231203217765
 s    3 1.00
             7.8682724   -0.11933240861517
             1.8812885   -0.16085421161283
             0.5442493     1.1434564825515
 s    1 1.00
             0.1687144                   1
 p    3 1.00
             7.8682724   0.068999095584993
             1.8812885    0.31642397975315
             0.5442493    0.74430825237435
 p    1 1.00
             0.1687144                   1
 d    1 1.00
                   0.8                   1

11 0
 s    3 1.00
             18.731137    0.03349459952309
             2.8253937    0.23472694665786
             0.6401217    0.81375731841339
 s    1 1.00
             0.1612778                   1

12 0
 s    6 1.00
             3047.5249  0.0018347001629433
             457.36951    0.01403730124668
             103.94869   0.068842606114048
             29.210155    0.23218442062076
              9.286663    0.46794134155879
              3.163927    0.36231203217765
 s    3 1.00
             7.8682724   -0.11933240861517
             1.8812885   -0.16085421161283
             0.5442493     1.1434564825515
 s    1 1.00
             0.1687144                   1
 p    3 1.00
             7.8682724   0.068999095584993
             1.8812885    0.31642397975315
             0.5442493    0.74430825237435
 p    1 1.00
             0.1687144                   1
 d    1 1.00
                   0.8                   1

13 0
 s    3 1.00
             18.731137    0.03349459952309
             2.8253937    0.23472694665786
             0.6401217    0.81375731841339
 s    1 1.00
             0.1612778                   1

14 0
 s    3 1.00
             18.731137    0.03349459952309
             2.8253937    0.23472694665786
             0.6401217    0.81375731841339
 s    1 1.00
             0.1612778                   1

15 0
 s    6 1.00
             3047.5249  0.0018347001629433
             457.36951    0.01403730124668
             103.94869   0.068842606114048
             29.210155    0.23218442062076
              9.286663    0.46794134155879
              3.163927    0.36231203217765
 s    3 1.00
             7.8682724   -0.11933240861517
             1.8812885   -0.16085421161283
             0.5442493     1.1434564825515
 s    1 1.00
             0.1687144                   1
 p    3 1.00
             7.8682724   0.068999095584993
             1.8812885    0.31642397975315
             0.5442493    0.74430825237435
 p    1 1.00
             0.1687144                   1
 d    1 1.00
                   0.8                   1

16 0
 s    6 1.00
             3047.5249  0.0018347001629433
             457.36951    0.01403730124668
             103.94869   0.068842606114048
             29.210155    0.23218442062076
              9.286663    0.46794134155879
              3.163927    0.36231203217765
 s    3 1.00
             7.8682724   -0.11933240861517
             1.8812885   -0.16085421161283
             0.5442493     1.1434564825515
 s    1 1.00
             0.1687144                   1
 p    3 1.00
             7.8682724   0.068999095584993
             1.8812885    0.31642397975315
             0.5442493    0.74430825237435
 p    1 1.00
             0.1687144                   1
 d    1 1.00
                   0.8                   1

17 0
 s    6 1.00
             3047.5249  0.0018347001629433
             457.36951    0.01403730124668
             103.94869   0.068842606114048
             29.210155    0.23218442062076
              9.286663    0.46794134155879
              3.163927    0.36231203217765
 s    3 1.00
             7.8682724   -0.11933240861517
             1.8812885   -0.16085421161283
             0.5442493     1.1434564825515
 s    1 1.00
             0.1687144                   1
 p    3 1.00
             7.8682724   0.068999095584993
             1.8812885    0.31642397975315
             0.5442493    0.74430825237435
 p    1 1.00
             0.1687144                   1
 d    1 1.00
                   0.8                   1

18 0
 s    6 1.00
             3047.5249  0.0018347001629433
             457.36951    0.01403730124668
             103.94869   0.068842606114048
             29.210155    0.23218442062076
              9.286663    0.46794134155879
              3.163927    0.36231203217765
 s    3 1.00
             7.8682724   -0.11933240861517
             1.8812885   -0.16085421161283
             0.5442493     1.1434564825515
 s    1 1.00
             0.1687144                   1
 p    3 1.00
             7.8682724   0.068999095584993
             1.8812885    0.31642397975315
             0.5442493    0.74430825237435
 p    1 1.00
             0.1687144                   1
 d    1 1.00
                   0.8                   1

19 0
 s    6 1.00
             3047.5249  0.0018347001629433
             457.36951    0.01403730124668
             103.94869   0.068842606114048
             29.210155    0.23218442062076
              9.286663    0.46794134155879
              3.163927    0.36231203217765
 s    3 1.00
             7.8682724   -0.11933240861517
             1.8812885   -0.16085421161283
             0.5442493     1.1434564825515
 s    1 1.00
             0.1687144                   1
 p    3 1.00
             7.8682724   0.068999095584993
             1.8812885    0.31642397975315
             0.5442493    0.74430825237435
 p    1 1.00
             0.1687144                   1
 d    1 1.00
                   0.8                   1

20 0
 s    6 1.00
             3047.5249  0.0018347001629433
             457.36951    0.01403730124668
             103.94869   0.068842606114048
             29.210155    0.23218442062076
              9.286663    0.46794134155879
              3.163927    0.36231203217765
 s    3 1.00
             7.8682724   -0.11933240861517
             1.8812885   -0.16085421161283
             0.5442493     1.1434564825515
 s    1 1.00
             0.1687144                   1
 p    3 1.00
             7.8682724   0.068999095584993
             1.8812885    0.31642397975315
             0.5442493    0.74430825237435
 p    1 1.00
             0.1687144                   1
 d    1 1.00
                   0.8                   1

21 0
 s    6 1.00
             3047.5249  0.0018347001629433
             457.36951    0.01403730124668
             103.94869   0.068842606114048
             29.210155    0.23218442062076
              9.286663    0.46794134155879
              3.163927    0.36231203217765
 s    3 1.00
             7.8682724   -0.11933240861517
             1.8812885   -0.16085421161283
             0.5442493     1.1434564825515
 s    1 1.00
             0.1687144                   1
 p    3 1.00
             7.8682724   0.068999095584993
             1.8812885    0.31642397975315
             0.5442493    0.74430825237435
 p    1 1.00
             0.1687144                   1
 d    1 1.00
                   0.8                   1

22 0
 s    3 1.00
             18.731137    0.03349459952309
             2.8253937    0.23472694665786
             0.6401217    0.81375731841339
 s    1 1.00
             0.1612778                   1

23 0
 s    3 1.00
             18.731137    0.03349459952309
             2.8253937    0.23472694665786
             0.6401217    0.81375731841339
 s    1 1.00
             0.1612778                   1

24 0
 s    3 1.00
             18.731137    0.03349459952309
             2.8253937    0.23472694665786
             0.6401217    0.81375731841339
 s    1 1.00
             0.1612778                   1

25 0
 s    3 1.00
             18.731137    0.03349459952309
             2.8253937    0.23472694665786
             0.6401217    0.81375731841339
 s    1 1.00
             0.1612778                   1

26 0
 s    3 1.00
             18.731137    0.03349459952309
             2.8253937    0.23472694665786
             0.6401217    0.81375731841339
 s    1 1.00
             0.1612778                   1

27 0
 s    3 1.00
             18.731137    0.03349459952309
             2.8253937    0.23472694665786
             0.6401217    0.81375731841339
 s    1 1.00
             0.1612778                   1

28 0
 s    3 1.00
             18.731137    0.03349459952309
             2.8253937    0.23472694665786
             0.6401217    0.81375731841339
 s    1 1.00
             0.1612778                   1

29 0
 s    3 1.00
             18.731137    0.03349459952309
             2.8253937    0.23472694665786
             0.6401217    0.81375731841339
 s    1 1.00
             0.1612778                   1

30 0
 s    3 1.00
             18.731137    0.03349459952309
             2.8253937    0.23472694665786
             0.6401217    0.81375731841339
 s    1 1.00
             0.1612778                   1

31 0
 s    3 1.00
             18.731137    0.03349459952309
             2.8253937    0.23472694665786
             0.6401217    0.81375731841339
 s    1 1.00
             0.1612778                   1

32 0
 s    3 1.00
             18.731137    0.03349459952309
             2.8253937    0.23472694665786
             0.6401217    0.81375731841339
 s    1 1.00
             0.1612778                   1

33 0
 s    6 1.00
             3047.5249  0.0018347001629433
             457.36951    0.01403730124668
             103.94869   0.068842606114048
             29.210155    0.23218442062076
              9.286663    0.46794134155879
              3.163927    0.36231203217765
 s    3 1.00
             7.8682724   -0.11933240861517
             1.8812885   -0.16085421161283
             0.5442493     1.1434564825515
 s    1 1.00
             0.1687144                   1
 p    3 1.00
             7.8682724   0.068999095584993
             1.8812885    0.31642397975315
             0.5442493    0.74430825237435
 p    1 1.00
             0.1687144                   1
 d    1 1.00
                   0.8                   1

34 0
 s    6 1.00
             3047.5249  0.0018347001629433
             457.36951    0.01403730124668
             103.94869   0.068842606114048
             29.210155    0.23218442062076
              9.286663    0.46794134155879
              3.163927    0.36231203217765
 s    3 1.00
             7.8682724   -0.11933240861517
             1.8812885   -0.16085421161283
             0.5442493     1.1434564825515
 s    1 1.00
             0.1687144                   1
 p    3 1.00
             7.8682724   0.068999095584993
             1.8812885    0.31642397975315
             0.5442493    0.74430825237435
 p    1 1.00
             0.1687144                   1
 d    1 1.00
                   0.8                   1

35 0
 s    3 1.00
             18.731137    0.03349459952309
             2.8253937    0.23472694665786
             0.6401217    0.81375731841339
 s    1 1.00
             0.1612778                   1

36 0
 s    6 1.00
             3047.5249  0.0018347001629433
             457.36951    0.01403730124668
             103.94869   0.068842606114048
             29.210155    0.23218442062076
              9.286663    0.46794134155879
              3.163927    0.36231203217765
 s    3 1.00
             7.8682724   -0.11933240861517
             1.8812885   -0.16085421161283
             0.5442493     1.1434564825515
 s    1 1.00
             0.1687144                   1
 p    3 1.00
             7.8682724   0.068999095584993
             1.8812885    0.31642397975315
             0.5442493    0.74430825237435
 p    1 1.00
             0.1687144                   1
 d    1 1.00
                   0.8                   1

37 0
 s    3 1.00
             18.731137    0.03349459952309
             2.8253937    0.23472694665786
             0.6401217    0.81375731841339
 s    1 1.00
             0.1612778                   1

38 0
 s    3 1.00
             18.731137    0.03349459952309
             2.8253937    0.23472694665786
             0.6401217    0.81375731841339
 s    1 1.00
             0.1612778                   1

39 0
 s    6 1.00
             3047.5249  0.0018347001629433
             457.36951    0.01403730124668
             103.94869   0.068842606114048
             29.210155    0.23218442062076
              9.286663    0.46794134155879
              3.163927    0.36231203217765
 s    3 1.00
             7.8682724   -0.11933240861517
             1.8812885   -0.16085421161283
             0.5442493     1.1434564825515
 s    1 1.00
             0.1687144                   1
 p    3 1.00
             7.8682724   0.068999095584993
             1.8812885    0.31642397975315
             0.5442493    0.74430825237435
 p    1 1.00
             0.1687144                   1
 d    1 1.00
                   0.8                   1

40 0
 s    6 1.00
             3047.5249  0.0018347001629433
             457.36951    0.01403730124668
             103.94869   0.068842606114048
             29.210155    0.23218442062076
              9.286663    0.46794134155879
              3.163927    0.36231203217765
 s    3 1.00
             7.8682724   -0.11933240861517
             1.8812885   -0.16085421161283
             0.5442493     1.1434564825515
 s    1 1.00
             0.1687144                   1
 p    3 1.00
             7.8682724   0.068999095584993
             1.8812885    0.31642397975315
             0.5442493    0.74430825237435
 p    1 1.00
             0.1687144                   1
 d    1 1.00
                   0.8                   1

41 0
 s    3 1.00
             18.731137    0.03349459952309
             2.8253937    0.23472694665786
             0.6401217    0.81375731841339
 s    1 1.00
             0.1612778                   1

42 0
 s    6 1.00
             5484.6717   0.001831099805527
             825.23495   0.013950098518422
             188.04696    0.06844509273075
               52.9645    0.23271427528445
              16.89757    0.47019295006289
             5.7996353    0.35852086192309
 s    3 1.00
             15.539616   -0.11077750382508
             3.5999336   -0.14802630511126
             1.0137618     1.1307670390447
 s    1 1.00
             0.2700058                   1
 p    3 1.00
             15.539616   0.070874299543311
             3.5999336    0.33975279781076
             1.0137618    0.72715859531445
 p    1 1.00
             0.2700058                   1
 d    1 1.00
                   0.8                   1

43 0
 s    3 1.00
             18.731137    0.03349459952309
             2.8253937    0.23472694665786
             0.6401217    0.81375731841339
 s    1 1.00
             0.1612778                   1

[5d]
[7f]
[9g]

[MO]
 Sym= A
 Ene=               0
 Spin= Alpha
 Occup=    1.00000
   1    -1.7024899677158e-05
   2    -0.00011108493086111
   3    0.0016002288361481
   4    -3.5125136493735e-05
   5    -1.3997789762063e-05
   6    2.3248611165905e-05
   7    -0.00010694141234314
   8    0.00033993972482037
   9    -0.0018752593592619
  10    4.934932069916e-05
  11    5.856999731804e-05
  12    -2.4445767794101e-06
  13    7.809173485779e-06
  14    -7.6825497959694e-06
  15    -5.9343270220813e-05
  16    9.7510738748223e-05
  17    4.1148541142273e-05
  18    0.00023027088541136
  19    -0.0036082908367681
  20    -1.7907351891582e-05
  21    -2.3288776070898e-05
  22    9.4421458435982e-05
  23    -0.0022650067979352
  24    -0.00045968312072834
  25    -0.00074325043117903
  26    -5.2540891702938e-05
  27    2.3432730931603e-05
  28    3.2756398096505e-05
  29    -3.057892941311e-05
  30    -2.4394938700841e-05
  31    -8.5065034963585e-05
  32    -0.00051184799439313
  33    -0.00010360980007861
  34    -0.00043456007471336
  35    0.0067531640457908
  36    0.00018664350148394
  37    6.4950227117423e-05
  38    -7.7056459882589e-05
  39    0.0030546658406745
  40    0.00039112027258441
  41    0.0021709624894933
  42    -1.4625364848972e-05
  43    -2.5719945737864e-05
  44    -3.9293892290441e-05
  45    0.00015621277145505
  46    9.7699532569244e-05
  47    7.6290579843662e-05
  48    0.00067995589245013
  49    6.256038255705e-05
  50    -0.00027481575092063
  51    -0.0048352284543605
  52    -0.0006296643662753
  53    -0.00018101524944063
  54    6.4385822506586e-05
  55    0.0050528487438978
  56    0.0013353412918194
  57    8.1303950174541e-05
  58    0.00023724422186555
  59    -5.7871322204358e-05
  60    -7.5157416087035e-05
  61    -0.00010728507597259
  62    -4.5606732414859e-05
  63    -0.0003682214205449
  64    -0.00043136812546064
  65    -4.017138854215e-07
  66    2.0598676696017e-06
  67    -1.4731883571318e-07
  68    -1.4663584450192e-06
  69    -1.1096634723926e-06
  70    9.1005423391295e-07
  71    -1.3552118170084e-06
  72    2.2206413562167e-07
  73    3.3537359819222e-06
  74    3.3012134620293e-06
  75    -2.0967804010365e-06
  76    4.2036262333705e-07
  77    2.356770718018e-07
  78    8.5757772480802e-08
  79    1.9100299518355e-07
  80    2.0808009339366e-07
  81    4.1436905878291e-07
  82    2.2403375083414e-06
  83    3.5681072222088e-07
  84    2.9768798978464e-06
  85    -3.3994797666091e-06
  86    6.6067960316234e-09
  87    9.1033471116796e-07
  88    3.4372647451357e-07
  89    3.8364803711778e-06
  90    -1.4322206698175e-05
  91    -2.8838098179156e-06
  92    -1.5631177683322e-07
  93    -3.3032968742529e-07
  94    1.0855889509565e-06
  95    -5.0956995311146e-07
  96    3.3464038782664e-08
  97    1.9061066631201e-06
  98    2.6305798814741e-06
  99    -1.2107020935185e-06
 100    -3.3832101446694e-06
 101    -7.4665236940819e-07
 102    -3.6427495758996e-06
 103    9.5885700244345e-05
 104    -2.2867695472639e-06
 105    -5.2329232888068e-07
 106    -1.6627972116704e-06
 107    -2.7029314858001e-05
 108    3.6752975497048e-05
 109    -2.9627908070103e-05
 110    6.2411286411127e-07
 111    1.6907378258578e-06
 112    -7.4873256809035e-07
 113    -4.8138422959111e-07
 114    -1.594203729871e-06
 115    2.9484584787375e-07
 116    2.7967895424778e-06
 117    -1.0812464103735e-05
 118    4.5036660448799e-08
 119    2.0166920858665e-06
 120    -1.4408361882926e-06
 121    7.1593591963652e-06
 122    -1.8799430967323e-05
 123    8.6951558616477e-06
 124    7.9462240816824e-07
 125    -4.2447014934217e-07
 126    -1.3518266498208e-06
 127    -3.5637177292263e-07
 128    -1.2266944992143e-08
 129    9.7864872357884e-07
 130    4.2454365376949e-06
 131    -6.2759482379821e-07
 132    5.8783924666756e-06
 133    -1.3088140567539e-07
 134    -2.4366841214862e-06
 135    -0.00012582891074272
 136    9.8987589223675e-06
 137    3.171140543067e-05
 138    -1.6854883694702e-06
 139    5.6455853030983e-07
 140    3.5335964228515e-06
 141    -2.7880522416531e-08
 142    3.1275834841527e-06
 143    2.6977390234873e-07
 144    4.0752122136024e-07
 145    -6.4001117011178e-05
 146    7.7912835557083e-07
 147    -6.6907256358276e-07
 148    6.5664958273587e-06
 149    -3.2041120095251e-05
 150    5.0280631283683e-05
 151    -3.2264813825923e-05
 152    -5.4186495521668e-07
 153    -1.0931459042003e-07
 154    -2.6183493128048e-06
 155    -6.4440020452361e-07
 156    -6.5160823287016e-07
 157    9.9346910601069e-07
 158    8.7289830163357e-06
 159    -4.7472134835433e-05
 160    1.1307789168996e-06
 161    7.4613046230305e-07
 162    -1.7025963554927e-06
 163    -1.3109046016267e-05
 164     1.92156327876e-05
 165    6.1619312367791e-06
 166    1.2253380492782e-06
 167    -3.5865694504568e-07
 168    5.384364720026e-08
 169    1.0995629453477e-06
 170    5.7523309603505e-07
 171    -4.6215828864366e-08
 172    -1.1039024054552e-06
 173    1.8319657924736e-06
 174    -1.5764851269312e-06
 175    -2.5079683950914e-07
 176    2.8160477003072e-06
 177    2.2613108016398e-05
 178    1.3990578922388e-06
 179    5.3379963233708e-06
 180    -2.9867412291786e-07
 181    2.0622442905475e-06
 182    -1.2005714517426e-07
 183    1.3527034781674e-06
 184    1.6254198939946e-06
 185    -8.5657522534755e-07
 186    -6.8318337407707e-06
 187    4.5197513973432e-05
 188    -1.5631657288418e-06
 189    -4.2614551786383e-07
 190    -1.1531420606396e-06
 191    -4.7934245419508e-06
 192    -1.1761719144313e-05
 193    -2.0142101221062e-05
 194    8.8187099779276e-07
 195    1.2604357055593e-06
 196    1.8092400089618e-06
 197    -7.0194543775881e-07
 198    7.0659826463855e-07
 199    -2.2727661052613e-06
 200    1.823269909535e-06
 201    -7.6447953677336e-07
 202    -1.3239705014208e-07
 203    -1.6451271730491e-06
 204    -8.2037978682187e-06
 205    3.3551662791088e-06
 206    5.8594016796344e-07
 207    2.8302707129264e-06
 208    1.6649654714217e-06
 209    3.799849537409e-06
 210    2.6668946429774e-06
 211    2.5528490220745e-06
 212    5.2056725727635e-06
 213    8.3896621575155e-07
 214    -6.3074542260428e-06
 215    -5.1393603261054e-06
 216    2.7448676682702e-05
 217    1.6234492037754e-06
 218    4.5082924277262e-06
 219    3.5030101149739e-07
 220    -5.3484993597298e-06
 221    -6.607310669374e-06
 222    -4.1903211437311e-05
 223    0.00053232705776192
 224    7.1607652484832e-06
 225    2.9345123499227e-06
 226    -6.7389737977677e-06
 227    0.0001342543989015
 228    8.2357400896935e-05
 229    -0.00031223647779145
 230    1.0515687362542e-05
 231    -1.1332675454288e-05
 232    -9.9260869693373e-06
 233    4.9267552991445e-06
 234    4.9098539360611e-06
 235    7.0311646481697e-06
 236    3.1692183182952e-05
 237    -0.00092330945592553
 238    -1.1884555940967e-05
 239    -9.5276795341498e-06
 240    3.2861209742728e-05
 241    0.00034929237514329
 242    0.00010121136503458
 243    -5.39275289525e-05
 244    -1.843951142698e-05
 245    1.066599266497e-05
 246    8.8304861435587e-06
 247    5.5995127579482e-07
 248    -1.9267915391429e-06
 249    -7.5041753954191e-06
 250    -2.5582405567683e-05
 251    -6.6248213389665e-06
 252    -3.841523298332e-05
 253    0.00096592561800016
 254    -1.4979153260983e-05
 255    2.962492136268e-06
 256    -3.658905115294e-05
 257    0.00058764255550884
 258    0.00010618827382146
 259    0.00026879581384748
 260    9.9483164318551e-06
 261    -5.1129901764613e-06
 262    -7.1073710480038e-06
 263    9.3634766889942e-06
 264    7.0284229555915e-06
 265    -2.3884223227441e-05
 266    -1.4692334994266e-05
 267    3.3555753633049e-05
 268    0.00018201770959252
 269    7.7807643514944e-05
 270    2.0621840481919e-05
 271    -0.0039011607132481
 272    -3.6727625696839e-06
 273    5.8357438837031e-05
 274    -0.00030315174034603
 275    -0.0029162825990227
 276    -0.0012924145536898
 277    0.0026379178059343
 278    0.00018145032745585
 279    0.00033314281402632
 280    6.3290570859512e-05