[Molden Format]
made by pyscf v[2.0.1]
[Atoms] (AU)
C   1   6     0.69100024066471     0.64692934207205    -3.48223131169301
H   2   1     2.68052439830868     1.13355088658700    -3.25784032593313
C   3   6    -0.36286361513219     0.85440132524594    -5.97030179418974
H   4   1    -2.35448549047279     0.36322488579172    -6.17995817793143
C   5   6     0.93697958957450     1.61209284601821    -8.05828437677121
H   6   1     2.68174994182533     2.67994959464420    -7.82079505522331
C   7   6     0.13444904340515     1.08121190669811   -10.59410649762000
H   8   1    -1.61655526267424     0.00863003830430   -10.80213119601662
H   9   1     1.55630230933075    -1.92953025305990    12.99630010416247
C   10   6     0.75233899775814    -2.21270439606481    11.10705728102219
H   11   1    -0.43433408177274    -3.90944857546550    11.22216085340412
C   12   6     2.86362581178706    -2.63237380607947     9.17926416456045
H   13   1     4.39038949912609    -1.24955421540245     9.49899813497433
H   14   1     3.74629220191363    -4.48798724300892     9.47414880959024
C   15   6     2.02478325613682    -2.42177285709634     6.44560829588644
C   16   6     3.88048732735477    -3.58795445234514     4.61402886975252
C   17   6    -0.18412382258602    -1.30464291234259     5.76021113872346
C   18   6    -2.10044360464350    -0.26837831858460     7.71610340967100
C   19   6    -3.08956938670431     2.35282328359417     6.88693925039594
C   20   6    -4.37372924086464    -2.09766595989678     7.93610724222001
C   21   6    -0.83850430601230     0.06372213486173    10.33002307638377
H   22   1     0.38411922151109     1.74281358582432    10.27380136542181
H   23   1    -2.30980003007874     0.45460143924521    11.73986301809809
H   24   1     4.58527064644668    -5.38706904487420     5.36778158031719
H   25   1     5.54944938085014    -2.37631462192748     4.35398898413318
H   26   1     3.06633019150423    -3.94118377050688     2.75255466040884
H   27   1    -4.17727778763735     2.26573369139522     5.12914900961283
H   28   1    -1.52662344944051     3.68001877445626     6.59540397144508
H   29   1    -4.32916174397830     3.13643051467482     8.35225460090378
H   30   1    -5.32329548508442    -2.36691813602939     6.11583672749896
H   31   1    -5.77989366602257    -1.33896741843465     9.25748940450990
H   32   1    -3.79310905208926    -3.96389819310853     8.61386170102686
C   33   6    -1.01100794811226    -1.06331657314144     3.11929490449947
C   34   6     0.37686231036534    -0.33275864505552     1.09165013605873
H   35   1    -3.01671213906703    -1.40297922279997     2.77827895090944
C   36   6    -0.64382707979370    -0.11591880174385    -1.42063131251064
H   37   1     2.35569259782137     0.17174499283897     1.33641070251401
H   38   1    -2.63317482980319    -0.60229203511219    -1.66119700387645
C   39   6     1.36441264344082     1.79875350819652   -12.72695837882209
C   40   6     0.39042169983249     1.16479015456541   -15.22824898409742
H   41   1     3.11744943935123     2.87075295695162   -12.65315109008398
O   42   8     1.39604269582139     1.74939992973347   -17.22017818748739
H   43   1    -1.40767336523230     0.06622817248511   -15.21429812709214
[GTO]
1 0
 s    6 1.00
             3047.5249  0.0018347001629433
             457.36951    0.01403730124668
             103.94869   0.068842606114048
             29.210155    0.23218442062076
              9.286663    0.46794134155879
              3.163927    0.36231203217765
 s    3 1.00
             7.8682724   -0.11933240861517
             1.8812885   -0.16085421161283
             0.5442493     1.1434564825515
 s    1 1.00
             0.1687144                   1
 p    3 1.00
             7.8682724   0.068999095584993
             1.8812885    0.31642397975315
             0.5442493    0.74430825237435
 p    1 1.00
             0.1687144                   1
 d    1 1.00
                   0.8                   1

2 0
 s    3 1.00
             18.731137    0.03349459952309
             2.8253937    0.23472694665786
             0.6401217    0.81375731841339
 s    1 1.00
             0.1612778                   1

3 0
 s    6 1.00
             3047.5249  0.0018347001629433
             457.36951    0.01403730124668
             103.94869   0.068842606114048
             29.210155    0.23218442062076
              9.286663    0.46794134155879
              3.163927    0.36231203217765
 s    3 1.00
             7.8682724   -0.11933240861517
             1.8812885   -0.16085421161283
             0.5442493     1.1434564825515
 s    1 1.00
             0.1687144                   1
 p    3 1.00
             7.8682724   0.068999095584993
             1.8812885    0.31642397975315
             0.5442493    0.74430825237435
 p    1 1.00
             0.1687144                   1
 d    1 1.00
                   0.8                   1

4 0
 s    3 1.00
             18.731137    0.03349459952309
             2.8253937    0.23472694665786
             0.6401217    0.81375731841339
 s    1 1.00
             0.1612778                   1

5 0
 s    6 1.00
             3047.5249  0.0018347001629433
             457.36951    0.01403730124668
             103.94869   0.068842606114048
             29.210155    0.23218442062076
              9.286663    0.46794134155879
              3.163927    0.36231203217765
 s    3 1.00
             7.8682724   -0.11933240861517
             1.8812885   -0.16085421161283
             0.5442493     1.1434564825515
 s    1 1.00
             0.1687144                   1
 p    3 1.00
             7.8682724   0.068999095584993
             1.8812885    0.31642397975315
             0.5442493    0.74430825237435
 p    1 1.00
             0.1687144                   1
 d    1 1.00
                   0.8                   1

6 0
 s    3 1.00
             18.731137    0.03349459952309
             2.8253937    0.23472694665786
             0.6401217    0.81375731841339
 s    1 1.00
             0.1612778                   1

7 0
 s    6 1.00
             3047.5249  0.0018347001629433
             457.36951    0.01403730124668
             103.94869   0.068842606114048
             29.210155    0.23218442062076
              9.286663    0.46794134155879
              3.163927    0.36231203217765
 s    3 1.00
             7.8682724   -0.11933240861517
             1.8812885   -0.16085421161283
             0.5442493     1.1434564825515
 s    1 1.00
             0.1687144                   1
 p    3 1.00
             7.8682724   0.068999095584993
             1.8812885    0.31642397975315
             0.5442493    0.74430825237435
 p    1 1.00
             0.1687144                   1
 d    1 1.00
                   0.8                   1

8 0
 s    3 1.00
             18.731137    0.03349459952309
             2.8253937    0.23472694665786
             0.6401217    0.81375731841339
 s    1 1.00
             0.1612778                   1

9 0
 s    3 1.00
             18.731137    0.03349459952309
             2.8253937    0.23472694665786
             0.6401217    0.81375731841339
 s    1 1.00
             0.1612778                   1

10 0
 s    6 1.00
             3047.5249  0.0018347001629433
             457.36951    0.01403730124668
             103.94869   0.068842606114048
             29.210155    0.23218442062076
              9.286663    0.46794134155879
              3.163927    0.36231203217765
 s    3 1.00
             7.8682724   -0.11933240861517
             1.8812885   -0.16085421161283
             0.5442493     1.1434564825515
 s    1 1.00
             0.1687144                   1
 p    3 1.00
             7.8682724   0.068999095584993
             1.8812885    0.31642397975315
             0.5442493    0.74430825237435
 p    1 1.00
             0.1687144                   1
 d    1 1.00
                   0.8                   1

11 0
 s    3 1.00
             18.731137    0.03349459952309
             2.8253937    0.23472694665786
             0.6401217    0.81375731841339
 s    1 1.00
             0.1612778                   1

12 0
 s    6 1.00
             3047.5249  0.0018347001629433
             457.36951    0.01403730124668
             103.94869   0.068842606114048
             29.210155    0.23218442062076
              9.286663    0.46794134155879
              3.163927    0.36231203217765
 s    3 1.00
             7.8682724   -0.11933240861517
             1.8812885   -0.16085421161283
             0.5442493     1.1434564825515
 s    1 1.00
             0.1687144                   1
 p    3 1.00
             7.8682724   0.068999095584993
             1.8812885    0.31642397975315
             0.5442493    0.74430825237435
 p    1 1.00
             0.1687144                   1
 d    1 1.00
                   0.8                   1

13 0
 s    3 1.00
             18.731137    0.03349459952309
             2.8253937    0.23472694665786
             0.6401217    0.81375731841339
 s    1 1.00
             0.1612778                   1

14 0
 s    3 1.00
             18.731137    0.03349459952309
             2.8253937    0.23472694665786
             0.6401217    0.81375731841339
 s    1 1.00
             0.1612778                   1

15 0
 s    6 1.00
             3047.5249  0.0018347001629433
             457.36951    0.01403730124668
             103.94869   0.068842606114048
             29.210155    0.23218442062076
              9.286663    0.46794134155879
              3.163927    0.36231203217765
 s    3 1.00
             7.8682724   -0.11933240861517
             1.8812885   -0.16085421161283
             0.5442493     1.1434564825515
 s    1 1.00
             0.1687144                   1
 p    3 1.00
             7.8682724   0.068999095584993
             1.8812885    0.31642397975315
             0.5442493    0.74430825237435
 p    1 1.00
             0.1687144                   1
 d    1 1.00
                   0.8                   1

16 0
 s    6 1.00
             3047.5249  0.0018347001629433
             457.36951    0.01403730124668
             103.94869   0.068842606114048
             29.210155    0.23218442062076
              9.286663    0.46794134155879
              3.163927    0.36231203217765
 s    3 1.00
             7.8682724   -0.11933240861517
             1.8812885   -0.16085421161283
             0.5442493     1.1434564825515
 s    1 1.00
             0.1687144                   1
 p    3 1.00
             7.8682724   0.068999095584993
             1.8812885    0.31642397975315
             0.5442493    0.74430825237435
 p    1 1.00
             0.1687144                   1
 d    1 1.00
                   0.8                   1

17 0
 s    6 1.00
             3047.5249  0.0018347001629433
             457.36951    0.01403730124668
             103.94869   0.068842606114048
             29.210155    0.23218442062076
              9.286663    0.46794134155879
              3.163927    0.36231203217765
 s    3 1.00
             7.8682724   -0.11933240861517
             1.8812885   -0.16085421161283
             0.5442493     1.1434564825515
 s    1 1.00
             0.1687144                   1
 p    3 1.00
             7.8682724   0.068999095584993
             1.8812885    0.31642397975315
             0.5442493    0.74430825237435
 p    1 1.00
             0.1687144                   1
 d    1 1.00
                   0.8                   1

18 0
 s    6 1.00
             3047.5249  0.0018347001629433
             457.36951    0.01403730124668
             103.94869   0.068842606114048
             29.210155    0.23218442062076
              9.286663    0.46794134155879
              3.163927    0.36231203217765
 s    3 1.00
             7.8682724   -0.11933240861517
             1.8812885   -0.16085421161283
             0.5442493     1.1434564825515
 s    1 1.00
             0.1687144                   1
 p    3 1.00
             7.8682724   0.068999095584993
             1.8812885    0.31642397975315
             0.5442493    0.74430825237435
 p    1 1.00
             0.1687144                   1
 d    1 1.00
                   0.8                   1

19 0
 s    6 1.00
             3047.5249  0.0018347001629433
             457.36951    0.01403730124668
             103.94869   0.068842606114048
             29.210155    0.23218442062076
              9.286663    0.46794134155879
              3.163927    0.36231203217765
 s    3 1.00
             7.8682724   -0.11933240861517
             1.8812885   -0.16085421161283
             0.5442493     1.1434564825515
 s    1 1.00
             0.1687144                   1
 p    3 1.00
             7.8682724   0.068999095584993
             1.8812885    0.31642397975315
             0.5442493    0.74430825237435
 p    1 1.00
             0.1687144                   1
 d    1 1.00
                   0.8                   1

20 0
 s    6 1.00
             3047.5249  0.0018347001629433
             457.36951    0.01403730124668
             103.94869   0.068842606114048
             29.210155    0.23218442062076
              9.286663    0.46794134155879
              3.163927    0.36231203217765
 s    3 1.00
             7.8682724   -0.11933240861517
             1.8812885   -0.16085421161283
             0.5442493     1.1434564825515
 s    1 1.00
             0.1687144                   1
 p    3 1.00
             7.8682724   0.068999095584993
             1.8812885    0.31642397975315
             0.5442493    0.74430825237435
 p    1 1.00
             0.1687144                   1
 d    1 1.00
                   0.8                   1

21 0
 s    6 1.00
             3047.5249  0.0018347001629433
             457.36951    0.01403730124668
             103.94869   0.068842606114048
             29.210155    0.23218442062076
              9.286663    0.46794134155879
              3.163927    0.36231203217765
 s    3 1.00
             7.8682724   -0.11933240861517
             1.8812885   -0.16085421161283
             0.5442493     1.1434564825515
 s    1 1.00
             0.1687144                   1
 p    3 1.00
             7.8682724   0.068999095584993
             1.8812885    0.31642397975315
             0.5442493    0.74430825237435
 p    1 1.00
             0.1687144                   1
 d    1 1.00
                   0.8                   1

22 0
 s    3 1.00
             18.731137    0.03349459952309
             2.8253937    0.23472694665786
             0.6401217    0.81375731841339
 s    1 1.00
             0.1612778                   1

23 0
 s    3 1.00
             18.731137    0.03349459952309
             2.8253937    0.23472694665786
             0.6401217    0.81375731841339
 s    1 1.00
             0.1612778                   1

24 0
 s    3 1.00
             18.731137    0.03349459952309
             2.8253937    0.23472694665786
             0.6401217    0.81375731841339
 s    1 1.00
             0.1612778                   1

25 0
 s    3 1.00
             18.731137    0.03349459952309
             2.8253937    0.23472694665786
             0.6401217    0.81375731841339
 s    1 1.00
             0.1612778                   1

26 0
 s    3 1.00
             18.731137    0.03349459952309
             2.8253937    0.23472694665786
             0.6401217    0.81375731841339
 s    1 1.00
             0.1612778                   1

27 0
 s    3 1.00
             18.731137    0.03349459952309
             2.8253937    0.23472694665786
             0.6401217    0.81375731841339
 s    1 1.00
             0.1612778                   1

28 0
 s    3 1.00
             18.731137    0.03349459952309
             2.8253937    0.23472694665786
             0.6401217    0.81375731841339
 s    1 1.00
             0.1612778                   1

29 0
 s    3 1.00
             18.731137    0.03349459952309
             2.8253937    0.23472694665786
             0.6401217    0.81375731841339
 s    1 1.00
             0.1612778                   1

30 0
 s    3 1.00
             18.731137    0.03349459952309
             2.8253937    0.23472694665786
             0.6401217    0.81375731841339
 s    1 1.00
             0.1612778                   1

31 0
 s    3 1.00
             18.731137    0.03349459952309
             2.8253937    0.23472694665786
             0.6401217    0.81375731841339
 s    1 1.00
             0.1612778                   1

32 0
 s    3 1.00
             18.731137    0.03349459952309
             2.8253937    0.23472694665786
             0.6401217    0.81375731841339
 s    1 1.00
             0.1612778                   1

33 0
 s    6 1.00
             3047.5249  0.0018347001629433
             457.36951    0.01403730124668
             103.94869   0.068842606114048
             29.210155    0.23218442062076
              9.286663    0.46794134155879
              3.163927    0.36231203217765
 s    3 1.00
             7.8682724   -0.11933240861517
             1.8812885   -0.16085421161283
             0.5442493     1.1434564825515
 s    1 1.00
             0.1687144                   1
 p    3 1.00
             7.8682724   0.068999095584993
             1.8812885    0.31642397975315
             0.5442493    0.74430825237435
 p    1 1.00
             0.1687144                   1
 d    1 1.00
                   0.8                   1

34 0
 s    6 1.00
             3047.5249  0.0018347001629433
             457.36951    0.01403730124668
             103.94869   0.068842606114048
             29.210155    0.23218442062076
              9.286663    0.46794134155879
              3.163927    0.36231203217765
 s    3 1.00
             7.8682724   -0.11933240861517
             1.8812885   -0.16085421161283
             0.5442493     1.1434564825515
 s    1 1.00
             0.1687144                   1
 p    3 1.00
             7.8682724   0.068999095584993
             1.8812885    0.31642397975315
             0.5442493    0.74430825237435
 p    1 1.00
             0.1687144                   1
 d    1 1.00
                   0.8                   1

35 0
 s    3 1.00
             18.731137    0.03349459952309
             2.8253937    0.23472694665786
             0.6401217    0.81375731841339
 s    1 1.00
             0.1612778                   1

36 0
 s    6 1.00
             3047.5249  0.0018347001629433
             457.36951    0.01403730124668
             103.94869   0.068842606114048
             29.210155    0.23218442062076
              9.286663    0.46794134155879
              3.163927    0.36231203217765
 s    3 1.00
             7.8682724   -0.11933240861517
             1.8812885   -0.16085421161283
             0.5442493     1.1434564825515
 s    1 1.00
             0.1687144                   1
 p    3 1.00
             7.8682724   0.068999095584993
             1.8812885    0.31642397975315
             0.5442493    0.74430825237435
 p    1 1.00
             0.1687144                   1
 d    1 1.00
                   0.8                   1

37 0
 s    3 1.00
             18.731137    0.03349459952309
             2.8253937    0.23472694665786
             0.6401217    0.81375731841339
 s    1 1.00
             0.1612778                   1

38 0
 s    3 1.00
             18.731137    0.03349459952309
             2.8253937    0.23472694665786
             0.6401217    0.81375731841339
 s    1 1.00
             0.1612778                   1

39 0
 s    6 1.00
             3047.5249  0.0018347001629433
             457.36951    0.01403730124668
             103.94869   0.068842606114048
             29.210155    0.23218442062076
              9.286663    0.46794134155879
              3.163927    0.36231203217765
 s    3 1.00
             7.8682724   -0.11933240861517
             1.8812885   -0.16085421161283
             0.5442493     1.1434564825515
 s    1 1.00
             0.1687144                   1
 p    3 1.00
             7.8682724   0.068999095584993
             1.8812885    0.31642397975315
             0.5442493    0.74430825237435
 p    1 1.00
             0.1687144                   1
 d    1 1.00
                   0.8                   1

40 0
 s    6 1.00
             3047.5249  0.0018347001629433
             457.36951    0.01403730124668
             103.94869   0.068842606114048
             29.210155    0.23218442062076
              9.286663    0.46794134155879
              3.163927    0.36231203217765
 s    3 1.00
             7.8682724   -0.11933240861517
             1.8812885   -0.16085421161283
             0.5442493     1.1434564825515
 s    1 1.00
             0.1687144                   1
 p    3 1.00
             7.8682724   0.068999095584993
             1.8812885    0.31642397975315
             0.5442493    0.74430825237435
 p    1 1.00
             0.1687144                   1
 d    1 1.00
                   0.8                   1

41 0
 s    3 1.00
             18.731137    0.03349459952309
             2.8253937    0.23472694665786
             0.6401217    0.81375731841339
 s    1 1.00
             0.1612778                   1

42 0
 s    6 1.00
             5484.6717   0.001831099805527
             825.23495   0.013950098518422
             188.04696    0.06844509273075
               52.9645    0.23271427528445
              16.89757    0.47019295006289
             5.7996353    0.35852086192309
 s    3 1.00
             15.539616   -0.11077750382508
             3.5999336   -0.14802630511126
             1.0137618     1.1307670390447
 s    1 1.00
             0.2700058                   1
 p    3 1.00
             15.539616   0.070874299543311
             3.5999336    0.33975279781076
             1.0137618    0.72715859531445
 p    1 1.00
             0.2700058                   1
 d    1 1.00
                   0.8                   1

43 0
 s    3 1.00
             18.731137    0.03349459952309
             2.8253937    0.23472694665786
             0.6401217    0.81375731841339
 s    1 1.00
             0.1612778                   1

[5d]
[7f]
[9g]

[MO]
 Sym= A
 Ene=               0
 Spin= Alpha
 Occup=    1.00000
   1    -1.0220591485963e-05
   2    -3.8424307892172e-05
   3    -6.0730125669296e-05
   4    -1.9294917594311e-05
   5    -2.9418526624868e-05
   6    2.2714226203485e-05
   7    0.0002507906764395
   8    0.00030801223838027
   9    -0.00089946851411851
  10    2.0815514885929e-05
  11    3.3069128477304e-05
  12    1.0327150986665e-06
  13    5.1596386812303e-06
  14    -8.0392967481343e-07
  15    -4.6561469763318e-05
  16    -3.3348353436022e-05
  17    1.9904931248401e-05
  18    6.9140817060626e-05
  19    -0.0021422473582976
  20    -2.4701375142939e-05
  21    -1.4774025892955e-06
  22    7.7804230947563e-05
  23    -0.00045101779024853
  24    -0.0001881797523621
  25    0.00076205259353821
  26    -5.6691638354987e-05
  27    1.7213690139058e-05
  28    2.5053930837726e-05
  29    -1.4622037074755e-05
  30    2.3751094978342e-05
  31    -1.1492388221453e-06
  32    9.3268502548321e-05
  33    -9.0036394131446e-05
  34    -0.00033571752452777
  35    0.0058094139130208
  36    1.1859542854959e-05
  37    -6.4305114005166e-06
  38    -0.00021048990765421
  39    -0.0018462693246211
  40    -0.0010916136357218
  41    -0.0015336077999432
  42    0.00017110997743601
  43    4.0246730883478e-05
  44    3.5507412078874e-05
  45    2.1989858602494e-05
  46    5.0114826448006e-05
  47    3.8876020266129e-05
  48    0.00032103703502637
  49    6.2006682272431e-05
  50    -0.00026933844975839
  51    -0.0044969287763249
  52    0.0001365218476858
  53    9.9161316453351e-05
  54    0.00062305711935253
  55    -0.0014709215004106
  56    -0.0010079587267835
  57    -0.0039943157729233
  58    -0.00011452090002989
  59    -0.00017136768128388
  60    -0.00010916731948452
  61    4.9458524127232e-05
  62    8.5509299784123e-05
  63    -0.00041094932474976
  64    -0.00018681378726978
  65    -1.0997267210219e-07
  66    1.8134586445467e-06
  67    -1.2772820918946e-07
  68    -1.3039433794183e-06
  69    -3.5274724254513e-07
  70    7.8589479129836e-07
  71    -8.8134481524619e-07
  72    3.8295240709991e-07
  73    2.0762305142446e-06
  74    5.8205156880857e-07
  75    -2.6284175497423e-06
  76    2.3899923208044e-07
  77    7.7868253778415e-08
  78    1.3903655347125e-07
  79    1.0828336659691e-07
  80    8.1449244087528e-08
  81    1.1485393250296e-07
  82    6.928299084801e-07
  83    2.6763966773973e-07
  84    1.8706898679576e-06
  85    -9.5488928529583e-06
  86    3.6482504427249e-07
  87    5.5439836223883e-08
  88    7.0579896372938e-07
  89    4.8711373945197e-06
  90    -8.1376846504851e-06
  91    3.0117849188323e-07
  92    -1.1900523154617e-07
  93    -4.6237991974625e-07
  94    8.8727484263441e-07
  95    -3.0966191862855e-07
  96    -4.9714414023436e-10
  97    1.2942235946288e-06
  98    6.1551222442368e-07
  99    -3.1621150566012e-07
 100    -1.5014656672054e-06
 101    -6.1267445497483e-07
 102    -2.3958555272223e-06
 103    7.8866235652853e-05
 104    -9.5374722865601e-07
 105    2.2169000976307e-07
 106    -2.2937541082392e-06
 107    -3.1873143337315e-05
 108    3.2723374420131e-05
 109    -5.4425148715999e-06
 110    6.9359609766998e-07
 111    1.1196188944071e-06
 112    -4.9534112784213e-07
 113    -5.4761628841961e-07
 114    -1.569569894129e-06
 115    3.8083291023311e-07
 116    4.040235247429e-06
 117    -7.7426608888906e-06
 118    -4.0057743009001e-07
 119    1.5630382533805e-06
 120    -1.3261753487502e-06
 121    3.6846189668952e-06
 122    -1.0732927672854e-05
 123    1.5755663692077e-05
 124    5.2095501308932e-07
 125    -5.7361920516331e-07
 126    -6.4891009808436e-07
 127    -1.2817721634517e-07
 128    -1.7832764425693e-07
 129    2.6830896767638e-07
 130    3.2689735733831e-06
 131    4.3836143762738e-05
 132    5.2272291992436e-06
 133    1.6520533456657e-06
 134    -3.8117652358875e-06
 135    -0.00010703037154683
 136    8.9668841538036e-06
 137    -3.0049542218455e-05
 138    9.3398467373385e-07
 139    9.2625702288236e-07
 140    2.4933468415173e-06
 141    -3.2580620465564e-07
 142    1.6666176843036e-06
 143    6.4719762604559e-09
 144    -2.0387199697414e-06
 145    -3.3962317394689e-05
 146    -4.2792817912872e-07
 147    -1.2388266283985e-06
 148    4.803147630914e-06
 149    -1.1211745094707e-05
 150    3.496583054489e-05
 151    -1.6547899168583e-05
 152    -8.8076018511885e-07
 153    1.7117580014562e-07
 154    -1.9344842141582e-06
 155    -1.3000215285504e-07
 156    -9.5149183335256e-07
 157    6.295287310321e-07
 158    4.8859367155661e-06
 159    -2.9862490256759e-05
 160    3.4754873693446e-07
 161    8.4776575707461e-07
 162    -9.7142750946292e-07
 163    -9.9356840920584e-06
 164    1.1540124250142e-05
 165    1.7707757917815e-06
 166    1.0196428702271e-06
 167    -3.0905144296699e-07
 168    2.1232231255558e-07
 169    4.315518051275e-07
 170    7.6652670706147e-07
 171    4.3752038074081e-08
 172    2.562630601476e-07
 173    3.6923250947449e-06
 174    -1.2687737311142e-07
 175    -2.0882991782585e-07
 176    1.384491036965e-06
 177    1.1360668083538e-05
 178    3.8009719810416e-06
 179    5.1358164402824e-06
 180    -3.0670124550287e-07
 181    1.3237332198444e-06
 182     2.10777721382e-08
 183    6.9162601687324e-07
 184    9.9149935126904e-07
 185    -6.7326674727193e-07
 186    -5.5628995537197e-06
 187    2.6714297156045e-05
 188    -1.1045800910976e-06
 189    -8.123283123025e-08
 190    -1.467327304015e-07
 191    -6.3216780457231e-07
 192    -9.2814605815722e-06
 193    -1.2697385031543e-05
 194    5.3151837741684e-07
 195    7.5188140542043e-07
 196    1.4340642942357e-06
 197    -4.3598042172857e-07
 198    3.3630832458232e-07
 199    -1.6568338305475e-06
 200    1.4788770871268e-06
 201    -4.0756108021755e-07
 202    1.3496627137762e-06
 203    -8.5628433912665e-07
 204    -6.2560298565198e-06
 205    2.7633652931633e-06
 206    6.718154172552e-07
 207    -3.6981077043457e-07
 208    1.5583449360619e-05
 209    2.2156220695111e-06
 210     1.10474594166e-07
 211    1.7965764341147e-06
 212    3.2808950611964e-06
 213    5.1563210804388e-07
 214    -3.1503425235858e-06
 215    -2.5683694080838e-06
 216    1.620119958826e-05
 217    6.8468278985016e-07
 218    7.6887517213367e-08
 219    7.3259883094143e-07
 220    -2.199815332031e-06
 221    -3.2802448786809e-06
 222    -2.1281720397354e-05
 223    0.0002357181757091
 224    5.6141452811221e-06
 225    1.4597403651687e-07
 226    4.9123088081314e-07
 227    4.0443195026676e-05
 228    5.0264483580501e-05
 229    -0.00025418299934314
 230    5.6006203974923e-06
 231    -8.525588680141e-06
 232    -5.9067215009339e-06
 233    3.0325537142924e-06
 234    2.1762124074666e-06
 235    6.8233216285038e-06
 236    4.0967335957151e-05
 237    -0.0006888427325765
 238    -4.5125081634406e-06
 239    -7.158472080731e-06
 240    1.6705518974169e-05
 241    0.0002167330168119
 242    5.3999799746763e-05
 243    9.5548633167727e-05
 244    -1.897593422626e-05
 245    3.2179600514234e-06
 246    5.4772990816207e-06
 247    -1.2800576922004e-06
 248    -3.6011513983145e-06
 249    -1.0343524122981e-05
 250    -1.8739349563397e-05
 251    -7.0170737557253e-06
 252    -5.0228469439003e-05
 253    0.00099499850630057
 254    -1.5397058160432e-05
 255    1.072166812462e-05
 256    -3.0139673234113e-05
 257    0.00044185325778568
 258    5.2249570422632e-05
 259    9.9633255434079e-05
 260    1.8759467752532e-05
 261    -5.1210936633278e-06
 262    -5.9298067716309e-06
 263    6.1751335273294e-06
 264    7.152144872289e-07
 265    -7.6788582603238e-06
 266    -6.4624726586856e-06
 267    2.5244593918369e-05
 268    6.0954041629724e-05
 269    7.2144842374708e-05
 270    -1.5375177703909e-05
 271     -0.00335245745477
 272    0.00025475357124808
 273    0.00014411233063163
 274    -9.7172582013314e-05
 275    -0.0015893185042998
 276    -0.00090222310003178
 277    0.0038770163958522
 278    -0.00038572730270831
 279    8.217689892435e-05
 280    4.4484077180016e-05