[Molden Format]
made by pyscf v[2.0.1]
[Atoms] (AU)
C   1   6     0.69100024066471     0.64692934207205    -3.48223131169301
H   2   1     2.68052439830868     1.13355088658700    -3.25784032593313
C   3   6    -0.36286361513219     0.85440132524594    -5.97030179418974
H   4   1    -2.35448549047279     0.36322488579172    -6.17995817793143
C   5   6     0.93697958957450     1.61209284601821    -8.05828437677121
H   6   1     0.91018176739439     3.60165715372829    -8.58918788754706
C   7   6     2.36275315943078    -0.07897264779665    -9.62791837868890
H   8   1     2.37293254336653    -2.06644965927173    -9.07154285055885
H   9   1     1.55630230933075    -1.92953025305990    12.99630010416247
C   10   6     0.75233899775814    -2.21270439606481    11.10705728102219
H   11   1    -0.43433408177274    -3.90944857546550    11.22216085340412
C   12   6     2.86362581178706    -2.63237380607947     9.17926416456045
H   13   1     4.39038949912609    -1.24955421540245     9.49899813497433
H   14   1     3.74629220191363    -4.48798724300892     9.47414880959024
C   15   6     2.02478325613682    -2.42177285709634     6.44560829588644
C   16   6     3.88048732735477    -3.58795445234514     4.61402886975252
C   17   6    -0.18412382258602    -1.30464291234259     5.76021113872346
C   18   6    -2.10044360464350    -0.26837831858460     7.71610340967100
C   19   6    -3.08956938670431     2.35282328359417     6.88693925039594
C   20   6    -4.37372924086464    -2.09766595989678     7.93610724222001
C   21   6    -0.83850430601230     0.06372213486173    10.33002307638377
H   22   1     0.38411922151109     1.74281358582432    10.27380136542181
H   23   1    -2.30980003007874     0.45460143924521    11.73986301809809
H   24   1     4.58527064644668    -5.38706904487420     5.36778158031719
H   25   1     5.54944938085014    -2.37631462192748     4.35398898413318
H   26   1     3.06633019150423    -3.94118377050688     2.75255466040884
H   27   1    -4.17727778763735     2.26573369139522     5.12914900961283
H   28   1    -1.52662344944051     3.68001877445626     6.59540397144508
H   29   1    -4.32916174397830     3.13643051467482     8.35225460090378
H   30   1    -5.32329548508442    -2.36691813602939     6.11583672749896
H   31   1    -5.77989366602257    -1.33896741843465     9.25748940450990
H   32   1    -3.79310905208926    -3.96389819310853     8.61386170102686
C   33   6    -1.01100794811226    -1.06331657314144     3.11929490449947
C   34   6     0.37686231036534    -0.33275864505552     1.09165013605873
H   35   1    -3.01671213906703    -1.40297922279997     2.77827895090944
C   36   6    -0.64382707979370    -0.11591880174385    -1.42063131251064
H   37   1     2.35569259782137     0.17174499283897     1.33641070251401
H   38   1    -2.63317482980319    -0.60229203511219    -1.66119700387645
C   39   6     3.68212070775393     0.58885978377309   -11.72315169981470
C   40   6     5.07620914500435    -1.27889558400184   -13.19794995736473
H   41   1     3.74999971153331     2.53578027550937   -12.38092170581109
O   42   8     6.29809885748056    -0.81150016580158   -15.09777920785750
H   43   1     4.95468191731404    -3.24735743289555   -12.45594726186437
[GTO]
1 0
 s    6 1.00
             3047.5249  0.0018347001629433
             457.36951    0.01403730124668
             103.94869   0.068842606114048
             29.210155    0.23218442062076
              9.286663    0.46794134155879
              3.163927    0.36231203217765
 s    3 1.00
             7.8682724   -0.11933240861517
             1.8812885   -0.16085421161283
             0.5442493     1.1434564825515
 s    1 1.00
             0.1687144                   1
 p    3 1.00
             7.8682724   0.068999095584993
             1.8812885    0.31642397975315
             0.5442493    0.74430825237435
 p    1 1.00
             0.1687144                   1
 d    1 1.00
                   0.8                   1

2 0
 s    3 1.00
             18.731137    0.03349459952309
             2.8253937    0.23472694665786
             0.6401217    0.81375731841339
 s    1 1.00
             0.1612778                   1

3 0
 s    6 1.00
             3047.5249  0.0018347001629433
             457.36951    0.01403730124668
             103.94869   0.068842606114048
             29.210155    0.23218442062076
              9.286663    0.46794134155879
              3.163927    0.36231203217765
 s    3 1.00
             7.8682724   -0.11933240861517
             1.8812885   -0.16085421161283
             0.5442493     1.1434564825515
 s    1 1.00
             0.1687144                   1
 p    3 1.00
             7.8682724   0.068999095584993
             1.8812885    0.31642397975315
             0.5442493    0.74430825237435
 p    1 1.00
             0.1687144                   1
 d    1 1.00
                   0.8                   1

4 0
 s    3 1.00
             18.731137    0.03349459952309
             2.8253937    0.23472694665786
             0.6401217    0.81375731841339
 s    1 1.00
             0.1612778                   1

5 0
 s    6 1.00
             3047.5249  0.0018347001629433
             457.36951    0.01403730124668
             103.94869   0.068842606114048
             29.210155    0.23218442062076
              9.286663    0.46794134155879
              3.163927    0.36231203217765
 s    3 1.00
             7.8682724   -0.11933240861517
             1.8812885   -0.16085421161283
             0.5442493     1.1434564825515
 s    1 1.00
             0.1687144                   1
 p    3 1.00
             7.8682724   0.068999095584993
             1.8812885    0.31642397975315
             0.5442493    0.74430825237435
 p    1 1.00
             0.1687144                   1
 d    1 1.00
                   0.8                   1

6 0
 s    3 1.00
             18.731137    0.03349459952309
             2.8253937    0.23472694665786
             0.6401217    0.81375731841339
 s    1 1.00
             0.1612778                   1

7 0
 s    6 1.00
             3047.5249  0.0018347001629433
             457.36951    0.01403730124668
             103.94869   0.068842606114048
             29.210155    0.23218442062076
              9.286663    0.46794134155879
              3.163927    0.36231203217765
 s    3 1.00
             7.8682724   -0.11933240861517
             1.8812885   -0.16085421161283
             0.5442493     1.1434564825515
 s    1 1.00
             0.1687144                   1
 p    3 1.00
             7.8682724   0.068999095584993
             1.8812885    0.31642397975315
             0.5442493    0.74430825237435
 p    1 1.00
             0.1687144                   1
 d    1 1.00
                   0.8                   1

8 0
 s    3 1.00
             18.731137    0.03349459952309
             2.8253937    0.23472694665786
             0.6401217    0.81375731841339
 s    1 1.00
             0.1612778                   1

9 0
 s    3 1.00
             18.731137    0.03349459952309
             2.8253937    0.23472694665786
             0.6401217    0.81375731841339
 s    1 1.00
             0.1612778                   1

10 0
 s    6 1.00
             3047.5249  0.0018347001629433
             457.36951    0.01403730124668
             103.94869   0.068842606114048
             29.210155    0.23218442062076
              9.286663    0.46794134155879
              3.163927    0.36231203217765
 s    3 1.00
             7.8682724   -0.11933240861517
             1.8812885   -0.16085421161283
             0.5442493     1.1434564825515
 s    1 1.00
             0.1687144                   1
 p    3 1.00
             7.8682724   0.068999095584993
             1.8812885    0.31642397975315
             0.5442493    0.74430825237435
 p    1 1.00
             0.1687144                   1
 d    1 1.00
                   0.8                   1

11 0
 s    3 1.00
             18.731137    0.03349459952309
             2.8253937    0.23472694665786
             0.6401217    0.81375731841339
 s    1 1.00
             0.1612778                   1

12 0
 s    6 1.00
             3047.5249  0.0018347001629433
             457.36951    0.01403730124668
             103.94869   0.068842606114048
             29.210155    0.23218442062076
              9.286663    0.46794134155879
              3.163927    0.36231203217765
 s    3 1.00
             7.8682724   -0.11933240861517
             1.8812885   -0.16085421161283
             0.5442493     1.1434564825515
 s    1 1.00
             0.1687144                   1
 p    3 1.00
             7.8682724   0.068999095584993
             1.8812885    0.31642397975315
             0.5442493    0.74430825237435
 p    1 1.00
             0.1687144                   1
 d    1 1.00
                   0.8                   1

13 0
 s    3 1.00
             18.731137    0.03349459952309
             2.8253937    0.23472694665786
             0.6401217    0.81375731841339
 s    1 1.00
             0.1612778                   1

14 0
 s    3 1.00
             18.731137    0.03349459952309
             2.8253937    0.23472694665786
             0.6401217    0.81375731841339
 s    1 1.00
             0.1612778                   1

15 0
 s    6 1.00
             3047.5249  0.0018347001629433
             457.36951    0.01403730124668
             103.94869   0.068842606114048
             29.210155    0.23218442062076
              9.286663    0.46794134155879
              3.163927    0.36231203217765
 s    3 1.00
             7.8682724   -0.11933240861517
             1.8812885   -0.16085421161283
             0.5442493     1.1434564825515
 s    1 1.00
             0.1687144                   1
 p    3 1.00
             7.8682724   0.068999095584993
             1.8812885    0.31642397975315
             0.5442493    0.74430825237435
 p    1 1.00
             0.1687144                   1
 d    1 1.00
                   0.8                   1

16 0
 s    6 1.00
             3047.5249  0.0018347001629433
             457.36951    0.01403730124668
             103.94869   0.068842606114048
             29.210155    0.23218442062076
              9.286663    0.46794134155879
              3.163927    0.36231203217765
 s    3 1.00
             7.8682724   -0.11933240861517
             1.8812885   -0.16085421161283
             0.5442493     1.1434564825515
 s    1 1.00
             0.1687144                   1
 p    3 1.00
             7.8682724   0.068999095584993
             1.8812885    0.31642397975315
             0.5442493    0.74430825237435
 p    1 1.00
             0.1687144                   1
 d    1 1.00
                   0.8                   1

17 0
 s    6 1.00
             3047.5249  0.0018347001629433
             457.36951    0.01403730124668
             103.94869   0.068842606114048
             29.210155    0.23218442062076
              9.286663    0.46794134155879
              3.163927    0.36231203217765
 s    3 1.00
             7.8682724   -0.11933240861517
             1.8812885   -0.16085421161283
             0.5442493     1.1434564825515
 s    1 1.00
             0.1687144                   1
 p    3 1.00
             7.8682724   0.068999095584993
             1.8812885    0.31642397975315
             0.5442493    0.74430825237435
 p    1 1.00
             0.1687144                   1
 d    1 1.00
                   0.8                   1

18 0
 s    6 1.00
             3047.5249  0.0018347001629433
             457.36951    0.01403730124668
             103.94869   0.068842606114048
             29.210155    0.23218442062076
              9.286663    0.46794134155879
              3.163927    0.36231203217765
 s    3 1.00
             7.8682724   -0.11933240861517
             1.8812885   -0.16085421161283
             0.5442493     1.1434564825515
 s    1 1.00
             0.1687144                   1
 p    3 1.00
             7.8682724   0.068999095584993
             1.8812885    0.31642397975315
             0.5442493    0.74430825237435
 p    1 1.00
             0.1687144                   1
 d    1 1.00
                   0.8                   1

19 0
 s    6 1.00
             3047.5249  0.0018347001629433
             457.36951    0.01403730124668
             103.94869   0.068842606114048
             29.210155    0.23218442062076
              9.286663    0.46794134155879
              3.163927    0.36231203217765
 s    3 1.00
             7.8682724   -0.11933240861517
             1.8812885   -0.16085421161283
             0.5442493     1.1434564825515
 s    1 1.00
             0.1687144                   1
 p    3 1.00
             7.8682724   0.068999095584993
             1.8812885    0.31642397975315
             0.5442493    0.74430825237435
 p    1 1.00
             0.1687144                   1
 d    1 1.00
                   0.8                   1

20 0
 s    6 1.00
             3047.5249  0.0018347001629433
             457.36951    0.01403730124668
             103.94869   0.068842606114048
             29.210155    0.23218442062076
              9.286663    0.46794134155879
              3.163927    0.36231203217765
 s    3 1.00
             7.8682724   -0.11933240861517
             1.8812885   -0.16085421161283
             0.5442493     1.1434564825515
 s    1 1.00
             0.1687144                   1
 p    3 1.00
             7.8682724   0.068999095584993
             1.8812885    0.31642397975315
             0.5442493    0.74430825237435
 p    1 1.00
             0.1687144                   1
 d    1 1.00
                   0.8                   1

21 0
 s    6 1.00
             3047.5249  0.0018347001629433
             457.36951    0.01403730124668
             103.94869   0.068842606114048
             29.210155    0.23218442062076
              9.286663    0.46794134155879
              3.163927    0.36231203217765
 s    3 1.00
             7.8682724   -0.11933240861517
             1.8812885   -0.16085421161283
             0.5442493     1.1434564825515
 s    1 1.00
             0.1687144                   1
 p    3 1.00
             7.8682724   0.068999095584993
             1.8812885    0.31642397975315
             0.5442493    0.74430825237435
 p    1 1.00
             0.1687144                   1
 d    1 1.00
                   0.8                   1

22 0
 s    3 1.00
             18.731137    0.03349459952309
             2.8253937    0.23472694665786
             0.6401217    0.81375731841339
 s    1 1.00
             0.1612778                   1

23 0
 s    3 1.00
             18.731137    0.03349459952309
             2.8253937    0.23472694665786
             0.6401217    0.81375731841339
 s    1 1.00
             0.1612778                   1

24 0
 s    3 1.00
             18.731137    0.03349459952309
             2.8253937    0.23472694665786
             0.6401217    0.81375731841339
 s    1 1.00
             0.1612778                   1

25 0
 s    3 1.00
             18.731137    0.03349459952309
             2.8253937    0.23472694665786
             0.6401217    0.81375731841339
 s    1 1.00
             0.1612778                   1

26 0
 s    3 1.00
             18.731137    0.03349459952309
             2.8253937    0.23472694665786
             0.6401217    0.81375731841339
 s    1 1.00
             0.1612778                   1

27 0
 s    3 1.00
             18.731137    0.03349459952309
             2.8253937    0.23472694665786
             0.6401217    0.81375731841339
 s    1 1.00
             0.1612778                   1

28 0
 s    3 1.00
             18.731137    0.03349459952309
             2.8253937    0.23472694665786
             0.6401217    0.81375731841339
 s    1 1.00
             0.1612778                   1

29 0
 s    3 1.00
             18.731137    0.03349459952309
             2.8253937    0.23472694665786
             0.6401217    0.81375731841339
 s    1 1.00
             0.1612778                   1

30 0
 s    3 1.00
             18.731137    0.03349459952309
             2.8253937    0.23472694665786
             0.6401217    0.81375731841339
 s    1 1.00
             0.1612778                   1

31 0
 s    3 1.00
             18.731137    0.03349459952309
             2.8253937    0.23472694665786
             0.6401217    0.81375731841339
 s    1 1.00
             0.1612778                   1

32 0
 s    3 1.00
             18.731137    0.03349459952309
             2.8253937    0.23472694665786
             0.6401217    0.81375731841339
 s    1 1.00
             0.1612778                   1

33 0
 s    6 1.00
             3047.5249  0.0018347001629433
             457.36951    0.01403730124668
             103.94869   0.068842606114048
             29.210155    0.23218442062076
              9.286663    0.46794134155879
              3.163927    0.36231203217765
 s    3 1.00
             7.8682724   -0.11933240861517
             1.8812885   -0.16085421161283
             0.5442493     1.1434564825515
 s    1 1.00
             0.1687144                   1
 p    3 1.00
             7.8682724   0.068999095584993
             1.8812885    0.31642397975315
             0.5442493    0.74430825237435
 p    1 1.00
             0.1687144                   1
 d    1 1.00
                   0.8                   1

34 0
 s    6 1.00
             3047.5249  0.0018347001629433
             457.36951    0.01403730124668
             103.94869   0.068842606114048
             29.210155    0.23218442062076
              9.286663    0.46794134155879
              3.163927    0.36231203217765
 s    3 1.00
             7.8682724   -0.11933240861517
             1.8812885   -0.16085421161283
             0.5442493     1.1434564825515
 s    1 1.00
             0.1687144                   1
 p    3 1.00
             7.8682724   0.068999095584993
             1.8812885    0.31642397975315
             0.5442493    0.74430825237435
 p    1 1.00
             0.1687144                   1
 d    1 1.00
                   0.8                   1

35 0
 s    3 1.00
             18.731137    0.03349459952309
             2.8253937    0.23472694665786
             0.6401217    0.81375731841339
 s    1 1.00
             0.1612778                   1

36 0
 s    6 1.00
             3047.5249  0.0018347001629433
             457.36951    0.01403730124668
             103.94869   0.068842606114048
             29.210155    0.23218442062076
              9.286663    0.46794134155879
              3.163927    0.36231203217765
 s    3 1.00
             7.8682724   -0.11933240861517
             1.8812885   -0.16085421161283
             0.5442493     1.1434564825515
 s    1 1.00
             0.1687144                   1
 p    3 1.00
             7.8682724   0.068999095584993
             1.8812885    0.31642397975315
             0.5442493    0.74430825237435
 p    1 1.00
             0.1687144                   1
 d    1 1.00
                   0.8                   1

37 0
 s    3 1.00
             18.731137    0.03349459952309
             2.8253937    0.23472694665786
             0.6401217    0.81375731841339
 s    1 1.00
             0.1612778                   1

38 0
 s    3 1.00
             18.731137    0.03349459952309
             2.8253937    0.23472694665786
             0.6401217    0.81375731841339
 s    1 1.00
             0.1612778                   1

39 0
 s    6 1.00
             3047.5249  0.0018347001629433
             457.36951    0.01403730124668
             103.94869   0.068842606114048
             29.210155    0.23218442062076
              9.286663    0.46794134155879
              3.163927    0.36231203217765
 s    3 1.00
             7.8682724   -0.11933240861517
             1.8812885   -0.16085421161283
             0.5442493     1.1434564825515
 s    1 1.00
             0.1687144                   1
 p    3 1.00
             7.8682724   0.068999095584993
             1.8812885    0.31642397975315
             0.5442493    0.74430825237435
 p    1 1.00
             0.1687144                   1
 d    1 1.00
                   0.8                   1

40 0
 s    6 1.00
             3047.5249  0.0018347001629433
             457.36951    0.01403730124668
             103.94869   0.068842606114048
             29.210155    0.23218442062076
              9.286663    0.46794134155879
              3.163927    0.36231203217765
 s    3 1.00
             7.8682724   -0.11933240861517
             1.8812885   -0.16085421161283
             0.5442493     1.1434564825515
 s    1 1.00
             0.1687144                   1
 p    3 1.00
             7.8682724   0.068999095584993
             1.8812885    0.31642397975315
             0.5442493    0.74430825237435
 p    1 1.00
             0.1687144                   1
 d    1 1.00
                   0.8                   1

41 0
 s    3 1.00
             18.731137    0.03349459952309
             2.8253937    0.23472694665786
             0.6401217    0.81375731841339
 s    1 1.00
             0.1612778                   1

42 0
 s    6 1.00
             5484.6717   0.001831099805527
             825.23495   0.013950098518422
             188.04696    0.06844509273075
               52.9645    0.23271427528445
              16.89757    0.47019295006289
             5.7996353    0.35852086192309
 s    3 1.00
             15.539616   -0.11077750382508
             3.5999336   -0.14802630511126
             1.0137618     1.1307670390447
 s    1 1.00
             0.2700058                   1
 p    3 1.00
             15.539616   0.070874299543311
             3.5999336    0.33975279781076
             1.0137618    0.72715859531445
 p    1 1.00
             0.2700058                   1
 d    1 1.00
                   0.8                   1

43 0
 s    3 1.00
             18.731137    0.03349459952309
             2.8253937    0.23472694665786
             0.6401217    0.81375731841339
 s    1 1.00
             0.1612778                   1

[5d]
[7f]
[9g]

[MO]
 Sym= A
 Ene=               0
 Spin= Alpha
 Occup=    1.00000
   1    -2.5996449290551e-06
   2    -1.471235420963e-05
   3    -2.5462247302919e-05
   4    -6.8092421927535e-07
   5    -1.829328234377e-05
   6    1.0612575177102e-05
   7    4.759883638068e-05
   8    0.00011918527518623
   9    -0.00039573005713805
  10    2.5721089904302e-07
  11    1.0945021678514e-05
  12    1.5807078965178e-06
  13    1.4674997068113e-05
  14    -8.323633892829e-06
  15    -1.5449996253478e-05
  16    8.6362211172036e-06
  17    5.0392078545443e-06
  18    0.00017578873830274
  19     0.000481848950393
  20    6.5956935746707e-05
  21    -5.9245250206201e-07
  22    -8.2764265873924e-05
  23    0.00021182867924322
  24    -0.00011997838159479
  25    -0.00062627796206686
  26    2.2633115990805e-05
  27    -2.338401359281e-05
  28    1.2223334595284e-05
  29    4.2223168306676e-05
  30    2.2743881491013e-06
  31    -1.908606491485e-05
  32    2.3747390381528e-05
  33    8.143303837742e-05
  34    0.00031315618963626
  35    -0.0047294856449921
  36    -0.00016318583266087
  37    7.555905814479e-05
  38    0.00019323634117417
  39    -0.00072218062147482
  40    0.0020423324835865
  41    0.00045042207605723
  42    -1.5739503949999e-05
  43    0.00011665650093923
  44    -6.1461883162761e-05
  45    2.1633802406188e-05
  46    6.9196397264974e-05
  47    -1.2085284015212e-05
  48    -0.00027295952332005
  49    -5.428511277092e-05
  50    0.00031651960812848
  51    0.0039143569412322
  52    0.0003661498719163
  53    -0.00034788630545138
  54    -0.00040601110636585
  55    -0.0020216667020576
  56    0.0026511803599639
  57    0.0021672364853113
  58    -3.9477993858447e-05
  59    2.7159975613273e-05
  60    0.00019339599704996
  61    3.3723665167708e-05
  62    -0.00012267971799811
  63    0.00041766935404385
  64    0.00014433590484956
  65    -2.6455891722971e-07
  66    -6.7046179502039e-07
  67    -9.348328660872e-08
  68    -4.6057309666347e-07
  69    3.1537270122095e-06
  70    4.0563830024734e-07
  71    -4.6987706963285e-07
  72    4.8848401862094e-08
  73    4.8104842454545e-07
  74    1.175141797657e-06
  75    3.1273680727625e-07
  76    -5.9141068590399e-08
  77    -1.4804788022375e-07
  78    4.7571562337498e-08
  79    5.9960920066383e-08
  80    -1.2872785195047e-07
  81    8.2704099273178e-08
  82    -1.9379212155013e-07
  83    -6.5165306920433e-08
  84    -1.5054495589254e-07
  85    -1.3825296343244e-05
  86    5.4485468055819e-07
  87    -4.7876984320137e-08
  88    6.7766089501024e-07
  89    3.4799720707565e-06
  90    -4.5912798788115e-06
  91    3.0403498910546e-06
  92    2.2302707461697e-07
  93    -3.8193374268937e-07
  94    2.7083168686972e-07
  95    2.4811027570726e-08
  96    -2.523296154176e-07
  97    1.2844437605219e-07
  98    -6.5405284583192e-07
  99    3.3097249711947e-07
 100    -3.6453938690107e-07
 101    1.4063267986001e-07
 102    -1.2170247426115e-06
 103    1.1271762009375e-05
 104    2.0588313516671e-06
 105    1.2677432714453e-06
 106    -6.3836309895867e-07
 107    -1.9289667707501e-05
 108    2.1862847207502e-05
 109    3.417839829252e-05
 110    -6.2613513381459e-07
 111    -5.7454324116963e-07
 112    2.8428865852093e-07
 113    3.7020579009162e-07
 114    -5.2462935271429e-07
 115    -5.5170708739792e-07
 116    -4.8102080686942e-06
 117    3.9836542350055e-05
 118    -8.0919120228174e-07
 119    1.0360942654223e-06
 120    6.9380726295116e-07
 121    -9.6950425317304e-06
 122     1.72310325565e-06
 123    3.4914617974782e-06
 124    -8.349076147148e-08
 125    -1.9364396113736e-07
 126    -3.8695790783867e-08
 127    6.2437017571762e-08
 128    -4.8183531525362e-07
 129    -9.8732667226894e-07
 130    -9.6061447734889e-06
 131    5.8034618926459e-05
 132    -6.625752111313e-07
 133    -1.6856189112648e-06
 134    3.9751278013707e-06
 135    -2.5820951949678e-05
 136    -2.2743711148928e-06
 137    -9.0519917343474e-05
 138    2.8061753022768e-06
 139    1.6734975169481e-06
 140    5.3111107535036e-07
 141    5.5706883836571e-07
 142    2.0753317254374e-07
 143    -7.0503989953773e-07
 144    -4.0822392728235e-06
 145    2.5171514789339e-05
 146    8.2171268359902e-07
 147    5.3442453594983e-07
 148    -3.907326907209e-07
 149    1.4700525041326e-05
 150    -5.993471701324e-06
 151    -4.231798607365e-06
 152    -1.1187659006992e-06
 153    -4.0504224005507e-07
 154    -9.3552562611997e-08
 155    7.4616844609661e-07
 156    -9.083581906413e-07
 157    -6.1750260061929e-08
 158    1.4175810254442e-06
 159    8.1037274988336e-07
 160    8.0195856413561e-07
 161    -4.2445953114842e-07
 162    -4.8083695436078e-07
 163    -7.6391441723682e-06
 164    7.4739975222568e-07
 165    8.623286162142e-07
 166    4.8222407994809e-07
 167    -1.6114253689078e-07
 168    -7.3664894423185e-09
 169    -1.2057527691479e-07
 170    3.4295272671106e-07
 171    9.9163048410176e-08
 172    -6.9083499665454e-07
 173    -1.3060418259463e-06
 174    -1.0322258205864e-06
 175    -3.9572429196416e-07
 176    9.2684706432498e-07
 177    -3.704246819335e-07
 178    1.5307848894162e-06
 179    -2.0116727572279e-06
 180    1.3756088336154e-07
 181    1.6637234756063e-07
 182    4.5833613552071e-08
 183    -3.9236341021815e-07
 184    1.8660932016399e-07
 185    -2.8091642499084e-07
 186    -3.3408782655341e-06
 187    1.770598450606e-06
 188    -1.3187341017133e-07
 189    1.9205539969609e-07
 190    1.535644443311e-06
 191    2.9229845865803e-06
 192    6.1440996871649e-07
 193    -5.4497630672395e-06
 194    3.3901840085655e-07
 195    -8.2689397667014e-08
 196    2.2679439983786e-07
 197    1.0457694454788e-07
 198    -1.2788305972013e-07
 199    -8.8989209989682e-07
 200    -1.6013440490906e-06
 201    2.7666288696009e-07
 202    4.1940446416901e-06
 203    -1.5114469182603e-06
 204    -1.1241181335784e-06
 205    -8.1155391178869e-07
 206    -3.5439536179336e-06
 207    1.3595816645598e-06
 208    -1.1248644358185e-05
 209    1.4053408612983e-06
 210    -4.9891603325108e-06
 211    6.0828224207607e-07
 212    2.9911892946054e-06
 213    -5.5188548888082e-07
 214    -3.2980432831488e-06
 215    -6.6361236288562e-07
 216    3.6751940142672e-07
 217    5.4246728411558e-07
 218    1.5548577602355e-06
 219    2.4958300522456e-07
 220    9.5889160294213e-07
 221    -8.4781475946692e-07
 222    -8.4307968015348e-06
 223    -1.1311762765231e-05
 224    1.9422930784102e-06
 225    -6.0411959565529e-06
 226    2.7977051587663e-06
 227    1.1391851995958e-05
 228    2.4355128618566e-05
 229    -0.0001061567197705
 230    -1.2946606881775e-06
 231    -4.4742710438361e-06
 232    -2.3112550915917e-06
 233    1.8810453032189e-06
 234    3.0699489887903e-06
 235    -8.3760713882086e-07
 236    -1.1694434222082e-05
 237    1.9732901480918e-05
 238    -2.5904764170469e-06
 239    8.7500213326086e-06
 240    6.7652361699923e-06
 241    -2.3845146564159e-05
 242    -2.5317165832938e-06
 243    -8.9082015745892e-05
 244    1.1961081499704e-06
 245    7.3112865245893e-06
 246    1.3555690750077e-06
 247    2.7490707697048e-06
 248    1.2251834200595e-06
 249    -5.0411827803689e-06
 250    1.108290041605e-05
 251    -4.8317985191939e-06
 252    -3.4674902474319e-05
 253    0.00029306900067279
 254    7.6838880600246e-07
 255    -3.2985676239647e-06
 256    8.0460024232499e-06
 257    0.00012014533779934
 258    0.0001073981531973
 259    -0.00026259300795769
 260    3.061376222957e-06
 261    -1.3651901713485e-05
 262    -4.84822783695e-06
 263    8.8940418207594e-06
 264    5.2528792902079e-06
 265    -4.5448623818828e-06
 266    2.9681732145433e-05
 267    -9.2049473996005e-06
 268    3.7414749290243e-05
 269    -7.3041807878735e-05
 270    9.6116949092159e-06
 271    0.0033551338828499
 272    -4.0388956841617e-05
 273    -0.00024618169552998
 274    0.00019215968683723
 275     0.002288083745585
 276    0.00063312862186696
 277    -0.0034403988911617
 278    0.00020615648722885
 279    -0.00024233689598724
 280    0.0001665316748305