[Molden Format]
made by pyscf v[2.0.1]
[Atoms] (AU)
C   1   6     0.69100024066471     0.64692934207205    -3.48223131169301
H   2   1     2.68052439830868     1.13355088658700    -3.25784032593313
C   3   6    -0.36286361513219     0.85440132524594    -5.97030179418974
H   4   1    -2.35448549047279     0.36322488579172    -6.17995817793143
C   5   6     0.93697958957450     1.61209284601821    -8.05828437677121
H   6   1     0.93570604399073     3.60645829547735    -8.57155587183010
C   7   6     2.33064164489587    -0.08500019610028    -9.65009622470686
H   8   1     2.31545752956704    -2.07726916449957    -9.11124928966168
H   9   1     1.55630230933075    -1.92953025305990    12.99630010416247
C   10   6     0.75233899775814    -2.21270439606481    11.10705728102219
H   11   1    -0.43433408177274    -3.90944857546550    11.22216085340412
C   12   6     2.86362581178706    -2.63237380607947     9.17926416456045
H   13   1     4.39038949912609    -1.24955421540245     9.49899813497433
H   14   1     3.74629220191363    -4.48798724300892     9.47414880959024
C   15   6     2.02478325613682    -2.42177285709634     6.44560829588644
C   16   6     3.88048732735477    -3.58795445234514     4.61402886975252
C   17   6    -0.18412382258602    -1.30464291234259     5.76021113872346
C   18   6    -2.10044360464350    -0.26837831858460     7.71610340967100
C   19   6    -3.08956938670431     2.35282328359417     6.88693925039594
C   20   6    -4.37372924086464    -2.09766595989678     7.93610724222001
C   21   6    -0.83850430601230     0.06372213486173    10.33002307638377
H   22   1     0.38411922151109     1.74281358582432    10.27380136542181
H   23   1    -2.30980003007874     0.45460143924521    11.73986301809809
H   24   1     4.58527064644668    -5.38706904487420     5.36778158031719
H   25   1     5.54944938085014    -2.37631462192748     4.35398898413318
H   26   1     3.06633019150423    -3.94118377050688     2.75255466040884
H   27   1    -4.17727778763735     2.26573369139522     5.12914900961283
H   28   1    -1.52662344944051     3.68001877445626     6.59540397144508
H   29   1    -4.32916174397830     3.13643051467482     8.35225460090378
H   30   1    -5.32329548508442    -2.36691813602939     6.11583672749896
H   31   1    -5.77989366602257    -1.33896741843465     9.25748940450990
H   32   1    -3.79310905208926    -3.96389819310853     8.61386170102686
C   33   6    -1.01100794811226    -1.06331657314144     3.11929490449947
C   34   6     0.37686231036534    -0.33275864505552     1.09165013605873
H   35   1    -3.01671213906703    -1.40297922279997     2.77827895090944
C   36   6    -0.64382707979370    -0.11591880174385    -1.42063131251064
H   37   1     2.35569259782137     0.17174499283897     1.33641070251401
H   38   1    -2.63317482980319    -0.60229203511219    -1.66119700387645
C   39   6     3.64869579482306     0.58263290243353   -11.74621951745329
C   40   6     5.00865186237336    -1.29151691020822   -13.24458681490645
H   41   1     3.74083961582251     2.53414495508714   -12.38721761884598
O   42   8     6.22738846457655    -0.82464446464225   -15.14656876600025
H   43   1     4.86298794977594    -3.26455446446118   -12.51927050350916
[GTO]
1 0
 s    6 1.00
             3047.5249  0.0018347001629433
             457.36951    0.01403730124668
             103.94869   0.068842606114048
             29.210155    0.23218442062076
              9.286663    0.46794134155879
              3.163927    0.36231203217765
 s    3 1.00
             7.8682724   -0.11933240861517
             1.8812885   -0.16085421161283
             0.5442493     1.1434564825515
 s    1 1.00
             0.1687144                   1
 p    3 1.00
             7.8682724   0.068999095584993
             1.8812885    0.31642397975315
             0.5442493    0.74430825237435
 p    1 1.00
             0.1687144                   1
 d    1 1.00
                   0.8                   1

2 0
 s    3 1.00
             18.731137    0.03349459952309
             2.8253937    0.23472694665786
             0.6401217    0.81375731841339
 s    1 1.00
             0.1612778                   1

3 0
 s    6 1.00
             3047.5249  0.0018347001629433
             457.36951    0.01403730124668
             103.94869   0.068842606114048
             29.210155    0.23218442062076
              9.286663    0.46794134155879
              3.163927    0.36231203217765
 s    3 1.00
             7.8682724   -0.11933240861517
             1.8812885   -0.16085421161283
             0.5442493     1.1434564825515
 s    1 1.00
             0.1687144                   1
 p    3 1.00
             7.8682724   0.068999095584993
             1.8812885    0.31642397975315
             0.5442493    0.74430825237435
 p    1 1.00
             0.1687144                   1
 d    1 1.00
                   0.8                   1

4 0
 s    3 1.00
             18.731137    0.03349459952309
             2.8253937    0.23472694665786
             0.6401217    0.81375731841339
 s    1 1.00
             0.1612778                   1

5 0
 s    6 1.00
             3047.5249  0.0018347001629433
             457.36951    0.01403730124668
             103.94869   0.068842606114048
             29.210155    0.23218442062076
              9.286663    0.46794134155879
              3.163927    0.36231203217765
 s    3 1.00
             7.8682724   -0.11933240861517
             1.8812885   -0.16085421161283
             0.5442493     1.1434564825515
 s    1 1.00
             0.1687144                   1
 p    3 1.00
             7.8682724   0.068999095584993
             1.8812885    0.31642397975315
             0.5442493    0.74430825237435
 p    1 1.00
             0.1687144                   1
 d    1 1.00
                   0.8                   1

6 0
 s    3 1.00
             18.731137    0.03349459952309
             2.8253937    0.23472694665786
             0.6401217    0.81375731841339
 s    1 1.00
             0.1612778                   1

7 0
 s    6 1.00
             3047.5249  0.0018347001629433
             457.36951    0.01403730124668
             103.94869   0.068842606114048
             29.210155    0.23218442062076
              9.286663    0.46794134155879
              3.163927    0.36231203217765
 s    3 1.00
             7.8682724   -0.11933240861517
             1.8812885   -0.16085421161283
             0.5442493     1.1434564825515
 s    1 1.00
             0.1687144                   1
 p    3 1.00
             7.8682724   0.068999095584993
             1.8812885    0.31642397975315
             0.5442493    0.74430825237435
 p    1 1.00
             0.1687144                   1
 d    1 1.00
                   0.8                   1

8 0
 s    3 1.00
             18.731137    0.03349459952309
             2.8253937    0.23472694665786
             0.6401217    0.81375731841339
 s    1 1.00
             0.1612778                   1

9 0
 s    3 1.00
             18.731137    0.03349459952309
             2.8253937    0.23472694665786
             0.6401217    0.81375731841339
 s    1 1.00
             0.1612778                   1

10 0
 s    6 1.00
             3047.5249  0.0018347001629433
             457.36951    0.01403730124668
             103.94869   0.068842606114048
             29.210155    0.23218442062076
              9.286663    0.46794134155879
              3.163927    0.36231203217765
 s    3 1.00
             7.8682724   -0.11933240861517
             1.8812885   -0.16085421161283
             0.5442493     1.1434564825515
 s    1 1.00
             0.1687144                   1
 p    3 1.00
             7.8682724   0.068999095584993
             1.8812885    0.31642397975315
             0.5442493    0.74430825237435
 p    1 1.00
             0.1687144                   1
 d    1 1.00
                   0.8                   1

11 0
 s    3 1.00
             18.731137    0.03349459952309
             2.8253937    0.23472694665786
             0.6401217    0.81375731841339
 s    1 1.00
             0.1612778                   1

12 0
 s    6 1.00
             3047.5249  0.0018347001629433
             457.36951    0.01403730124668
             103.94869   0.068842606114048
             29.210155    0.23218442062076
              9.286663    0.46794134155879
              3.163927    0.36231203217765
 s    3 1.00
             7.8682724   -0.11933240861517
             1.8812885   -0.16085421161283
             0.5442493     1.1434564825515
 s    1 1.00
             0.1687144                   1
 p    3 1.00
             7.8682724   0.068999095584993
             1.8812885    0.31642397975315
             0.5442493    0.74430825237435
 p    1 1.00
             0.1687144                   1
 d    1 1.00
                   0.8                   1

13 0
 s    3 1.00
             18.731137    0.03349459952309
             2.8253937    0.23472694665786
             0.6401217    0.81375731841339
 s    1 1.00
             0.1612778                   1

14 0
 s    3 1.00
             18.731137    0.03349459952309
             2.8253937    0.23472694665786
             0.6401217    0.81375731841339
 s    1 1.00
             0.1612778                   1

15 0
 s    6 1.00
             3047.5249  0.0018347001629433
             457.36951    0.01403730124668
             103.94869   0.068842606114048
             29.210155    0.23218442062076
              9.286663    0.46794134155879
              3.163927    0.36231203217765
 s    3 1.00
             7.8682724   -0.11933240861517
             1.8812885   -0.16085421161283
             0.5442493     1.1434564825515
 s    1 1.00
             0.1687144                   1
 p    3 1.00
             7.8682724   0.068999095584993
             1.8812885    0.31642397975315
             0.5442493    0.74430825237435
 p    1 1.00
             0.1687144                   1
 d    1 1.00
                   0.8                   1

16 0
 s    6 1.00
             3047.5249  0.0018347001629433
             457.36951    0.01403730124668
             103.94869   0.068842606114048
             29.210155    0.23218442062076
              9.286663    0.46794134155879
              3.163927    0.36231203217765
 s    3 1.00
             7.8682724   -0.11933240861517
             1.8812885   -0.16085421161283
             0.5442493     1.1434564825515
 s    1 1.00
             0.1687144                   1
 p    3 1.00
             7.8682724   0.068999095584993
             1.8812885    0.31642397975315
             0.5442493    0.74430825237435
 p    1 1.00
             0.1687144                   1
 d    1 1.00
                   0.8                   1

17 0
 s    6 1.00
             3047.5249  0.0018347001629433
             457.36951    0.01403730124668
             103.94869   0.068842606114048
             29.210155    0.23218442062076
              9.286663    0.46794134155879
              3.163927    0.36231203217765
 s    3 1.00
             7.8682724   -0.11933240861517
             1.8812885   -0.16085421161283
             0.5442493     1.1434564825515
 s    1 1.00
             0.1687144                   1
 p    3 1.00
             7.8682724   0.068999095584993
             1.8812885    0.31642397975315
             0.5442493    0.74430825237435
 p    1 1.00
             0.1687144                   1
 d    1 1.00
                   0.8                   1

18 0
 s    6 1.00
             3047.5249  0.0018347001629433
             457.36951    0.01403730124668
             103.94869   0.068842606114048
             29.210155    0.23218442062076
              9.286663    0.46794134155879
              3.163927    0.36231203217765
 s    3 1.00
             7.8682724   -0.11933240861517
             1.8812885   -0.16085421161283
             0.5442493     1.1434564825515
 s    1 1.00
             0.1687144                   1
 p    3 1.00
             7.8682724   0.068999095584993
             1.8812885    0.31642397975315
             0.5442493    0.74430825237435
 p    1 1.00
             0.1687144                   1
 d    1 1.00
                   0.8                   1

19 0
 s    6 1.00
             3047.5249  0.0018347001629433
             457.36951    0.01403730124668
             103.94869   0.068842606114048
             29.210155    0.23218442062076
              9.286663    0.46794134155879
              3.163927    0.36231203217765
 s    3 1.00
             7.8682724   -0.11933240861517
             1.8812885   -0.16085421161283
             0.5442493     1.1434564825515
 s    1 1.00
             0.1687144                   1
 p    3 1.00
             7.8682724   0.068999095584993
             1.8812885    0.31642397975315
             0.5442493    0.74430825237435
 p    1 1.00
             0.1687144                   1
 d    1 1.00
                   0.8                   1

20 0
 s    6 1.00
             3047.5249  0.0018347001629433
             457.36951    0.01403730124668
             103.94869   0.068842606114048
             29.210155    0.23218442062076
              9.286663    0.46794134155879
              3.163927    0.36231203217765
 s    3 1.00
             7.8682724   -0.11933240861517
             1.8812885   -0.16085421161283
             0.5442493     1.1434564825515
 s    1 1.00
             0.1687144                   1
 p    3 1.00
             7.8682724   0.068999095584993
             1.8812885    0.31642397975315
             0.5442493    0.74430825237435
 p    1 1.00
             0.1687144                   1
 d    1 1.00
                   0.8                   1

21 0
 s    6 1.00
             3047.5249  0.0018347001629433
             457.36951    0.01403730124668
             103.94869   0.068842606114048
             29.210155    0.23218442062076
              9.286663    0.46794134155879
              3.163927    0.36231203217765
 s    3 1.00
             7.8682724   -0.11933240861517
             1.8812885   -0.16085421161283
             0.5442493     1.1434564825515
 s    1 1.00
             0.1687144                   1
 p    3 1.00
             7.8682724   0.068999095584993
             1.8812885    0.31642397975315
             0.5442493    0.74430825237435
 p    1 1.00
             0.1687144                   1
 d    1 1.00
                   0.8                   1

22 0
 s    3 1.00
             18.731137    0.03349459952309
             2.8253937    0.23472694665786
             0.6401217    0.81375731841339
 s    1 1.00
             0.1612778                   1

23 0
 s    3 1.00
             18.731137    0.03349459952309
             2.8253937    0.23472694665786
             0.6401217    0.81375731841339
 s    1 1.00
             0.1612778                   1

24 0
 s    3 1.00
             18.731137    0.03349459952309
             2.8253937    0.23472694665786
             0.6401217    0.81375731841339
 s    1 1.00
             0.1612778                   1

25 0
 s    3 1.00
             18.731137    0.03349459952309
             2.8253937    0.23472694665786
             0.6401217    0.81375731841339
 s    1 1.00
             0.1612778                   1

26 0
 s    3 1.00
             18.731137    0.03349459952309
             2.8253937    0.23472694665786
             0.6401217    0.81375731841339
 s    1 1.00
             0.1612778                   1

27 0
 s    3 1.00
             18.731137    0.03349459952309
             2.8253937    0.23472694665786
             0.6401217    0.81375731841339
 s    1 1.00
             0.1612778                   1

28 0
 s    3 1.00
             18.731137    0.03349459952309
             2.8253937    0.23472694665786
             0.6401217    0.81375731841339
 s    1 1.00
             0.1612778                   1

29 0
 s    3 1.00
             18.731137    0.03349459952309
             2.8253937    0.23472694665786
             0.6401217    0.81375731841339
 s    1 1.00
             0.1612778                   1

30 0
 s    3 1.00
             18.731137    0.03349459952309
             2.8253937    0.23472694665786
             0.6401217    0.81375731841339
 s    1 1.00
             0.1612778                   1

31 0
 s    3 1.00
             18.731137    0.03349459952309
             2.8253937    0.23472694665786
             0.6401217    0.81375731841339
 s    1 1.00
             0.1612778                   1

32 0
 s    3 1.00
             18.731137    0.03349459952309
             2.8253937    0.23472694665786
             0.6401217    0.81375731841339
 s    1 1.00
             0.1612778                   1

33 0
 s    6 1.00
             3047.5249  0.0018347001629433
             457.36951    0.01403730124668
             103.94869   0.068842606114048
             29.210155    0.23218442062076
              9.286663    0.46794134155879
              3.163927    0.36231203217765
 s    3 1.00
             7.8682724   -0.11933240861517
             1.8812885   -0.16085421161283
             0.5442493     1.1434564825515
 s    1 1.00
             0.1687144                   1
 p    3 1.00
             7.8682724   0.068999095584993
             1.8812885    0.31642397975315
             0.5442493    0.74430825237435
 p    1 1.00
             0.1687144                   1
 d    1 1.00
                   0.8                   1

34 0
 s    6 1.00
             3047.5249  0.0018347001629433
             457.36951    0.01403730124668
             103.94869   0.068842606114048
             29.210155    0.23218442062076
              9.286663    0.46794134155879
              3.163927    0.36231203217765
 s    3 1.00
             7.8682724   -0.11933240861517
             1.8812885   -0.16085421161283
             0.5442493     1.1434564825515
 s    1 1.00
             0.1687144                   1
 p    3 1.00
             7.8682724   0.068999095584993
             1.8812885    0.31642397975315
             0.5442493    0.74430825237435
 p    1 1.00
             0.1687144                   1
 d    1 1.00
                   0.8                   1

35 0
 s    3 1.00
             18.731137    0.03349459952309
             2.8253937    0.23472694665786
             0.6401217    0.81375731841339
 s    1 1.00
             0.1612778                   1

36 0
 s    6 1.00
             3047.5249  0.0018347001629433
             457.36951    0.01403730124668
             103.94869   0.068842606114048
             29.210155    0.23218442062076
              9.286663    0.46794134155879
              3.163927    0.36231203217765
 s    3 1.00
             7.8682724   -0.11933240861517
             1.8812885   -0.16085421161283
             0.5442493     1.1434564825515
 s    1 1.00
             0.1687144                   1
 p    3 1.00
             7.8682724   0.068999095584993
             1.8812885    0.31642397975315
             0.5442493    0.74430825237435
 p    1 1.00
             0.1687144                   1
 d    1 1.00
                   0.8                   1

37 0
 s    3 1.00
             18.731137    0.03349459952309
             2.8253937    0.23472694665786
             0.6401217    0.81375731841339
 s    1 1.00
             0.1612778                   1

38 0
 s    3 1.00
             18.731137    0.03349459952309
             2.8253937    0.23472694665786
             0.6401217    0.81375731841339
 s    1 1.00
             0.1612778                   1

39 0
 s    6 1.00
             3047.5249  0.0018347001629433
             457.36951    0.01403730124668
             103.94869   0.068842606114048
             29.210155    0.23218442062076
              9.286663    0.46794134155879
              3.163927    0.36231203217765
 s    3 1.00
             7.8682724   -0.11933240861517
             1.8812885   -0.16085421161283
             0.5442493     1.1434564825515
 s    1 1.00
             0.1687144                   1
 p    3 1.00
             7.8682724   0.068999095584993
             1.8812885    0.31642397975315
             0.5442493    0.74430825237435
 p    1 1.00
             0.1687144                   1
 d    1 1.00
                   0.8                   1

40 0
 s    6 1.00
             3047.5249  0.0018347001629433
             457.36951    0.01403730124668
             103.94869   0.068842606114048
             29.210155    0.23218442062076
              9.286663    0.46794134155879
              3.163927    0.36231203217765
 s    3 1.00
             7.8682724   -0.11933240861517
             1.8812885   -0.16085421161283
             0.5442493     1.1434564825515
 s    1 1.00
             0.1687144                   1
 p    3 1.00
             7.8682724   0.068999095584993
             1.8812885    0.31642397975315
             0.5442493    0.74430825237435
 p    1 1.00
             0.1687144                   1
 d    1 1.00
                   0.8                   1

41 0
 s    3 1.00
             18.731137    0.03349459952309
             2.8253937    0.23472694665786
             0.6401217    0.81375731841339
 s    1 1.00
             0.1612778                   1

42 0
 s    6 1.00
             5484.6717   0.001831099805527
             825.23495   0.013950098518422
             188.04696    0.06844509273075
               52.9645    0.23271427528445
              16.89757    0.47019295006289
             5.7996353    0.35852086192309
 s    3 1.00
             15.539616   -0.11077750382508
             3.5999336   -0.14802630511126
             1.0137618     1.1307670390447
 s    1 1.00
             0.2700058                   1
 p    3 1.00
             15.539616   0.070874299543311
             3.5999336    0.33975279781076
             1.0137618    0.72715859531445
 p    1 1.00
             0.2700058                   1
 d    1 1.00
                   0.8                   1

43 0
 s    3 1.00
             18.731137    0.03349459952309
             2.8253937    0.23472694665786
             0.6401217    0.81375731841339
 s    1 1.00
             0.1612778                   1

[5d]
[7f]
[9g]

[MO]
 Sym= A
 Ene=               0
 Spin= Alpha
 Occup=    1.00000
   1    -2.6386524645099e-06
   2    -1.5616863767139e-05
   3    -1.5341361336049e-05
   4    -8.1477618308403e-07
   5    -1.7517469687438e-05
   6    1.0933859570605e-05
   7    4.4558566770692e-05
   8    0.00011437624659581
   9    -0.00039871830669675
  10    3.4339699800159e-07
  11    1.1150340183139e-05
  12    1.7911778186019e-06
  13    1.471384661093e-05
  14    -8.3102123403857e-06
  15    -1.5560905273558e-05
  16    9.6022492898462e-06
  17    5.1204963921754e-06
  18    0.00017654453184948
  19    0.00047734344669119
  20    6.5689213738735e-05
  21    -1.0359216579711e-06
  22    -8.2952530714758e-05
  23    0.00020546104129293
  24    -0.00011752017064403
  25    -0.00063455827792952
  26    2.2597829681547e-05
  27    -2.3290322668928e-05
  28    1.1662771319803e-05
  29    4.2445120536093e-05
  30    1.3522760291628e-06
  31    -1.9008362834135e-05
  32    2.258793143713e-05
  33    8.1432339904368e-05
  34    0.00031317578013328
  35    -0.0047308370361762
  36    -0.00016123265954257
  37    7.6283929721778e-05
  38    0.00019469668197646
  39    -0.00068892899715762
  40    0.0020473209345812
  41    0.00047142068601611
  42    -1.760071873012e-05
  43    0.00011615252705906
  44    -6.3472153913442e-05
  45    2.3591522927622e-05
  46    6.6981990177875e-05
  47    -1.1916042828646e-05
  48    -0.00027251135873253
  49    -5.4267226184939e-05
  50    0.00031653111176144
  51    0.0039127202717338
  52    0.00035913866039756
  53    -0.00034940241447548
  54    -0.00041104162011599
  55    -0.0019725234253977
  56    0.0026595765603857
  57    0.0022011463401097
  58    -3.681796932325e-05
  59    2.8371414248623e-05
  60    0.00019389391415755
  61    3.2097497384294e-05
  62    -0.00012291324859842
  63    0.00041763093100679
  64    0.00014424101547382
  65    -2.6885920288174e-07
  66    -6.7770652547065e-07
  67    -9.4970506925864e-08
  68    -4.5977675599293e-07
  69    3.1819508044247e-06
  70    4.124242926152e-07
  71    -4.7463035394881e-07
  72    4.2990634249886e-08
  73    4.864804639859e-07
  74    1.1691646885203e-06
  75    3.2749705686089e-07
  76    -5.7831991488723e-08
  77    -1.4799710806735e-07
  78    4.8398474871462e-08
  79    6.1230750074117e-08
  80    -1.279495153131e-07
  81    8.1310638735657e-08
  82    -2.0100069522427e-07
  83    -6.5162174043451e-08
  84    -1.3139469961399e-07
  85    -1.3682516416983e-05
  86    5.3409550338336e-07
  87    -4.0662957454251e-08
  88    6.6847223106745e-07
  89    3.4955627429679e-06
  90    -4.6234195789061e-06
  91    2.9623698763344e-06
  92    2.2250697040957e-07
  93    -3.8423342842138e-07
  94    2.6874207986298e-07
  95    2.0661241330465e-08
  96    -2.5224384018854e-07
  97    1.1797976498958e-07
  98    -6.7590700944665e-07
  99    3.2981319379894e-07
 100    -3.6347301214568e-07
 101    1.3733567946672e-07
 102    -1.263290707326e-06
 103    1.1820631961526e-05
 104    2.0737688120903e-06
 105    1.3194390341399e-06
 106    -6.3287424823901e-07
 107    -1.9325416955953e-05
 108    2.191427909164e-05
 109    3.3689774401721e-05
 110    -6.2150104348732e-07
 111    -5.6384190113343e-07
 112    2.8181914072619e-07
 113    3.8478010135467e-07
 114    -5.2561330499711e-07
 115    -5.5214915589488e-07
 116    -4.8096566900048e-06
 117    3.9717524174842e-05
 118    -8.0838236737924e-07
 119    1.0459609631039e-06
 120    6.7830698434682e-07
 121    -9.5744356943336e-06
 122    1.5689661607997e-06
 123    3.3812348253653e-06
 124    -7.7523543189264e-08
 125    -1.8425043447656e-07
 126    -4.4949095451535e-08
 127    5.0992697111038e-08
 128    -4.7669507005114e-07
 129    -9.7893187106379e-07
 130    -9.5864280077162e-06
 131    5.7318652780248e-05
 132    -6.6594547318454e-07
 133    -1.7667329979688e-06
 134    3.9815613521831e-06
 135    -2.6265836895537e-05
 136    -1.9359659655614e-06
 137    -8.9634863066672e-05
 138    2.7884855057495e-06
 139    1.6520839689492e-06
 140    5.4512455675802e-07
 141    5.5460561465638e-07
 142    2.2367751519719e-07
 143    -6.9618139895773e-07
 144    -3.9738318449184e-06
 145    2.4451217471723e-05
 146    8.4084658134688e-07
 147    5.5522787721711e-07
 148    -3.9550523520536e-07
 149    1.4369762724911e-05
 150    -6.0082476075839e-06
 151    -4.09553570142e-06
 152    -1.1238645755434e-06
 153    -3.9713057684057e-07
 154    -9.4454175602318e-08
 155    7.4042977668326e-07
 156    -8.9729130811605e-07
 157    -6.5719016298949e-08
 158    1.4292318279479e-06
 159    9.0189052816642e-07
 160    8.0980099141383e-07
 161    -4.396129200574e-07
 162    -4.7623823766849e-07
 163    -7.5842682902916e-06
 164    7.1736660334355e-07
 165    8.6199160081743e-07
 166    4.742665640006e-07
 167    -1.4979992767496e-07
 168    -1.0052934780044e-08
 169    -1.1945028348618e-07
 170    3.3696690920193e-07
 171    1.0157386254693e-07
 172    -6.9172694756094e-07
 173    -1.3814552819488e-06
 174    -1.0460908726543e-06
 175    -3.9816399315365e-07
 176    9.3375029238786e-07
 177    -3.4416963116895e-07
 178    1.4776570196386e-06
 179    -2.0420663235483e-06
 180    1.3891131143689e-07
 181    1.6768611688614e-07
 182    4.0115430273779e-08
 183    -3.8866091308807e-07
 184    1.8764918777435e-07
 185    -2.8207619822963e-07
 186    -3.3472489271683e-06
 187    1.9207682147967e-06
 188    -1.3578824587418e-07
 189    1.9139969884266e-07
 190    1.5251574667141e-06
 191    2.9434137763812e-06
 192    6.3045988335242e-07
 193    -5.5220987727548e-06
 194    3.4772202522423e-07
 195    -8.0656529268434e-08
 196    2.2260399490104e-07
 197    9.9566537307158e-08
 198    -1.2608446985322e-07
 199    -9.0044241449416e-07
 200    -1.628383543188e-06
 201    2.8105354526174e-07
 202    4.1958748314088e-06
 203    -1.5152326475736e-06
 204    -1.1661353554668e-06
 205    -8.1550513019697e-07
 206    -3.5595816855983e-06
 207    1.4164938677698e-06
 208    -1.1470038843495e-05
 209    1.4003173341465e-06
 210    -4.959245762619e-06
 211    5.9956547551554e-07
 212    2.9818418648577e-06
 213    -5.525946868805e-07
 214    -3.3190991095265e-06
 215    -6.7707348426212e-07
 216    3.8951806645119e-07
 217     5.56065582073e-07
 218    1.5922382818085e-06
 219    2.4378951713129e-07
 220    9.4391407232687e-07
 221    -8.6464288803325e-07
 222    -8.5214514287389e-06
 223    -9.5543789336531e-06
 224    1.928306721749e-06
 225    -6.0277201893498e-06
 226    2.7240184514507e-06
 227    1.2238321748722e-05
 228    2.4204566246299e-05
 229    -0.00010591555259595
 230    -1.2728098422038e-06
 231    -4.4580064355041e-06
 232    -2.3454591802701e-06
 233    1.8759974303122e-06
 234    3.0834489118794e-06
 235    -8.4600075730021e-07
 236    -1.181038977387e-05
 237    1.9266742828206e-05
 238    -2.6689871005624e-06
 239    8.8336801281426e-06
 240    6.8489796918806e-06
 241    -2.3154468222983e-05
 242    -2.4511307673689e-06
 243    -9.0251278161229e-05
 244    1.2567766033909e-06
 245    7.3368855379433e-06
 246    1.4353130600283e-06
 247    2.7351095572906e-06
 248    1.2973364307968e-06
 249    -4.9747257152289e-06
 250    1.1120131956775e-05
 251    -4.8116476803187e-06
 252    -3.4436353325592e-05
 253    0.00028922909658501
 254    8.6619405262942e-07
 255    -3.5494912430059e-06
 256    8.0001456911557e-06
 257    0.00011912191712154
 258    0.00010888179008375
 259    -0.00026031285468342
 260    2.9395099023731e-06
 261    -1.3582861168763e-05
 262    -4.9469727107225e-06
 263    8.7793947961916e-06
 264    5.4542759670863e-06
 265    -4.6605394565583e-06
 266    2.9608518798809e-05
 267    -9.1576564732638e-06
 268    3.778920054531e-05
 269    -7.3045079572974e-05
 270    9.5644962660492e-06
 271    0.0033559277270206
 272    -4.2575919937033e-05
 273    -0.00024721897021727
 274    0.00019045418024797
 275    0.0022791854090834
 276    0.00063107277580693
 277    -0.0034464126519409
 278    0.00021083960624452
 279    -0.00023990305666528
 280    0.00016500888161683