[Molden Format]
made by pyscf v[2.0.1]
[Atoms] (AU)
C   1   6     0.69100024066471     0.64692934207205    -3.48223131169301
H   2   1     2.68052439830868     1.13355088658700    -3.25784032593313
C   3   6    -0.36286361513219     0.85440132524594    -5.97030179418974
H   4   1    -2.35448549047279     0.36322488579172    -6.17995817793143
C   5   6     0.93697958957450     1.61209284601821    -8.05828437677121
H   6   1     2.04771873455416     3.34419409619576    -7.97445952172335
C   7   6     0.93181860145248     0.24539724069794   -10.40101785795171
H   8   1    -0.18866463604211    -1.48700602985521   -10.45595821195799
H   9   1     1.55630230933075    -1.92953025305990    12.99630010416247
C   10   6     0.75233899775814    -2.21270439606481    11.10705728102219
H   11   1    -0.43433408177274    -3.90944857546550    11.22216085340412
C   12   6     2.86362581178706    -2.63237380607947     9.17926416456045
H   13   1     4.39038949912609    -1.24955421540245     9.49899813497433
H   14   1     3.74629220191363    -4.48798724300892     9.47414880959024
C   15   6     2.02478325613682    -2.42177285709634     6.44560829588644
C   16   6     3.88048732735477    -3.58795445234514     4.61402886975252
C   17   6    -0.18412382258602    -1.30464291234259     5.76021113872346
C   18   6    -2.10044360464350    -0.26837831858460     7.71610340967100
C   19   6    -3.08956938670431     2.35282328359417     6.88693925039594
C   20   6    -4.37372924086464    -2.09766595989678     7.93610724222001
C   21   6    -0.83850430601230     0.06372213486173    10.33002307638377
H   22   1     0.38411922151109     1.74281358582432    10.27380136542181
H   23   1    -2.30980003007874     0.45460143924521    11.73986301809809
H   24   1     4.58527064644668    -5.38706904487420     5.36778158031719
H   25   1     5.54944938085014    -2.37631462192748     4.35398898413318
H   26   1     3.06633019150423    -3.94118377050688     2.75255466040884
H   27   1    -4.17727778763735     2.26573369139522     5.12914900961283
H   28   1    -1.52662344944051     3.68001877445626     6.59540397144508
H   29   1    -4.32916174397830     3.13643051467482     8.35225460090378
H   30   1    -5.32329548508442    -2.36691813602939     6.11583672749896
H   31   1    -5.77989366602257    -1.33896741843465     9.25748940450990
H   32   1    -3.79310905208926    -3.96389819310853     8.61386170102686
C   33   6    -1.01100794811226    -1.06331657314144     3.11929490449947
C   34   6     0.37686231036534    -0.33275864505552     1.09165013605873
H   35   1    -3.01671213906703    -1.40297922279997     2.77827895090944
C   36   6    -0.64382707979370    -0.11591880174385    -1.42063131251064
H   37   1     2.35569259782137     0.17174499283897     1.33641070251401
H   38   1    -2.63317482980319    -0.60229203511219    -1.66119700387645
C   39   6     2.19331151370285     0.92821726401642   -12.52684146370420
C   40   6     2.06658501336205    -0.59430170292716   -14.82312084011087
H   41   1     3.34297492540252     2.63137484242591   -12.59961951178576
O   42   8     3.14891962090165    -0.09254461622574   -16.79735885819125
H   43   1     0.86886987612456    -2.32059369084518   -14.66320417409860
[GTO]
1 0
 s    6 1.00
             3047.5249  0.0018347001629433
             457.36951    0.01403730124668
             103.94869   0.068842606114048
             29.210155    0.23218442062076
              9.286663    0.46794134155879
              3.163927    0.36231203217765
 s    3 1.00
             7.8682724   -0.11933240861517
             1.8812885   -0.16085421161283
             0.5442493     1.1434564825515
 s    1 1.00
             0.1687144                   1
 p    3 1.00
             7.8682724   0.068999095584993
             1.8812885    0.31642397975315
             0.5442493    0.74430825237435
 p    1 1.00
             0.1687144                   1
 d    1 1.00
                   0.8                   1

2 0
 s    3 1.00
             18.731137    0.03349459952309
             2.8253937    0.23472694665786
             0.6401217    0.81375731841339
 s    1 1.00
             0.1612778                   1

3 0
 s    6 1.00
             3047.5249  0.0018347001629433
             457.36951    0.01403730124668
             103.94869   0.068842606114048
             29.210155    0.23218442062076
              9.286663    0.46794134155879
              3.163927    0.36231203217765
 s    3 1.00
             7.8682724   -0.11933240861517
             1.8812885   -0.16085421161283
             0.5442493     1.1434564825515
 s    1 1.00
             0.1687144                   1
 p    3 1.00
             7.8682724   0.068999095584993
             1.8812885    0.31642397975315
             0.5442493    0.74430825237435
 p    1 1.00
             0.1687144                   1
 d    1 1.00
                   0.8                   1

4 0
 s    3 1.00
             18.731137    0.03349459952309
             2.8253937    0.23472694665786
             0.6401217    0.81375731841339
 s    1 1.00
             0.1612778                   1

5 0
 s    6 1.00
             3047.5249  0.0018347001629433
             457.36951    0.01403730124668
             103.94869   0.068842606114048
             29.210155    0.23218442062076
              9.286663    0.46794134155879
              3.163927    0.36231203217765
 s    3 1.00
             7.8682724   -0.11933240861517
             1.8812885   -0.16085421161283
             0.5442493     1.1434564825515
 s    1 1.00
             0.1687144                   1
 p    3 1.00
             7.8682724   0.068999095584993
             1.8812885    0.31642397975315
             0.5442493    0.74430825237435
 p    1 1.00
             0.1687144                   1
 d    1 1.00
                   0.8                   1

6 0
 s    3 1.00
             18.731137    0.03349459952309
             2.8253937    0.23472694665786
             0.6401217    0.81375731841339
 s    1 1.00
             0.1612778                   1

7 0
 s    6 1.00
             3047.5249  0.0018347001629433
             457.36951    0.01403730124668
             103.94869   0.068842606114048
             29.210155    0.23218442062076
              9.286663    0.46794134155879
              3.163927    0.36231203217765
 s    3 1.00
             7.8682724   -0.11933240861517
             1.8812885   -0.16085421161283
             0.5442493     1.1434564825515
 s    1 1.00
             0.1687144                   1
 p    3 1.00
             7.8682724   0.068999095584993
             1.8812885    0.31642397975315
             0.5442493    0.74430825237435
 p    1 1.00
             0.1687144                   1
 d    1 1.00
                   0.8                   1

8 0
 s    3 1.00
             18.731137    0.03349459952309
             2.8253937    0.23472694665786
             0.6401217    0.81375731841339
 s    1 1.00
             0.1612778                   1

9 0
 s    3 1.00
             18.731137    0.03349459952309
             2.8253937    0.23472694665786
             0.6401217    0.81375731841339
 s    1 1.00
             0.1612778                   1

10 0
 s    6 1.00
             3047.5249  0.0018347001629433
             457.36951    0.01403730124668
             103.94869   0.068842606114048
             29.210155    0.23218442062076
              9.286663    0.46794134155879
              3.163927    0.36231203217765
 s    3 1.00
             7.8682724   -0.11933240861517
             1.8812885   -0.16085421161283
             0.5442493     1.1434564825515
 s    1 1.00
             0.1687144                   1
 p    3 1.00
             7.8682724   0.068999095584993
             1.8812885    0.31642397975315
             0.5442493    0.74430825237435
 p    1 1.00
             0.1687144                   1
 d    1 1.00
                   0.8                   1

11 0
 s    3 1.00
             18.731137    0.03349459952309
             2.8253937    0.23472694665786
             0.6401217    0.81375731841339
 s    1 1.00
             0.1612778                   1

12 0
 s    6 1.00
             3047.5249  0.0018347001629433
             457.36951    0.01403730124668
             103.94869   0.068842606114048
             29.210155    0.23218442062076
              9.286663    0.46794134155879
              3.163927    0.36231203217765
 s    3 1.00
             7.8682724   -0.11933240861517
             1.8812885   -0.16085421161283
             0.5442493     1.1434564825515
 s    1 1.00
             0.1687144                   1
 p    3 1.00
             7.8682724   0.068999095584993
             1.8812885    0.31642397975315
             0.5442493    0.74430825237435
 p    1 1.00
             0.1687144                   1
 d    1 1.00
                   0.8                   1

13 0
 s    3 1.00
             18.731137    0.03349459952309
             2.8253937    0.23472694665786
             0.6401217    0.81375731841339
 s    1 1.00
             0.1612778                   1

14 0
 s    3 1.00
             18.731137    0.03349459952309
             2.8253937    0.23472694665786
             0.6401217    0.81375731841339
 s    1 1.00
             0.1612778                   1

15 0
 s    6 1.00
             3047.5249  0.0018347001629433
             457.36951    0.01403730124668
             103.94869   0.068842606114048
             29.210155    0.23218442062076
              9.286663    0.46794134155879
              3.163927    0.36231203217765
 s    3 1.00
             7.8682724   -0.11933240861517
             1.8812885   -0.16085421161283
             0.5442493     1.1434564825515
 s    1 1.00
             0.1687144                   1
 p    3 1.00
             7.8682724   0.068999095584993
             1.8812885    0.31642397975315
             0.5442493    0.74430825237435
 p    1 1.00
             0.1687144                   1
 d    1 1.00
                   0.8                   1

16 0
 s    6 1.00
             3047.5249  0.0018347001629433
             457.36951    0.01403730124668
             103.94869   0.068842606114048
             29.210155    0.23218442062076
              9.286663    0.46794134155879
              3.163927    0.36231203217765
 s    3 1.00
             7.8682724   -0.11933240861517
             1.8812885   -0.16085421161283
             0.5442493     1.1434564825515
 s    1 1.00
             0.1687144                   1
 p    3 1.00
             7.8682724   0.068999095584993
             1.8812885    0.31642397975315
             0.5442493    0.74430825237435
 p    1 1.00
             0.1687144                   1
 d    1 1.00
                   0.8                   1

17 0
 s    6 1.00
             3047.5249  0.0018347001629433
             457.36951    0.01403730124668
             103.94869   0.068842606114048
             29.210155    0.23218442062076
              9.286663    0.46794134155879
              3.163927    0.36231203217765
 s    3 1.00
             7.8682724   -0.11933240861517
             1.8812885   -0.16085421161283
             0.5442493     1.1434564825515
 s    1 1.00
             0.1687144                   1
 p    3 1.00
             7.8682724   0.068999095584993
             1.8812885    0.31642397975315
             0.5442493    0.74430825237435
 p    1 1.00
             0.1687144                   1
 d    1 1.00
                   0.8                   1

18 0
 s    6 1.00
             3047.5249  0.0018347001629433
             457.36951    0.01403730124668
             103.94869   0.068842606114048
             29.210155    0.23218442062076
              9.286663    0.46794134155879
              3.163927    0.36231203217765
 s    3 1.00
             7.8682724   -0.11933240861517
             1.8812885   -0.16085421161283
             0.5442493     1.1434564825515
 s    1 1.00
             0.1687144                   1
 p    3 1.00
             7.8682724   0.068999095584993
             1.8812885    0.31642397975315
             0.5442493    0.74430825237435
 p    1 1.00
             0.1687144                   1
 d    1 1.00
                   0.8                   1

19 0
 s    6 1.00
             3047.5249  0.0018347001629433
             457.36951    0.01403730124668
             103.94869   0.068842606114048
             29.210155    0.23218442062076
              9.286663    0.46794134155879
              3.163927    0.36231203217765
 s    3 1.00
             7.8682724   -0.11933240861517
             1.8812885   -0.16085421161283
             0.5442493     1.1434564825515
 s    1 1.00
             0.1687144                   1
 p    3 1.00
             7.8682724   0.068999095584993
             1.8812885    0.31642397975315
             0.5442493    0.74430825237435
 p    1 1.00
             0.1687144                   1
 d    1 1.00
                   0.8                   1

20 0
 s    6 1.00
             3047.5249  0.0018347001629433
             457.36951    0.01403730124668
             103.94869   0.068842606114048
             29.210155    0.23218442062076
              9.286663    0.46794134155879
              3.163927    0.36231203217765
 s    3 1.00
             7.8682724   -0.11933240861517
             1.8812885   -0.16085421161283
             0.5442493     1.1434564825515
 s    1 1.00
             0.1687144                   1
 p    3 1.00
             7.8682724   0.068999095584993
             1.8812885    0.31642397975315
             0.5442493    0.74430825237435
 p    1 1.00
             0.1687144                   1
 d    1 1.00
                   0.8                   1

21 0
 s    6 1.00
             3047.5249  0.0018347001629433
             457.36951    0.01403730124668
             103.94869   0.068842606114048
             29.210155    0.23218442062076
              9.286663    0.46794134155879
              3.163927    0.36231203217765
 s    3 1.00
             7.8682724   -0.11933240861517
             1.8812885   -0.16085421161283
             0.5442493     1.1434564825515
 s    1 1.00
             0.1687144                   1
 p    3 1.00
             7.8682724   0.068999095584993
             1.8812885    0.31642397975315
             0.5442493    0.74430825237435
 p    1 1.00
             0.1687144                   1
 d    1 1.00
                   0.8                   1

22 0
 s    3 1.00
             18.731137    0.03349459952309
             2.8253937    0.23472694665786
             0.6401217    0.81375731841339
 s    1 1.00
             0.1612778                   1

23 0
 s    3 1.00
             18.731137    0.03349459952309
             2.8253937    0.23472694665786
             0.6401217    0.81375731841339
 s    1 1.00
             0.1612778                   1

24 0
 s    3 1.00
             18.731137    0.03349459952309
             2.8253937    0.23472694665786
             0.6401217    0.81375731841339
 s    1 1.00
             0.1612778                   1

25 0
 s    3 1.00
             18.731137    0.03349459952309
             2.8253937    0.23472694665786
             0.6401217    0.81375731841339
 s    1 1.00
             0.1612778                   1

26 0
 s    3 1.00
             18.731137    0.03349459952309
             2.8253937    0.23472694665786
             0.6401217    0.81375731841339
 s    1 1.00
             0.1612778                   1

27 0
 s    3 1.00
             18.731137    0.03349459952309
             2.8253937    0.23472694665786
             0.6401217    0.81375731841339
 s    1 1.00
             0.1612778                   1

28 0
 s    3 1.00
             18.731137    0.03349459952309
             2.8253937    0.23472694665786
             0.6401217    0.81375731841339
 s    1 1.00
             0.1612778                   1

29 0
 s    3 1.00
             18.731137    0.03349459952309
             2.8253937    0.23472694665786
             0.6401217    0.81375731841339
 s    1 1.00
             0.1612778                   1

30 0
 s    3 1.00
             18.731137    0.03349459952309
             2.8253937    0.23472694665786
             0.6401217    0.81375731841339
 s    1 1.00
             0.1612778                   1

31 0
 s    3 1.00
             18.731137    0.03349459952309
             2.8253937    0.23472694665786
             0.6401217    0.81375731841339
 s    1 1.00
             0.1612778                   1

32 0
 s    3 1.00
             18.731137    0.03349459952309
             2.8253937    0.23472694665786
             0.6401217    0.81375731841339
 s    1 1.00
             0.1612778                   1

33 0
 s    6 1.00
             3047.5249  0.0018347001629433
             457.36951    0.01403730124668
             103.94869   0.068842606114048
             29.210155    0.23218442062076
              9.286663    0.46794134155879
              3.163927    0.36231203217765
 s    3 1.00
             7.8682724   -0.11933240861517
             1.8812885   -0.16085421161283
             0.5442493     1.1434564825515
 s    1 1.00
             0.1687144                   1
 p    3 1.00
             7.8682724   0.068999095584993
             1.8812885    0.31642397975315
             0.5442493    0.74430825237435
 p    1 1.00
             0.1687144                   1
 d    1 1.00
                   0.8                   1

34 0
 s    6 1.00
             3047.5249  0.0018347001629433
             457.36951    0.01403730124668
             103.94869   0.068842606114048
             29.210155    0.23218442062076
              9.286663    0.46794134155879
              3.163927    0.36231203217765
 s    3 1.00
             7.8682724   -0.11933240861517
             1.8812885   -0.16085421161283
             0.5442493     1.1434564825515
 s    1 1.00
             0.1687144                   1
 p    3 1.00
             7.8682724   0.068999095584993
             1.8812885    0.31642397975315
             0.5442493    0.74430825237435
 p    1 1.00
             0.1687144                   1
 d    1 1.00
                   0.8                   1

35 0
 s    3 1.00
             18.731137    0.03349459952309
             2.8253937    0.23472694665786
             0.6401217    0.81375731841339
 s    1 1.00
             0.1612778                   1

36 0
 s    6 1.00
             3047.5249  0.0018347001629433
             457.36951    0.01403730124668
             103.94869   0.068842606114048
             29.210155    0.23218442062076
              9.286663    0.46794134155879
              3.163927    0.36231203217765
 s    3 1.00
             7.8682724   -0.11933240861517
             1.8812885   -0.16085421161283
             0.5442493     1.1434564825515
 s    1 1.00
             0.1687144                   1
 p    3 1.00
             7.8682724   0.068999095584993
             1.8812885    0.31642397975315
             0.5442493    0.74430825237435
 p    1 1.00
             0.1687144                   1
 d    1 1.00
                   0.8                   1

37 0
 s    3 1.00
             18.731137    0.03349459952309
             2.8253937    0.23472694665786
             0.6401217    0.81375731841339
 s    1 1.00
             0.1612778                   1

38 0
 s    3 1.00
             18.731137    0.03349459952309
             2.8253937    0.23472694665786
             0.6401217    0.81375731841339
 s    1 1.00
             0.1612778                   1

39 0
 s    6 1.00
             3047.5249  0.0018347001629433
             457.36951    0.01403730124668
             103.94869   0.068842606114048
             29.210155    0.23218442062076
              9.286663    0.46794134155879
              3.163927    0.36231203217765
 s    3 1.00
             7.8682724   -0.11933240861517
             1.8812885   -0.16085421161283
             0.5442493     1.1434564825515
 s    1 1.00
             0.1687144                   1
 p    3 1.00
             7.8682724   0.068999095584993
             1.8812885    0.31642397975315
             0.5442493    0.74430825237435
 p    1 1.00
             0.1687144                   1
 d    1 1.00
                   0.8                   1

40 0
 s    6 1.00
             3047.5249  0.0018347001629433
             457.36951    0.01403730124668
             103.94869   0.068842606114048
             29.210155    0.23218442062076
              9.286663    0.46794134155879
              3.163927    0.36231203217765
 s    3 1.00
             7.8682724   -0.11933240861517
             1.8812885   -0.16085421161283
             0.5442493     1.1434564825515
 s    1 1.00
             0.1687144                   1
 p    3 1.00
             7.8682724   0.068999095584993
             1.8812885    0.31642397975315
             0.5442493    0.74430825237435
 p    1 1.00
             0.1687144                   1
 d    1 1.00
                   0.8                   1

41 0
 s    3 1.00
             18.731137    0.03349459952309
             2.8253937    0.23472694665786
             0.6401217    0.81375731841339
 s    1 1.00
             0.1612778                   1

42 0
 s    6 1.00
             5484.6717   0.001831099805527
             825.23495   0.013950098518422
             188.04696    0.06844509273075
               52.9645    0.23271427528445
              16.89757    0.47019295006289
             5.7996353    0.35852086192309
 s    3 1.00
             15.539616   -0.11077750382508
             3.5999336   -0.14802630511126
             1.0137618     1.1307670390447
 s    1 1.00
             0.2700058                   1
 p    3 1.00
             15.539616   0.070874299543311
             3.5999336    0.33975279781076
             1.0137618    0.72715859531445
 p    1 1.00
             0.2700058                   1
 d    1 1.00
                   0.8                   1

43 0
 s    3 1.00
             18.731137    0.03349459952309
             2.8253937    0.23472694665786
             0.6401217    0.81375731841339
 s    1 1.00
             0.1612778                   1

[5d]
[7f]
[9g]

[MO]
 Sym= A
 Ene=               0
 Spin= Alpha
 Occup=    1.00000
   1    -3.5341971674094e-06
   2    1.0827886388183e-05
   3    -0.00013430016531572
   4    -3.7957772039999e-06
   5    -2.3204467225986e-05
   6    -1.0256728618665e-05
   7    0.00012670361263118
   8    0.00015200622160118
   9    -0.00014485995632248
  10    8.2346588282237e-06
  11    3.9005045275621e-06
  12    -2.3690469289301e-06
  13    -6.238771341614e-06
  14    3.9875753588239e-06
  15    -9.6650861147317e-06
  16    -3.4162731160873e-05
  17    5.072509880263e-06
  18    -6.7570725539868e-05
  19    -0.0011171200626199
  20    -3.927366598073e-05
  21    1.0115067603211e-05
  22    8.0487993669925e-05
  23    -0.00026551593687463
  24    -4.3366602791116e-05
  25    0.00075932085106738
  26    -3.38345032411e-05
  27    2.1765418599034e-05
  28    1.395035464434e-05
  29    -3.6762971441947e-05
  30    2.9828987403147e-05
  31    6.1762256263363e-07
  32    1.0034863195356e-05
  33    -8.1069403286117e-05
  34    -0.00028355817994715
  35    0.0049775324435279
  36    4.8179066455604e-05
  37    -5.6595094527885e-05
  38    -0.00023109958919783
  39    -0.0007909088776597
  40    -0.0017607989332587
  41    -0.0011738373364908
  42    0.00011150460684072
  43    -4.2094536772879e-05
  44    9.7560353517422e-05
  45    -3.1365820716389e-05
  46    3.2136877481739e-05
  47    1.6084605672109e-05
  48    0.00029117106687314
  49    5.5164846744884e-05
  50    -0.00031130761638791
  51    -0.0040283163752773
  52    -3.3843529067844e-05
  53    0.00027677699212139
  54    0.00058106691855161
  55    -0.00015657260352286
  56    -0.0022047105241296
  57    -0.0033077552466736
  58    -6.532248472591e-05
  59    -0.00010125991135587
  60    -0.00017194678588164
  61    2.5343412663274e-05
  62    0.00010902931200264
  63    -0.00042049694240576
  64    -0.00014932099370876
  65    1.2264566096772e-07
  66    9.462368678503e-07
  67    -1.49056453014e-08
  68    -1.6621736643077e-07
  69    -2.2596026905684e-06
  70    1.119714929085e-07
  71    -1.2188185327786e-07
  72    1.3464796684629e-07
  73    7.8478050443808e-07
  74    -6.0963378930182e-07
  75    -1.2448894623514e-06
  76    1.1152400204909e-07
  77    1.0612965241892e-07
  78    1.7212285358798e-08
  79    -1.6936039189093e-08
  80    8.2698359606062e-08
  81    3.4085997881337e-08
  82    2.8370481462521e-07
  83    9.1647174975952e-08
  84    5.7556317003175e-07
  85    1.6889392869433e-06
  86    -6.396654357885e-08
  87    -1.3861498284643e-07
  88    -7.0614529531292e-08
  89    -1.483396819103e-07
  90    -2.2068242929487e-07
  91    -6.4085224620197e-07
  92    -1.2533353687195e-07
  93    -1.3278423308936e-08
  94    1.8478102168716e-07
  95    -9.81092752117e-08
  96    7.7792366679327e-08
  97    2.4146048779469e-07
  98    -8.1577588846366e-08
  99    -5.5624192295697e-08
 100    9.0450235998685e-09
 101    -1.5495854422888e-07
 102    3.2924343928335e-07
 103    1.5423013865632e-05
 104    -5.4062730082316e-07
 105    1.4795195103122e-07
 106    -7.4292098576933e-07
 107    -1.6039055421727e-06
 108    3.0268482002692e-06
 109    -1.1926746176775e-05
 110    5.1565023539372e-07
 111    6.3722386736734e-07
 112    -3.0369782176926e-07
 113    -6.8177795811419e-07
 114    -3.4415969092836e-07
 115    4.4006752425808e-07
 116    4.1461228232739e-06
 117    -2.2062104409347e-05
 118    2.2092230553503e-07
 119    -2.6395890924469e-07
 120    -7.1710074731156e-07
 121    4.1981818586146e-06
 122    -1.8795971000231e-06
 123     6.82868708937e-06
 124    1.7253814727499e-07
 125    -2.7915599886982e-07
 126    -6.4010128987139e-08
 127    8.4604663792162e-08
 128    3.6653966804143e-08
 129    5.0660700427697e-07
 130    6.2279124114111e-06
 131    -2.3689448713216e-07
 132    1.9894820802688e-06
 133    2.0742607227512e-06
 134    -3.7384321920101e-06
 135    -2.3296932620673e-05
 136    -2.4096118392189e-06
 137    2.0297346469382e-05
 138    -8.1618456691521e-07
 139    -1.4849205363784e-07
 140    6.7405303766773e-07
 141    -3.1267710569052e-07
 142    4.3608906446875e-07
 143    8.9563125300597e-08
 144    -5.2023732766959e-07
 145    -1.3604501245495e-05
 146    -6.0006349374049e-07
 147    -1.1407268748931e-06
 148    1.9048915458584e-06
 149    -6.5635377337722e-06
 150    1.8690709780631e-05
 151    -8.3911559611957e-06
 152    3.0309913730393e-07
 153    1.2111674908878e-07
 154    -7.2352583464383e-07
 155    -3.8451482426663e-07
 156    -1.602830148996e-07
 157    2.6809267596538e-07
 158    1.4279006247275e-06
 159    -1.4726631921644e-05
 160    -4.0715237111341e-07
 161    6.8896699403667e-07
 162    -4.7645794150517e-07
 163    -1.445475858599e-06
 164    5.4384241674129e-06
 165    4.5821252858955e-07
 166    3.1898856106309e-07
 167    -2.2434165205853e-07
 168    1.0657236029657e-07
 169    2.466053122372e-07
 170    2.4459022494784e-07
 171    -3.0883287403127e-08
 172    3.204799963356e-07
 173    3.3946471068014e-06
 174    4.5834099996806e-07
 175    6.3013388983009e-09
 176    7.9791816560754e-08
 177    4.726080507009e-06
 178    1.3406668622949e-06
 179    3.7123060688827e-06
 180    -2.369179750019e-07
 181    4.2950521344932e-07
 182    1.0367034138553e-07
 183    4.579118944888e-07
 184    2.999249614839e-07
 185    -1.0987676240801e-07
 186    -5.2317821980287e-07
 187    8.315114828178e-06
 188    -2.8911452907275e-07
 189    -1.0086926470311e-07
 190    -5.705349682209e-07
 191    -2.0977972817027e-06
 192    -4.7274360437307e-06
 193    -1.1829604813089e-06
 194    -9.6483215473989e-08
 195    3.1926591242666e-07
 196    5.7461063446772e-07
 197    -1.4786866527279e-07
 198    1.6329671582705e-07
 199    -1.1296892297206e-07
 200    1.7515907646156e-06
 201    -2.8237178783973e-07
 202    -1.4232406029574e-06
 203    7.8930639753535e-07
 204    -3.7254235737121e-07
 205    1.2438994242183e-06
 206    1.5436727286024e-06
 207    -1.8704726455776e-06
 208    1.7326962892269e-05
 209    4.0850505338654e-07
 210    2.2015646414741e-06
 211    6.6285022726501e-07
 212    -1.7022695486435e-07
 213    3.4607950686506e-07
 214    1.5124295236966e-07
 215    -6.3098534810579e-07
 216    6.2683864468013e-06
 217    -5.4642405818823e-08
 218    -8.5388531777883e-07
 219    2.3946369030429e-07
 220    -1.421135003208e-06
 221    -6.539573883822e-07
 222    -3.248457637277e-06
 223    7.8738359376338e-05
 224    2.2403324649252e-06
 225    2.0097807172693e-07
 226    -7.5534118556093e-07
 227    -2.1700051798746e-06
 228    7.8432113271951e-06
 229    -5.6746437846118e-05
 230    2.7835541103173e-06
 231    -1.5952166105025e-06
 232    -8.0266467395318e-07
 233    3.9389191452774e-07
 234    -9.4964104466307e-07
 235    3.4622716404905e-06
 236    2.5436098692411e-05
 237    -0.00029580683548729
 238    -3.8534398886738e-07
 239    -6.7755120032006e-06
 240    3.0828543788788e-06
 241    9.2852808840038e-05
 242    2.942696807255e-05
 243    0.0001064714864182
 244    -9.9434599193528e-06
 245    -2.6833882482301e-06
 246    -1.9826903372041e-07
 247    -1.6311776792092e-06
 248    -3.6301060097472e-06
 249    -3.0710612898113e-06
 250    -1.5114736286255e-05
 251    -6.17550830887e-07
 252    -8.8776329337767e-06
 253    0.00032810505362128
 254    -1.1748517651227e-05
 255    1.3287951094767e-05
 256    -1.3931004668616e-05
 257    0.00014268643369887
 258    -6.4382879869172e-05
 259    0.00014594217639526
 260    8.4784898514533e-06
 261    3.6359757963521e-06
 262    2.6044480642938e-06
 263    3.1496006610223e-07
 264    -6.3566933742498e-06
 265    1.263576684688e-06
 266    -1.7609912299218e-05
 267    1.447496093632e-05
 268    6.2097407321858e-07
 269    7.2107573499816e-05
 270    -1.7278342131557e-05
 271    -0.0032853735144465
 272    0.00020351018033693
 273    0.00021382008360429
 274    -0.00010203647134445
 275    -0.0018879672079765
 276    -0.00072848945495424
 277    0.0037308113723566
 278    -0.00035509343883425
 279    0.0001419506006773
 280    -5.5480378928975e-05