[Molden Format]
made by pyscf v[2.0.1]
[Atoms] (AU)
C   1   6     0.69100024066471     0.64692934207205    -3.48223131169301
H   2   1     2.68052439830868     1.13355088658700    -3.25784032593313
C   3   6    -0.36286361513219     0.85440132524594    -5.97030179418974
H   4   1    -2.35448549047279     0.36322488579172    -6.17995817793143
C   5   6     0.93697958957450     1.61209284601821    -8.05828437677121
H   6   1    -0.09693119212527     2.00604603919817    -9.79517014534402
C   7   6     3.63030097622708     1.92762357571405    -8.11066704391556
H   8   1     4.64038155806228     1.52704759336691    -6.35595956986227
H   9   1     1.55630230933075    -1.92953025305990    12.99630010416247
C   10   6     0.75233899775814    -2.21270439606481    11.10705728102219
H   11   1    -0.43433408177274    -3.90944857546550    11.22216085340412
C   12   6     2.86362581178706    -2.63237380607947     9.17926416456045
H   13   1     4.39038949912609    -1.24955421540245     9.49899813497433
H   14   1     3.74629220191363    -4.48798724300892     9.47414880959024
C   15   6     2.02478325613682    -2.42177285709634     6.44560829588644
C   16   6     3.88048732735477    -3.58795445234514     4.61402886975252
C   17   6    -0.18412382258602    -1.30464291234259     5.76021113872346
C   18   6    -2.10044360464350    -0.26837831858460     7.71610340967100
C   19   6    -3.08956938670431     2.35282328359417     6.88693925039594
C   20   6    -4.37372924086464    -2.09766595989678     7.93610724222001
C   21   6    -0.83850430601230     0.06372213486173    10.33002307638377
H   22   1     0.38411922151109     1.74281358582432    10.27380136542181
H   23   1    -2.30980003007874     0.45460143924521    11.73986301809809
H   24   1     4.58527064644668    -5.38706904487420     5.36778158031719
H   25   1     5.54944938085014    -2.37631462192748     4.35398898413318
H   26   1     3.06633019150423    -3.94118377050688     2.75255466040884
H   27   1    -4.17727778763735     2.26573369139522     5.12914900961283
H   28   1    -1.52662344944051     3.68001877445626     6.59540397144508
H   29   1    -4.32916174397830     3.13643051467482     8.35225460090378
H   30   1    -5.32329548508442    -2.36691813602939     6.11583672749896
H   31   1    -5.77989366602257    -1.33896741843465     9.25748940450990
H   32   1    -3.79310905208926    -3.96389819310853     8.61386170102686
C   33   6    -1.01100794811226    -1.06331657314144     3.11929490449947
C   34   6     0.37686231036534    -0.33275864505552     1.09165013605873
H   35   1    -3.01671213906703    -1.40297922279997     2.77827895090944
C   36   6    -0.64382707979370    -0.11591880174385    -1.42063131251064
H   37   1     2.35569259782137     0.17174499283897     1.33641070251401
H   38   1    -2.63317482980319    -0.60229203511219    -1.66119700387645
C   39   6     5.00345825531076     2.67452304879010   -10.14372233560053
C   40   6     7.74537676211387     2.93885238802377   -10.00575318331397
H   41   1     4.11504514624535     3.10282594680410   -11.94789724846226
O   42   8     9.09456961333047     3.59889471504076   -11.75642359916462
H   43   1     8.57474602054619     2.48152315519597    -8.12342071425648
[GTO]
1 0
 s    6 1.00
             3047.5249  0.0018347001629433
             457.36951    0.01403730124668
             103.94869   0.068842606114048
             29.210155    0.23218442062076
              9.286663    0.46794134155879
              3.163927    0.36231203217765
 s    3 1.00
             7.8682724   -0.11933240861517
             1.8812885   -0.16085421161283
             0.5442493     1.1434564825515
 s    1 1.00
             0.1687144                   1
 p    3 1.00
             7.8682724   0.068999095584993
             1.8812885    0.31642397975315
             0.5442493    0.74430825237435
 p    1 1.00
             0.1687144                   1
 d    1 1.00
                   0.8                   1

2 0
 s    3 1.00
             18.731137    0.03349459952309
             2.8253937    0.23472694665786
             0.6401217    0.81375731841339
 s    1 1.00
             0.1612778                   1

3 0
 s    6 1.00
             3047.5249  0.0018347001629433
             457.36951    0.01403730124668
             103.94869   0.068842606114048
             29.210155    0.23218442062076
              9.286663    0.46794134155879
              3.163927    0.36231203217765
 s    3 1.00
             7.8682724   -0.11933240861517
             1.8812885   -0.16085421161283
             0.5442493     1.1434564825515
 s    1 1.00
             0.1687144                   1
 p    3 1.00
             7.8682724   0.068999095584993
             1.8812885    0.31642397975315
             0.5442493    0.74430825237435
 p    1 1.00
             0.1687144                   1
 d    1 1.00
                   0.8                   1

4 0
 s    3 1.00
             18.731137    0.03349459952309
             2.8253937    0.23472694665786
             0.6401217    0.81375731841339
 s    1 1.00
             0.1612778                   1

5 0
 s    6 1.00
             3047.5249  0.0018347001629433
             457.36951    0.01403730124668
             103.94869   0.068842606114048
             29.210155    0.23218442062076
              9.286663    0.46794134155879
              3.163927    0.36231203217765
 s    3 1.00
             7.8682724   -0.11933240861517
             1.8812885   -0.16085421161283
             0.5442493     1.1434564825515
 s    1 1.00
             0.1687144                   1
 p    3 1.00
             7.8682724   0.068999095584993
             1.8812885    0.31642397975315
             0.5442493    0.74430825237435
 p    1 1.00
             0.1687144                   1
 d    1 1.00
                   0.8                   1

6 0
 s    3 1.00
             18.731137    0.03349459952309
             2.8253937    0.23472694665786
             0.6401217    0.81375731841339
 s    1 1.00
             0.1612778                   1

7 0
 s    6 1.00
             3047.5249  0.0018347001629433
             457.36951    0.01403730124668
             103.94869   0.068842606114048
             29.210155    0.23218442062076
              9.286663    0.46794134155879
              3.163927    0.36231203217765
 s    3 1.00
             7.8682724   -0.11933240861517
             1.8812885   -0.16085421161283
             0.5442493     1.1434564825515
 s    1 1.00
             0.1687144                   1
 p    3 1.00
             7.8682724   0.068999095584993
             1.8812885    0.31642397975315
             0.5442493    0.74430825237435
 p    1 1.00
             0.1687144                   1
 d    1 1.00
                   0.8                   1

8 0
 s    3 1.00
             18.731137    0.03349459952309
             2.8253937    0.23472694665786
             0.6401217    0.81375731841339
 s    1 1.00
             0.1612778                   1

9 0
 s    3 1.00
             18.731137    0.03349459952309
             2.8253937    0.23472694665786
             0.6401217    0.81375731841339
 s    1 1.00
             0.1612778                   1

10 0
 s    6 1.00
             3047.5249  0.0018347001629433
             457.36951    0.01403730124668
             103.94869   0.068842606114048
             29.210155    0.23218442062076
              9.286663    0.46794134155879
              3.163927    0.36231203217765
 s    3 1.00
             7.8682724   -0.11933240861517
             1.8812885   -0.16085421161283
             0.5442493     1.1434564825515
 s    1 1.00
             0.1687144                   1
 p    3 1.00
             7.8682724   0.068999095584993
             1.8812885    0.31642397975315
             0.5442493    0.74430825237435
 p    1 1.00
             0.1687144                   1
 d    1 1.00
                   0.8                   1

11 0
 s    3 1.00
             18.731137    0.03349459952309
             2.8253937    0.23472694665786
             0.6401217    0.81375731841339
 s    1 1.00
             0.1612778                   1

12 0
 s    6 1.00
             3047.5249  0.0018347001629433
             457.36951    0.01403730124668
             103.94869   0.068842606114048
             29.210155    0.23218442062076
              9.286663    0.46794134155879
              3.163927    0.36231203217765
 s    3 1.00
             7.8682724   -0.11933240861517
             1.8812885   -0.16085421161283
             0.5442493     1.1434564825515
 s    1 1.00
             0.1687144                   1
 p    3 1.00
             7.8682724   0.068999095584993
             1.8812885    0.31642397975315
             0.5442493    0.74430825237435
 p    1 1.00
             0.1687144                   1
 d    1 1.00
                   0.8                   1

13 0
 s    3 1.00
             18.731137    0.03349459952309
             2.8253937    0.23472694665786
             0.6401217    0.81375731841339
 s    1 1.00
             0.1612778                   1

14 0
 s    3 1.00
             18.731137    0.03349459952309
             2.8253937    0.23472694665786
             0.6401217    0.81375731841339
 s    1 1.00
             0.1612778                   1

15 0
 s    6 1.00
             3047.5249  0.0018347001629433
             457.36951    0.01403730124668
             103.94869   0.068842606114048
             29.210155    0.23218442062076
              9.286663    0.46794134155879
              3.163927    0.36231203217765
 s    3 1.00
             7.8682724   -0.11933240861517
             1.8812885   -0.16085421161283
             0.5442493     1.1434564825515
 s    1 1.00
             0.1687144                   1
 p    3 1.00
             7.8682724   0.068999095584993
             1.8812885    0.31642397975315
             0.5442493    0.74430825237435
 p    1 1.00
             0.1687144                   1
 d    1 1.00
                   0.8                   1

16 0
 s    6 1.00
             3047.5249  0.0018347001629433
             457.36951    0.01403730124668
             103.94869   0.068842606114048
             29.210155    0.23218442062076
              9.286663    0.46794134155879
              3.163927    0.36231203217765
 s    3 1.00
             7.8682724   -0.11933240861517
             1.8812885   -0.16085421161283
             0.5442493     1.1434564825515
 s    1 1.00
             0.1687144                   1
 p    3 1.00
             7.8682724   0.068999095584993
             1.8812885    0.31642397975315
             0.5442493    0.74430825237435
 p    1 1.00
             0.1687144                   1
 d    1 1.00
                   0.8                   1

17 0
 s    6 1.00
             3047.5249  0.0018347001629433
             457.36951    0.01403730124668
             103.94869   0.068842606114048
             29.210155    0.23218442062076
              9.286663    0.46794134155879
              3.163927    0.36231203217765
 s    3 1.00
             7.8682724   -0.11933240861517
             1.8812885   -0.16085421161283
             0.5442493     1.1434564825515
 s    1 1.00
             0.1687144                   1
 p    3 1.00
             7.8682724   0.068999095584993
             1.8812885    0.31642397975315
             0.5442493    0.74430825237435
 p    1 1.00
             0.1687144                   1
 d    1 1.00
                   0.8                   1

18 0
 s    6 1.00
             3047.5249  0.0018347001629433
             457.36951    0.01403730124668
             103.94869   0.068842606114048
             29.210155    0.23218442062076
              9.286663    0.46794134155879
              3.163927    0.36231203217765
 s    3 1.00
             7.8682724   -0.11933240861517
             1.8812885   -0.16085421161283
             0.5442493     1.1434564825515
 s    1 1.00
             0.1687144                   1
 p    3 1.00
             7.8682724   0.068999095584993
             1.8812885    0.31642397975315
             0.5442493    0.74430825237435
 p    1 1.00
             0.1687144                   1
 d    1 1.00
                   0.8                   1

19 0
 s    6 1.00
             3047.5249  0.0018347001629433
             457.36951    0.01403730124668
             103.94869   0.068842606114048
             29.210155    0.23218442062076
              9.286663    0.46794134155879
              3.163927    0.36231203217765
 s    3 1.00
             7.8682724   -0.11933240861517
             1.8812885   -0.16085421161283
             0.5442493     1.1434564825515
 s    1 1.00
             0.1687144                   1
 p    3 1.00
             7.8682724   0.068999095584993
             1.8812885    0.31642397975315
             0.5442493    0.74430825237435
 p    1 1.00
             0.1687144                   1
 d    1 1.00
                   0.8                   1

20 0
 s    6 1.00
             3047.5249  0.0018347001629433
             457.36951    0.01403730124668
             103.94869   0.068842606114048
             29.210155    0.23218442062076
              9.286663    0.46794134155879
              3.163927    0.36231203217765
 s    3 1.00
             7.8682724   -0.11933240861517
             1.8812885   -0.16085421161283
             0.5442493     1.1434564825515
 s    1 1.00
             0.1687144                   1
 p    3 1.00
             7.8682724   0.068999095584993
             1.8812885    0.31642397975315
             0.5442493    0.74430825237435
 p    1 1.00
             0.1687144                   1
 d    1 1.00
                   0.8                   1

21 0
 s    6 1.00
             3047.5249  0.0018347001629433
             457.36951    0.01403730124668
             103.94869   0.068842606114048
             29.210155    0.23218442062076
              9.286663    0.46794134155879
              3.163927    0.36231203217765
 s    3 1.00
             7.8682724   -0.11933240861517
             1.8812885   -0.16085421161283
             0.5442493     1.1434564825515
 s    1 1.00
             0.1687144                   1
 p    3 1.00
             7.8682724   0.068999095584993
             1.8812885    0.31642397975315
             0.5442493    0.74430825237435
 p    1 1.00
             0.1687144                   1
 d    1 1.00
                   0.8                   1

22 0
 s    3 1.00
             18.731137    0.03349459952309
             2.8253937    0.23472694665786
             0.6401217    0.81375731841339
 s    1 1.00
             0.1612778                   1

23 0
 s    3 1.00
             18.731137    0.03349459952309
             2.8253937    0.23472694665786
             0.6401217    0.81375731841339
 s    1 1.00
             0.1612778                   1

24 0
 s    3 1.00
             18.731137    0.03349459952309
             2.8253937    0.23472694665786
             0.6401217    0.81375731841339
 s    1 1.00
             0.1612778                   1

25 0
 s    3 1.00
             18.731137    0.03349459952309
             2.8253937    0.23472694665786
             0.6401217    0.81375731841339
 s    1 1.00
             0.1612778                   1

26 0
 s    3 1.00
             18.731137    0.03349459952309
             2.8253937    0.23472694665786
             0.6401217    0.81375731841339
 s    1 1.00
             0.1612778                   1

27 0
 s    3 1.00
             18.731137    0.03349459952309
             2.8253937    0.23472694665786
             0.6401217    0.81375731841339
 s    1 1.00
             0.1612778                   1

28 0
 s    3 1.00
             18.731137    0.03349459952309
             2.8253937    0.23472694665786
             0.6401217    0.81375731841339
 s    1 1.00
             0.1612778                   1

29 0
 s    3 1.00
             18.731137    0.03349459952309
             2.8253937    0.23472694665786
             0.6401217    0.81375731841339
 s    1 1.00
             0.1612778                   1

30 0
 s    3 1.00
             18.731137    0.03349459952309
             2.8253937    0.23472694665786
             0.6401217    0.81375731841339
 s    1 1.00
             0.1612778                   1

31 0
 s    3 1.00
             18.731137    0.03349459952309
             2.8253937    0.23472694665786
             0.6401217    0.81375731841339
 s    1 1.00
             0.1612778                   1

32 0
 s    3 1.00
             18.731137    0.03349459952309
             2.8253937    0.23472694665786
             0.6401217    0.81375731841339
 s    1 1.00
             0.1612778                   1

33 0
 s    6 1.00
             3047.5249  0.0018347001629433
             457.36951    0.01403730124668
             103.94869   0.068842606114048
             29.210155    0.23218442062076
              9.286663    0.46794134155879
              3.163927    0.36231203217765
 s    3 1.00
             7.8682724   -0.11933240861517
             1.8812885   -0.16085421161283
             0.5442493     1.1434564825515
 s    1 1.00
             0.1687144                   1
 p    3 1.00
             7.8682724   0.068999095584993
             1.8812885    0.31642397975315
             0.5442493    0.74430825237435
 p    1 1.00
             0.1687144                   1
 d    1 1.00
                   0.8                   1

34 0
 s    6 1.00
             3047.5249  0.0018347001629433
             457.36951    0.01403730124668
             103.94869   0.068842606114048
             29.210155    0.23218442062076
              9.286663    0.46794134155879
              3.163927    0.36231203217765
 s    3 1.00
             7.8682724   -0.11933240861517
             1.8812885   -0.16085421161283
             0.5442493     1.1434564825515
 s    1 1.00
             0.1687144                   1
 p    3 1.00
             7.8682724   0.068999095584993
             1.8812885    0.31642397975315
             0.5442493    0.74430825237435
 p    1 1.00
             0.1687144                   1
 d    1 1.00
                   0.8                   1

35 0
 s    3 1.00
             18.731137    0.03349459952309
             2.8253937    0.23472694665786
             0.6401217    0.81375731841339
 s    1 1.00
             0.1612778                   1

36 0
 s    6 1.00
             3047.5249  0.0018347001629433
             457.36951    0.01403730124668
             103.94869   0.068842606114048
             29.210155    0.23218442062076
              9.286663    0.46794134155879
              3.163927    0.36231203217765
 s    3 1.00
             7.8682724   -0.11933240861517
             1.8812885   -0.16085421161283
             0.5442493     1.1434564825515
 s    1 1.00
             0.1687144                   1
 p    3 1.00
             7.8682724   0.068999095584993
             1.8812885    0.31642397975315
             0.5442493    0.74430825237435
 p    1 1.00
             0.1687144                   1
 d    1 1.00
                   0.8                   1

37 0
 s    3 1.00
             18.731137    0.03349459952309
             2.8253937    0.23472694665786
             0.6401217    0.81375731841339
 s    1 1.00
             0.1612778                   1

38 0
 s    3 1.00
             18.731137    0.03349459952309
             2.8253937    0.23472694665786
             0.6401217    0.81375731841339
 s    1 1.00
             0.1612778                   1

39 0
 s    6 1.00
             3047.5249  0.0018347001629433
             457.36951    0.01403730124668
             103.94869   0.068842606114048
             29.210155    0.23218442062076
              9.286663    0.46794134155879
              3.163927    0.36231203217765
 s    3 1.00
             7.8682724   -0.11933240861517
             1.8812885   -0.16085421161283
             0.5442493     1.1434564825515
 s    1 1.00
             0.1687144                   1
 p    3 1.00
             7.8682724   0.068999095584993
             1.8812885    0.31642397975315
             0.5442493    0.74430825237435
 p    1 1.00
             0.1687144                   1
 d    1 1.00
                   0.8                   1

40 0
 s    6 1.00
             3047.5249  0.0018347001629433
             457.36951    0.01403730124668
             103.94869   0.068842606114048
             29.210155    0.23218442062076
              9.286663    0.46794134155879
              3.163927    0.36231203217765
 s    3 1.00
             7.8682724   -0.11933240861517
             1.8812885   -0.16085421161283
             0.5442493     1.1434564825515
 s    1 1.00
             0.1687144                   1
 p    3 1.00
             7.8682724   0.068999095584993
             1.8812885    0.31642397975315
             0.5442493    0.74430825237435
 p    1 1.00
             0.1687144                   1
 d    1 1.00
                   0.8                   1

41 0
 s    3 1.00
             18.731137    0.03349459952309
             2.8253937    0.23472694665786
             0.6401217    0.81375731841339
 s    1 1.00
             0.1612778                   1

42 0
 s    6 1.00
             5484.6717   0.001831099805527
             825.23495   0.013950098518422
             188.04696    0.06844509273075
               52.9645    0.23271427528445
              16.89757    0.47019295006289
             5.7996353    0.35852086192309
 s    3 1.00
             15.539616   -0.11077750382508
             3.5999336   -0.14802630511126
             1.0137618     1.1307670390447
 s    1 1.00
             0.2700058                   1
 p    3 1.00
             15.539616   0.070874299543311
             3.5999336    0.33975279781076
             1.0137618    0.72715859531445
 p    1 1.00
             0.2700058                   1
 d    1 1.00
                   0.8                   1

43 0
 s    3 1.00
             18.731137    0.03349459952309
             2.8253937    0.23472694665786
             0.6401217    0.81375731841339
 s    1 1.00
             0.1612778                   1

[5d]
[7f]
[9g]

[MO]
 Sym= A
 Ene=               0
 Spin= Alpha
 Occup=    1.00000
   1    -1.6226364397065e-05
   2    -0.00010882874892196
   3    0.0015346084102967
   4    -3.8559443640578e-05
   5    3.6456268370144e-06
   6    2.3690345953952e-05
   7    -7.2273867995349e-05
   8    0.00023156244477336
   9    -0.0017166834984993
  10    4.7736554448844e-05
  11    5.2662244508041e-05
  12    2.1778979876598e-06
  13    7.0531799138463e-06
  14    -4.767719171339e-06
  15    -5.3619199114437e-05
  16    6.1115975442413e-05
  17    3.8167296442867e-05
  18    0.00020729954377452
  19    -0.0033770396029385
  20    -2.1201686724171e-05
  21    -2.1367179235778e-05
  22    9.2458834191431e-05
  23    -0.0021451993932046
  24    -0.00032350843933149
  25    -0.00064597263538099
  26    -5.3783389581449e-05
  27    2.590839272055e-05
  28    1.792591996127e-05
  29    -3.0258640214521e-05
  30    -2.7146490314834e-05
  31    -7.7861761634716e-05
  32    -0.00047281663361086
  33    -0.00010104124635621
  34    -0.00041659463309028
  35    0.0065430447802826
  36    0.00019319414027242
  37    4.9514511750732e-05
  38    -8.0185057538578e-05
  39    0.0030487608094117
  40    -0.00015974639316867
  41    0.0019361264856393
  42    -1.7987322930787e-05
  43    -3.6392589722703e-05
  44    -4.5500371102328e-05
  45    0.00017099168160391
  46    4.4663522772583e-05
  47    7.019026877827e-05
  48    0.00064079673066084
  49    6.1943269479878e-05
  50    -0.00027692085785465
  51    -0.0047738952501822
  52    -0.00064454077813305
  53    -8.8155324097619e-05
  54    8.5455345697388e-05
  55    0.0050507452641099
  56    0.00053362536699436
  57    -6.7739396437301e-05
  58    0.00022587219264361
  59    -4.3460252063903e-05
  60    -9.0758087446714e-05
  61    -0.00012230108718724
  62    -8.8197621644628e-06
  63    -0.00037411068975734
  64    -0.00039224541286752
  65    -4.1136514222668e-07
  66    1.9257815700625e-06
  67    -1.2881703788621e-07
  68    -1.3619477854045e-06
  69    -8.062112829089e-07
  70    8.6300543416357e-07
  71    -1.2537321470014e-06
  72    1.664523560968e-07
  73    3.1421903108253e-06
  74    3.0050342114421e-06
  75    -1.7285250709183e-06
  76    3.9830683357046e-07
  77    2.2124132510674e-07
  78    1.0765768286891e-07
  79    1.9935824960801e-07
  80    2.1350108670512e-07
  81    3.6619830143736e-07
  82    2.0958861980549e-06
  83    3.6115595668055e-07
  84    2.9813647302101e-06
  85    -8.2084749395046e-07
  86    -7.4307878979435e-08
  87    9.6556944887765e-07
  88    2.849576589698e-07
  89    3.9575734193189e-06
  90    -1.3640702257859e-05
  91    -3.8842725190958e-06
  92    -1.5908596589259e-07
  93    -3.3257443708043e-07
  94    1.014421565227e-06
  95    -5.2585897681943e-07
  96    7.8619115658131e-08
  97    1.8297242943112e-06
  98    2.7074946574665e-06
  99    -1.2561074824832e-06
 100    -3.4445434307404e-06
 101    -8.3788615355861e-07
 102    -4.0246002153341e-06
 103    0.00010061643845149
 104    -2.652006698396e-06
 105    -6.5980775195369e-07
 106    -1.4922186925371e-06
 107    -2.8157497851438e-05
 108    3.380586874849e-05
 109    -3.5900360131787e-05
 110    6.6020897607955e-07
 111    1.7660072203334e-06
 112    -7.589836528514e-07
 113    -2.0732439892948e-07
 114    -1.5297436552688e-06
 115    3.1244326285885e-07
 116    2.9378929342404e-06
 117    -1.3556817624048e-05
 118    6.0948642033316e-08
 119    1.9791372985834e-06
 120    -1.5876749637894e-06
 121    9.3791479844576e-06
 122    -1.941168182265e-05
 123    7.4091812198763e-06
 124    8.4058152244033e-07
 125    -2.9884367272789e-07
 126    -1.3494025984292e-06
 127    -4.9062537997515e-07
 128    1.0611553398579e-07
 129     1.03043294047e-06
 130    4.7249675767663e-06
 131    -1.3853980466532e-05
 132    5.8226613916448e-06
 133    -7.6491848921924e-07
 134    -2.5353168466715e-06
 135    -0.00012526515752322
 136    1.7388073893299e-05
 137    4.2963735008246e-05
 138    -1.7547097644561e-06
 139    1.7157382378377e-07
 140    3.3206277804911e-06
 141    -1.7655339529475e-07
 142    3.0584091549454e-06
 143    4.9454783878462e-07
 144    2.0156323063436e-06
 145    -7.2401421421427e-05
 146    7.158488424111e-07
 147    -2.9406615748178e-07
 148    6.3289607220903e-06
 149    -3.5239944846934e-05
 150    4.4909708727353e-05
 151    -2.6057987453934e-05
 152    -6.1896810533132e-07
 153    4.8885190266418e-08
 154    -2.4129298668388e-06
 155    -6.5003789221627e-07
 156    -3.8058429334814e-07
 157    8.9481121969806e-07
 158    7.698625557863e-06
 159    -4.1162816944082e-05
 160    1.0666972194912e-06
 161    5.9837851638312e-07
 162    -1.2473493621566e-06
 163    -1.02484133915e-05
 164    1.6463702714731e-05
 165    5.3636926629438e-06
 166    9.9072907838151e-07
 167    -1.2702677304607e-07
 168    1.606747159761e-08
 169    9.8701316517281e-07
 170    4.2952150105808e-07
 171    -2.1687377418447e-08
 172    -8.0840037021128e-07
 173    4.8199673393062e-07
 174    -1.4004665577961e-06
 175    -1.6254362974733e-07
 176    2.5711277218865e-06
 177    2.026628689544e-05
 178    5.9685474376853e-07
 179    4.5212519330293e-06
 180    -2.551380356875e-07
 181    1.9292283586794e-06
 182    -1.8586800960671e-07
 183     1.26243661244e-06
 184    1.4602518365556e-06
 185    -8.1934794825128e-07
 186    -6.3435198937898e-06
 187    4.3828240956541e-05
 188    -1.5188465764911e-06
 189    -3.9314869504702e-07
 190    -1.3402892417868e-06
 191    -4.1395545966102e-06
 192    -1.0553679411006e-05
 193    -1.9699714035712e-05
 194    9.507455911923e-07
 195    1.2014825476189e-06
 196    1.5673799414838e-06
 197    -7.2912575968742e-07
 198    6.7092580340663e-07
 199    -2.2025079339296e-06
 200    1.4489129400569e-06
 201    -7.2867853316805e-07
 202    -3.3408693001423e-07
 203    -1.6298621443078e-06
 204    -8.5250578270171e-06
 205    3.3859705090403e-06
 206    3.0837171866115e-07
 207    3.1841111148068e-06
 208    1.613967093422e-07
 209    3.1466049519531e-06
 210    3.296227833597e-06
 211    2.1341291361988e-06
 212    4.2775942514975e-06
 213    8.8799382000934e-07
 214    -5.4127841441071e-06
 215    -4.6513880728526e-06
 216    2.4708833542492e-05
 217    1.5421505034929e-06
 218    4.044541868878e-06
 219    2.742598373583e-07
 220    -4.8634031796848e-06
 221    -6.1281147261632e-06
 222    -3.8683273420221e-05
 223    0.00050245990698642
 224    5.5884143252475e-06
 225    5.0047476992272e-06
 226    -6.4286319287911e-06
 227    0.00013497123257401
 228    7.1852146813638e-05
 229    -0.00027875620365424
 230    9.7792569154928e-06
 231    -9.9943231059022e-06
 232    -9.3126401439412e-06
 233    4.4990472976651e-06
 234    4.3961279366595e-06
 235    6.4329529919198e-06
 236    2.9228170706371e-05
 237    -0.00084759531165001
 238    -1.0521707207275e-05
 239    -1.0129916023956e-05
 240    2.9818862084581e-05
 241    0.00032267467658241
 242    9.2005932444772e-05
 243    -6.0347491282165e-05
 244    -1.6255606583079e-05
 245    9.5339578147868e-06
 246    9.4317042491051e-06
 247    1.0693545133774e-07
 248    -7.6318956060938e-07
 249    -5.7045361544672e-06
 250    -2.0619277682931e-05
 251    -5.4836341824051e-06
 252    -3.0857457619047e-05
 253    0.00084600008762959
 254    -1.2230216730343e-05
 255    -1.3053272544914e-06
 256    -3.4893639613891e-05
 257    0.0005102475336655
 258    0.00011722941747236
 259    0.00026815124882219
 260    7.7911446091008e-06
 261    -2.1584143871805e-06
 262    -8.0287650704578e-06
 263     5.21492305472e-06
 264    9.4096343974856e-06
 265    -2.3054575218427e-05
 266    -1.0385898385036e-05
 267    3.1102241376675e-05
 268    0.00016077583373027
 269    7.6927442738485e-05
 270    1.4730561963863e-05
 271    -0.0038096982199061
 272    -1.1708144438433e-05
 273    7.9680110168911e-05
 274    -0.0002980277327551
 275    -0.0029215800644501
 276    -0.0011092660395656
 277    0.0027405781681174
 278    0.0001592634641966
 279    0.00034696800025027
 280    9.7644635665323e-06