[Molden Format]
made by pyscf v[2.0.1]
[Atoms] (AU)
C   1   6     0.69100024066471     0.64692934207205    -3.48223131169301
H   2   1     2.68052439830868     1.13355088658700    -3.25784032593313
C   3   6    -0.36286361513219     0.85440132524594    -5.97030179418974
H   4   1    -2.35448549047279     0.36322488579172    -6.17995817793143
C   5   6     0.93697958957450     1.61209284601821    -8.05828437677121
H   6   1    -0.06960811584452     2.58702669474359    -9.56733307637730
C   7   6     3.59571274713804     1.19684402678434    -8.39738626626495
H   8   1     4.57899779978681     0.21871567749258    -6.86894337963000
H   9   1     1.55630230933075    -1.92953025305990    12.99630010416247
C   10   6     0.75233899775814    -2.21270439606481    11.10705728102219
H   11   1    -0.43433408177274    -3.90944857546550    11.22216085340412
C   12   6     2.86362581178706    -2.63237380607947     9.17926416456045
H   13   1     4.39038949912609    -1.24955421540245     9.49899813497433
H   14   1     3.74629220191363    -4.48798724300892     9.47414880959024
C   15   6     2.02478325613682    -2.42177285709634     6.44560829588644
C   16   6     3.88048732735477    -3.58795445234514     4.61402886975252
C   17   6    -0.18412382258602    -1.30464291234259     5.76021113872346
C   18   6    -2.10044360464350    -0.26837831858460     7.71610340967100
C   19   6    -3.08956938670431     2.35282328359417     6.88693925039594
C   20   6    -4.37372924086464    -2.09766595989678     7.93610724222001
C   21   6    -0.83850430601230     0.06372213486173    10.33002307638377
H   22   1     0.38411922151109     1.74281358582432    10.27380136542181
H   23   1    -2.30980003007874     0.45460143924521    11.73986301809809
H   24   1     4.58527064644668    -5.38706904487420     5.36778158031719
H   25   1     5.54944938085014    -2.37631462192748     4.35398898413318
H   26   1     3.06633019150423    -3.94118377050688     2.75255466040884
H   27   1    -4.17727778763735     2.26573369139522     5.12914900961283
H   28   1    -1.52662344944051     3.68001877445626     6.59540397144508
H   29   1    -4.32916174397830     3.13643051467482     8.35225460090378
H   30   1    -5.32329548508442    -2.36691813602939     6.11583672749896
H   31   1    -5.77989366602257    -1.33896741843465     9.25748940450990
H   32   1    -3.79310905208926    -3.96389819310853     8.61386170102686
C   33   6    -1.01100794811226    -1.06331657314144     3.11929490449947
C   34   6     0.37686231036534    -0.33275864505552     1.09165013605873
H   35   1    -3.01671213906703    -1.40297922279997     2.77827895090944
C   36   6    -0.64382707979370    -0.11591880174385    -1.42063131251064
H   37   1     2.35569259782137     0.17174499283897     1.33641070251401
H   38   1    -2.63317482980319    -0.60229203511219    -1.66119700387645
C   39   6     4.96665860975130     1.91437223239220   -10.44247655051683
C   40   6     7.67160233174465     1.40206885234173   -10.60935163126053
H   41   1     4.10375913642339     2.89528826049847   -12.03023490303406
O   42   8     9.01623610133373     1.99111078946158   -12.38862500825095
H   43   1     8.47573431044455     0.39495244048141    -8.94223819440966
[GTO]
1 0
 s    6 1.00
             3047.5249  0.0018347001629433
             457.36951    0.01403730124668
             103.94869   0.068842606114048
             29.210155    0.23218442062076
              9.286663    0.46794134155879
              3.163927    0.36231203217765
 s    3 1.00
             7.8682724   -0.11933240861517
             1.8812885   -0.16085421161283
             0.5442493     1.1434564825515
 s    1 1.00
             0.1687144                   1
 p    3 1.00
             7.8682724   0.068999095584993
             1.8812885    0.31642397975315
             0.5442493    0.74430825237435
 p    1 1.00
             0.1687144                   1
 d    1 1.00
                   0.8                   1

2 0
 s    3 1.00
             18.731137    0.03349459952309
             2.8253937    0.23472694665786
             0.6401217    0.81375731841339
 s    1 1.00
             0.1612778                   1

3 0
 s    6 1.00
             3047.5249  0.0018347001629433
             457.36951    0.01403730124668
             103.94869   0.068842606114048
             29.210155    0.23218442062076
              9.286663    0.46794134155879
              3.163927    0.36231203217765
 s    3 1.00
             7.8682724   -0.11933240861517
             1.8812885   -0.16085421161283
             0.5442493     1.1434564825515
 s    1 1.00
             0.1687144                   1
 p    3 1.00
             7.8682724   0.068999095584993
             1.8812885    0.31642397975315
             0.5442493    0.74430825237435
 p    1 1.00
             0.1687144                   1
 d    1 1.00
                   0.8                   1

4 0
 s    3 1.00
             18.731137    0.03349459952309
             2.8253937    0.23472694665786
             0.6401217    0.81375731841339
 s    1 1.00
             0.1612778                   1

5 0
 s    6 1.00
             3047.5249  0.0018347001629433
             457.36951    0.01403730124668
             103.94869   0.068842606114048
             29.210155    0.23218442062076
              9.286663    0.46794134155879
              3.163927    0.36231203217765
 s    3 1.00
             7.8682724   -0.11933240861517
             1.8812885   -0.16085421161283
             0.5442493     1.1434564825515
 s    1 1.00
             0.1687144                   1
 p    3 1.00
             7.8682724   0.068999095584993
             1.8812885    0.31642397975315
             0.5442493    0.74430825237435
 p    1 1.00
             0.1687144                   1
 d    1 1.00
                   0.8                   1

6 0
 s    3 1.00
             18.731137    0.03349459952309
             2.8253937    0.23472694665786
             0.6401217    0.81375731841339
 s    1 1.00
             0.1612778                   1

7 0
 s    6 1.00
             3047.5249  0.0018347001629433
             457.36951    0.01403730124668
             103.94869   0.068842606114048
             29.210155    0.23218442062076
              9.286663    0.46794134155879
              3.163927    0.36231203217765
 s    3 1.00
             7.8682724   -0.11933240861517
             1.8812885   -0.16085421161283
             0.5442493     1.1434564825515
 s    1 1.00
             0.1687144                   1
 p    3 1.00
             7.8682724   0.068999095584993
             1.8812885    0.31642397975315
             0.5442493    0.74430825237435
 p    1 1.00
             0.1687144                   1
 d    1 1.00
                   0.8                   1

8 0
 s    3 1.00
             18.731137    0.03349459952309
             2.8253937    0.23472694665786
             0.6401217    0.81375731841339
 s    1 1.00
             0.1612778                   1

9 0
 s    3 1.00
             18.731137    0.03349459952309
             2.8253937    0.23472694665786
             0.6401217    0.81375731841339
 s    1 1.00
             0.1612778                   1

10 0
 s    6 1.00
             3047.5249  0.0018347001629433
             457.36951    0.01403730124668
             103.94869   0.068842606114048
             29.210155    0.23218442062076
              9.286663    0.46794134155879
              3.163927    0.36231203217765
 s    3 1.00
             7.8682724   -0.11933240861517
             1.8812885   -0.16085421161283
             0.5442493     1.1434564825515
 s    1 1.00
             0.1687144                   1
 p    3 1.00
             7.8682724   0.068999095584993
             1.8812885    0.31642397975315
             0.5442493    0.74430825237435
 p    1 1.00
             0.1687144                   1
 d    1 1.00
                   0.8                   1

11 0
 s    3 1.00
             18.731137    0.03349459952309
             2.8253937    0.23472694665786
             0.6401217    0.81375731841339
 s    1 1.00
             0.1612778                   1

12 0
 s    6 1.00
             3047.5249  0.0018347001629433
             457.36951    0.01403730124668
             103.94869   0.068842606114048
             29.210155    0.23218442062076
              9.286663    0.46794134155879
              3.163927    0.36231203217765
 s    3 1.00
             7.8682724   -0.11933240861517
             1.8812885   -0.16085421161283
             0.5442493     1.1434564825515
 s    1 1.00
             0.1687144                   1
 p    3 1.00
             7.8682724   0.068999095584993
             1.8812885    0.31642397975315
             0.5442493    0.74430825237435
 p    1 1.00
             0.1687144                   1
 d    1 1.00
                   0.8                   1

13 0
 s    3 1.00
             18.731137    0.03349459952309
             2.8253937    0.23472694665786
             0.6401217    0.81375731841339
 s    1 1.00
             0.1612778                   1

14 0
 s    3 1.00
             18.731137    0.03349459952309
             2.8253937    0.23472694665786
             0.6401217    0.81375731841339
 s    1 1.00
             0.1612778                   1

15 0
 s    6 1.00
             3047.5249  0.0018347001629433
             457.36951    0.01403730124668
             103.94869   0.068842606114048
             29.210155    0.23218442062076
              9.286663    0.46794134155879
              3.163927    0.36231203217765
 s    3 1.00
             7.8682724   -0.11933240861517
             1.8812885   -0.16085421161283
             0.5442493     1.1434564825515
 s    1 1.00
             0.1687144                   1
 p    3 1.00
             7.8682724   0.068999095584993
             1.8812885    0.31642397975315
             0.5442493    0.74430825237435
 p    1 1.00
             0.1687144                   1
 d    1 1.00
                   0.8                   1

16 0
 s    6 1.00
             3047.5249  0.0018347001629433
             457.36951    0.01403730124668
             103.94869   0.068842606114048
             29.210155    0.23218442062076
              9.286663    0.46794134155879
              3.163927    0.36231203217765
 s    3 1.00
             7.8682724   -0.11933240861517
             1.8812885   -0.16085421161283
             0.5442493     1.1434564825515
 s    1 1.00
             0.1687144                   1
 p    3 1.00
             7.8682724   0.068999095584993
             1.8812885    0.31642397975315
             0.5442493    0.74430825237435
 p    1 1.00
             0.1687144                   1
 d    1 1.00
                   0.8                   1

17 0
 s    6 1.00
             3047.5249  0.0018347001629433
             457.36951    0.01403730124668
             103.94869   0.068842606114048
             29.210155    0.23218442062076
              9.286663    0.46794134155879
              3.163927    0.36231203217765
 s    3 1.00
             7.8682724   -0.11933240861517
             1.8812885   -0.16085421161283
             0.5442493     1.1434564825515
 s    1 1.00
             0.1687144                   1
 p    3 1.00
             7.8682724   0.068999095584993
             1.8812885    0.31642397975315
             0.5442493    0.74430825237435
 p    1 1.00
             0.1687144                   1
 d    1 1.00
                   0.8                   1

18 0
 s    6 1.00
             3047.5249  0.0018347001629433
             457.36951    0.01403730124668
             103.94869   0.068842606114048
             29.210155    0.23218442062076
              9.286663    0.46794134155879
              3.163927    0.36231203217765
 s    3 1.00
             7.8682724   -0.11933240861517
             1.8812885   -0.16085421161283
             0.5442493     1.1434564825515
 s    1 1.00
             0.1687144                   1
 p    3 1.00
             7.8682724   0.068999095584993
             1.8812885    0.31642397975315
             0.5442493    0.74430825237435
 p    1 1.00
             0.1687144                   1
 d    1 1.00
                   0.8                   1

19 0
 s    6 1.00
             3047.5249  0.0018347001629433
             457.36951    0.01403730124668
             103.94869   0.068842606114048
             29.210155    0.23218442062076
              9.286663    0.46794134155879
              3.163927    0.36231203217765
 s    3 1.00
             7.8682724   -0.11933240861517
             1.8812885   -0.16085421161283
             0.5442493     1.1434564825515
 s    1 1.00
             0.1687144                   1
 p    3 1.00
             7.8682724   0.068999095584993
             1.8812885    0.31642397975315
             0.5442493    0.74430825237435
 p    1 1.00
             0.1687144                   1
 d    1 1.00
                   0.8                   1

20 0
 s    6 1.00
             3047.5249  0.0018347001629433
             457.36951    0.01403730124668
             103.94869   0.068842606114048
             29.210155    0.23218442062076
              9.286663    0.46794134155879
              3.163927    0.36231203217765
 s    3 1.00
             7.8682724   -0.11933240861517
             1.8812885   -0.16085421161283
             0.5442493     1.1434564825515
 s    1 1.00
             0.1687144                   1
 p    3 1.00
             7.8682724   0.068999095584993
             1.8812885    0.31642397975315
             0.5442493    0.74430825237435
 p    1 1.00
             0.1687144                   1
 d    1 1.00
                   0.8                   1

21 0
 s    6 1.00
             3047.5249  0.0018347001629433
             457.36951    0.01403730124668
             103.94869   0.068842606114048
             29.210155    0.23218442062076
              9.286663    0.46794134155879
              3.163927    0.36231203217765
 s    3 1.00
             7.8682724   -0.11933240861517
             1.8812885   -0.16085421161283
             0.5442493     1.1434564825515
 s    1 1.00
             0.1687144                   1
 p    3 1.00
             7.8682724   0.068999095584993
             1.8812885    0.31642397975315
             0.5442493    0.74430825237435
 p    1 1.00
             0.1687144                   1
 d    1 1.00
                   0.8                   1

22 0
 s    3 1.00
             18.731137    0.03349459952309
             2.8253937    0.23472694665786
             0.6401217    0.81375731841339
 s    1 1.00
             0.1612778                   1

23 0
 s    3 1.00
             18.731137    0.03349459952309
             2.8253937    0.23472694665786
             0.6401217    0.81375731841339
 s    1 1.00
             0.1612778                   1

24 0
 s    3 1.00
             18.731137    0.03349459952309
             2.8253937    0.23472694665786
             0.6401217    0.81375731841339
 s    1 1.00
             0.1612778                   1

25 0
 s    3 1.00
             18.731137    0.03349459952309
             2.8253937    0.23472694665786
             0.6401217    0.81375731841339
 s    1 1.00
             0.1612778                   1

26 0
 s    3 1.00
             18.731137    0.03349459952309
             2.8253937    0.23472694665786
             0.6401217    0.81375731841339
 s    1 1.00
             0.1612778                   1

27 0
 s    3 1.00
             18.731137    0.03349459952309
             2.8253937    0.23472694665786
             0.6401217    0.81375731841339
 s    1 1.00
             0.1612778                   1

28 0
 s    3 1.00
             18.731137    0.03349459952309
             2.8253937    0.23472694665786
             0.6401217    0.81375731841339
 s    1 1.00
             0.1612778                   1

29 0
 s    3 1.00
             18.731137    0.03349459952309
             2.8253937    0.23472694665786
             0.6401217    0.81375731841339
 s    1 1.00
             0.1612778                   1

30 0
 s    3 1.00
             18.731137    0.03349459952309
             2.8253937    0.23472694665786
             0.6401217    0.81375731841339
 s    1 1.00
             0.1612778                   1

31 0
 s    3 1.00
             18.731137    0.03349459952309
             2.8253937    0.23472694665786
             0.6401217    0.81375731841339
 s    1 1.00
             0.1612778                   1

32 0
 s    3 1.00
             18.731137    0.03349459952309
             2.8253937    0.23472694665786
             0.6401217    0.81375731841339
 s    1 1.00
             0.1612778                   1

33 0
 s    6 1.00
             3047.5249  0.0018347001629433
             457.36951    0.01403730124668
             103.94869   0.068842606114048
             29.210155    0.23218442062076
              9.286663    0.46794134155879
              3.163927    0.36231203217765
 s    3 1.00
             7.8682724   -0.11933240861517
             1.8812885   -0.16085421161283
             0.5442493     1.1434564825515
 s    1 1.00
             0.1687144                   1
 p    3 1.00
             7.8682724   0.068999095584993
             1.8812885    0.31642397975315
             0.5442493    0.74430825237435
 p    1 1.00
             0.1687144                   1
 d    1 1.00
                   0.8                   1

34 0
 s    6 1.00
             3047.5249  0.0018347001629433
             457.36951    0.01403730124668
             103.94869   0.068842606114048
             29.210155    0.23218442062076
              9.286663    0.46794134155879
              3.163927    0.36231203217765
 s    3 1.00
             7.8682724   -0.11933240861517
             1.8812885   -0.16085421161283
             0.5442493     1.1434564825515
 s    1 1.00
             0.1687144                   1
 p    3 1.00
             7.8682724   0.068999095584993
             1.8812885    0.31642397975315
             0.5442493    0.74430825237435
 p    1 1.00
             0.1687144                   1
 d    1 1.00
                   0.8                   1

35 0
 s    3 1.00
             18.731137    0.03349459952309
             2.8253937    0.23472694665786
             0.6401217    0.81375731841339
 s    1 1.00
             0.1612778                   1

36 0
 s    6 1.00
             3047.5249  0.0018347001629433
             457.36951    0.01403730124668
             103.94869   0.068842606114048
             29.210155    0.23218442062076
              9.286663    0.46794134155879
              3.163927    0.36231203217765
 s    3 1.00
             7.8682724   -0.11933240861517
             1.8812885   -0.16085421161283
             0.5442493     1.1434564825515
 s    1 1.00
             0.1687144                   1
 p    3 1.00
             7.8682724   0.068999095584993
             1.8812885    0.31642397975315
             0.5442493    0.74430825237435
 p    1 1.00
             0.1687144                   1
 d    1 1.00
                   0.8                   1

37 0
 s    3 1.00
             18.731137    0.03349459952309
             2.8253937    0.23472694665786
             0.6401217    0.81375731841339
 s    1 1.00
             0.1612778                   1

38 0
 s    3 1.00
             18.731137    0.03349459952309
             2.8253937    0.23472694665786
             0.6401217    0.81375731841339
 s    1 1.00
             0.1612778                   1

39 0
 s    6 1.00
             3047.5249  0.0018347001629433
             457.36951    0.01403730124668
             103.94869   0.068842606114048
             29.210155    0.23218442062076
              9.286663    0.46794134155879
              3.163927    0.36231203217765
 s    3 1.00
             7.8682724   -0.11933240861517
             1.8812885   -0.16085421161283
             0.5442493     1.1434564825515
 s    1 1.00
             0.1687144                   1
 p    3 1.00
             7.8682724   0.068999095584993
             1.8812885    0.31642397975315
             0.5442493    0.74430825237435
 p    1 1.00
             0.1687144                   1
 d    1 1.00
                   0.8                   1

40 0
 s    6 1.00
             3047.5249  0.0018347001629433
             457.36951    0.01403730124668
             103.94869   0.068842606114048
             29.210155    0.23218442062076
              9.286663    0.46794134155879
              3.163927    0.36231203217765
 s    3 1.00
             7.8682724   -0.11933240861517
             1.8812885   -0.16085421161283
             0.5442493     1.1434564825515
 s    1 1.00
             0.1687144                   1
 p    3 1.00
             7.8682724   0.068999095584993
             1.8812885    0.31642397975315
             0.5442493    0.74430825237435
 p    1 1.00
             0.1687144                   1
 d    1 1.00
                   0.8                   1

41 0
 s    3 1.00
             18.731137    0.03349459952309
             2.8253937    0.23472694665786
             0.6401217    0.81375731841339
 s    1 1.00
             0.1612778                   1

42 0
 s    6 1.00
             5484.6717   0.001831099805527
             825.23495   0.013950098518422
             188.04696    0.06844509273075
               52.9645    0.23271427528445
              16.89757    0.47019295006289
             5.7996353    0.35852086192309
 s    3 1.00
             15.539616   -0.11077750382508
             3.5999336   -0.14802630511126
             1.0137618     1.1307670390447
 s    1 1.00
             0.2700058                   1
 p    3 1.00
             15.539616   0.070874299543311
             3.5999336    0.33975279781076
             1.0137618    0.72715859531445
 p    1 1.00
             0.2700058                   1
 d    1 1.00
                   0.8                   1

43 0
 s    3 1.00
             18.731137    0.03349459952309
             2.8253937    0.23472694665786
             0.6401217    0.81375731841339
 s    1 1.00
             0.1612778                   1

[5d]
[7f]
[9g]

[MO]
 Sym= A
 Ene=               0
 Spin= Alpha
 Occup=    1.00000
   1    1.0803454507606e-05
   2    8.4219134440076e-05
   3    -0.0011193548660037
   4    3.1748121144287e-05
   5    -2.4738939084458e-05
   6    -1.5027297738764e-05
   7    3.9957667809669e-05
   8    -2.9610773818164e-06
   9    0.00091439887898221
  10    -3.2321106667439e-05
  11    -2.8512128589626e-05
  12    -6.5844455455349e-06
  13    -1.4462271437171e-06
  14    -1.5997124908229e-06
  15    2.5418508857243e-05
  16    2.8241625034346e-05
  17    -2.3020875988975e-05
  18    -8.5521043099078e-05
  19    0.0022510343129702
  20    3.7210256480307e-05
  21    1.9090163698978e-05
  22    -8.1611380494898e-05
  23    0.0014351258213499
  24    5.9235594743116e-05
  25    0.00024563614260515
  26    4.4000212662694e-05
  27    -2.7102565369838e-05
  28    7.1747413067445e-06
  29    2.7081276382939e-05
  30    2.7956984249673e-05
  31    3.9889918247595e-05
  32    0.00028283349902521
  33    8.9391872634532e-05
  34    0.00033732053407735
  35    -0.0055770661983126
  36    -0.00021011168213451
  37    -1.231279368092e-05
  38    9.4070826218958e-05
  39    -0.0024913726374718
  40    0.00098540004008189
  41    -0.0011300206557653
  42    2.5034185146545e-05
  43    6.4849761108669e-05
  44    3.8542130919417e-05
  45    -0.00014283267378407
  46    4.6869566299901e-05
  47    -4.1142186565412e-05
  48    -0.00045757523089234
  49    -5.8333849053773e-05
  50    0.00029479665150106
  51    0.0044244573733161
  52    0.00062858377795281
  53    -7.719504646314e-05
  54    -0.00014044911960899
  55    -0.0043571749967271
  56    0.00084607671713713
  57    0.00037202036042244
  58    -0.00018484913054415
  59    1.6907283430293e-05
  60    0.00012280474669523
  61    0.00011209915572635
  62    -5.1727580563178e-05
  63    0.00040047327737712
  64    0.00026854083028709
  65    2.4980326019544e-07
  66    -1.2679127484322e-06
  67    4.4883493433777e-08
  68     6.00448642968e-07
  69    1.3942172075655e-06
  70    -4.3275053374703e-07
  71    6.6641563669301e-07
  72    8.0179613979353e-09
  73    -1.953579725448e-06
  74    -1.7440498083685e-06
  75    6.1964194556286e-07
  76    -2.7769629589582e-07
  77    -1.9939476058416e-07
  78    -6.6463346521042e-08
  79    -1.2956663030816e-07
  80    -2.0610411274201e-07
  81    -2.1570894226765e-07
  82    -1.5576704193644e-06
  83    -2.6096710598624e-07
  84    -2.2138490758791e-06
  85    -7.7655960671638e-06
  86    3.6488503465162e-07
  87    -8.4071781227934e-07
  88    1.9807940864763e-07
  89    -1.3878059899303e-06
  90    7.8804835477819e-06
  91    5.2037268888912e-06
  92    1.7197269112645e-07
  93    1.0115113847957e-07
  94    -5.3225158135738e-07
  95    4.0517434144089e-07
  96    -1.6982502040259e-07
  97    -1.0958313695285e-06
  98    -2.1979573556557e-06
  99    1.0711815510766e-06
 100    2.4122140033787e-06
 101    6.9083024348122e-07
 102    2.9762370091655e-06
 103    -7.1116119248693e-05
 104    2.7127093211776e-06
 105    7.3130994958502e-07
 106    4.9093083917701e-07
 107    1.3228553775141e-05
 108    -1.4020832138173e-05
 109    4.5042189794919e-05
 110    -6.3911901172519e-07
 111    -1.5032080000365e-06
 112    6.407027053966e-07
 113    -6.5339019446077e-08
 114    7.790600986846e-07
 115    -3.7260356360366e-07
 116    -3.3759725914894e-06
 117    2.4195576693528e-05
 118    -3.054856933917e-07
 119    -1.0908331238893e-06
 120    1.578903857406e-06
 121    -1.240972415581e-05
 122    1.5615721533512e-05
 123    -1.7434658241865e-06
 124    -6.7647881984675e-07
 125    -2.4295053019826e-08
 126    1.0070529862192e-06
 127    5.6110850231466e-07
 128    -3.360740058729e-07
 129    -1.1386925604203e-06
 130    -6.559799968019e-06
 131    5.051321548981e-05
 132    -3.8941806851541e-06
 133    1.2861560196082e-06
 134    2.6111990060695e-06
 135    7.7845688259385e-05
 136    -1.9812724659685e-05
 137    -7.8137340970364e-05
 138    2.5129941221958e-06
 139    8.1532189647897e-07
 140    -2.0217386282503e-06
 141    3.4780411926807e-07
 142    -2.1638662712004e-06
 143    -7.8491751051439e-07
 144    -4.6675873518303e-06
 145    6.8542071129321e-05
 146    -3.8437332335264e-07
 147    -1.6433197792732e-07
 148    -4.1575341511856e-06
 149    3.4015664286543e-05
 150    -2.819835620313e-05
 151    1.1414830142124e-05
 152    1.0366622978431e-07
 153    -2.7756913922817e-07
 154    1.438182470524e-06
 155    7.3743265786975e-07
 156    -3.5994727958669e-07
 157    -5.2930343744543e-07
 158    -4.2115924219823e-06
 159    2.3088557355551e-05
 160    -5.4157370276646e-07
 161    -2.661708438014e-07
 162    3.4408960561906e-07
 163    2.1150889921683e-06
 164    -8.9549858404498e-06
 165    -2.9859072307805e-06
 166    -2.8435477730845e-07
 167    -2.1570031364472e-07
 168    4.7795951922635e-08
 169    -6.6234965287183e-07
 170    -3.0215421178319e-09
 171    3.0653529050727e-08
 172    4.1772165339657e-07
 173    8.6295931294223e-08
 174    6.4531336195895e-07
 175    -8.3786923100201e-08
 176    -1.4124406200989e-06
 177    -1.2187213482243e-05
 178    1.4832197554011e-06
 179    -2.2880571695308e-06
 180    1.4451494620323e-07
 181    -1.1915117777562e-06
 182    2.2426161366373e-07
 183    -9.5300655118695e-07
 184    -8.0637542078973e-07
 185    4.4295038178898e-07
 186    2.8634917998023e-06
 187    -2.9483617020241e-05
 188    9.4844527952914e-07
 189    3.1899099943509e-07
 190    1.6506156621198e-06
 191    3.5572913157385e-06
 192    6.3145095970482e-06
 193    1.1923374420231e-05
 194    -6.4406907815778e-07
 195    -8.277193789311e-07
 196    -7.6302825869867e-07
 197    5.8005623325542e-07
 198    -5.0006352084079e-07
 199    1.2124674248893e-06
 200    -1.126459149242e-06
 201    5.6968564566574e-07
 202    1.8393488398036e-06
 203    7.7351156654918e-07
 204     6.13320365271e-06
 205    -2.6927324506851e-06
 206    -2.9081430428667e-07
 207    -2.7110310988837e-06
 208     5.89793742203e-08
 209    -1.2530559890608e-06
 210    -4.4305789823051e-06
 211    -9.0321487297013e-07
 212    -1.2196652637613e-06
 213    -7.9554028256366e-07
 214    2.2998855147598e-06
 215    2.6414524296224e-06
 216    -1.3626021116525e-05
 217    -8.9672490633044e-07
 218    -2.4039983573321e-06
 219    7.2236029910529e-08
 220    3.5163261866885e-06
 221    3.7581085178522e-06
 222    2.2653281396225e-05
 223    -0.00034633063434012
 224    -1.3397900239404e-06
 225    -6.9580554636823e-06
 226    5.9892587521085e-06
 227    -0.00010641641144647
 228    -3.3747626453309e-05
 229    0.00012129115444903
 230    -6.6982460324551e-06
 231    4.2734813321558e-06
 232    5.4662124802663e-06
 233    -2.2779535499418e-06
 234    -1.9455769591187e-06
 235    -3.8974155098553e-06
 236    -1.9772702494048e-05
 237    0.00050523289900512
 238    5.7364927151096e-06
 239    8.9341206510909e-06
 240    -1.6485607508312e-05
 241    -0.00020306081344004
 242    -5.946088511362e-05
 243    5.3223727334697e-05
 244     8.53849848101e-06
 245    -4.2035209668371e-06
 246    -6.9485287775569e-06
 247    1.1623906695068e-06
 248    -4.3565587081171e-07
 249    -6.0826905769768e-08
 250    7.8231367228815e-06
 251    7.4209428641236e-07
 252    -2.2139557810262e-07
 253    -0.00031874856104967
 254    4.7163381612492e-06
 255    5.1920127414082e-06
 256    2.4153158074966e-05
 257    -0.00021081962545031
 258    -6.047073663142e-05
 259    -0.00026421023159444
 260    -1.2768753324914e-06
 261    -5.6261482966588e-06
 262    4.7782779803089e-06
 263    3.4953462897078e-06
 264    -7.5328198189781e-06
 265    1.5821649182306e-05
 266    6.0714388318897e-06
 267    -2.1143015347405e-05
 268    -7.2965798201829e-05
 269    -7.3643104018059e-05
 270    6.6691380326914e-06
 271    0.0034476256484753
 272    2.7127946311272e-05
 273    -0.00012920908327091
 274    0.00027960805147329
 275     0.002780233065855
 276    0.00089849236267942
 277    -0.0030594354989623
 278    -8.9131969070898e-05
 279    -0.00035039877272027