[Molden Format]
made by pyscf v[2.0.1]
[Atoms] (AU)
C   1   6     0.69100024066471     0.64692934207205    -3.48223131169301
H   2   1     2.68052439830868     1.13355088658700    -3.25784032593313
C   3   6    -0.36286361513219     0.85440132524594    -5.97030179418974
H   4   1    -2.35448549047279     0.36322488579172    -6.17995817793143
C   5   6     0.93697958957450     1.61209284601821    -8.05828437677121
H   6   1     2.82520634269342     2.40231158819155    -7.83223822317356
C   7   6    -0.04591716574067     1.43050675384137   -10.57963800872440
H   8   1    -1.93966227025444     0.63380613673234   -10.77641154630544
H   9   1     1.55630230933075    -1.92953025305990    12.99630010416247
C   10   6     0.75233899775814    -2.21270439606481    11.10705728102219
H   11   1    -0.43433408177274    -3.90944857546550    11.22216085340412
C   12   6     2.86362581178706    -2.63237380607947     9.17926416456045
H   13   1     4.39038949912609    -1.24955421540245     9.49899813497433
H   14   1     3.74629220191363    -4.48798724300892     9.47414880959024
C   15   6     2.02478325613682    -2.42177285709634     6.44560829588644
C   16   6     3.88048732735477    -3.58795445234514     4.61402886975252
C   17   6    -0.18412382258602    -1.30464291234259     5.76021113872346
C   18   6    -2.10044360464350    -0.26837831858460     7.71610340967100
C   19   6    -3.08956938670431     2.35282328359417     6.88693925039594
C   20   6    -4.37372924086464    -2.09766595989678     7.93610724222001
C   21   6    -0.83850430601230     0.06372213486173    10.33002307638377
H   22   1     0.38411922151109     1.74281358582432    10.27380136542181
H   23   1    -2.30980003007874     0.45460143924521    11.73986301809809
H   24   1     4.58527064644668    -5.38706904487420     5.36778158031719
H   25   1     5.54944938085014    -2.37631462192748     4.35398898413318
H   26   1     3.06633019150423    -3.94118377050688     2.75255466040884
H   27   1    -4.17727778763735     2.26573369139522     5.12914900961283
H   28   1    -1.52662344944051     3.68001877445626     6.59540397144508
H   29   1    -4.32916174397830     3.13643051467482     8.35225460090378
H   30   1    -5.32329548508442    -2.36691813602939     6.11583672749896
H   31   1    -5.77989366602257    -1.33896741843465     9.25748940450990
H   32   1    -3.79310905208926    -3.96389819310853     8.61386170102686
C   33   6    -1.01100794811226    -1.06331657314144     3.11929490449947
C   34   6     0.37686231036534    -0.33275864505552     1.09165013605873
H   35   1    -3.01671213906703    -1.40297922279997     2.77827895090944
C   36   6    -0.64382707979370    -0.11591880174385    -1.42063131251064
H   37   1     2.35569259782137     0.17174499283897     1.33641070251401
H   38   1    -2.63317482980319    -0.60229203511219    -1.66119700387645
C   39   6     1.17709071185639     2.16235266520763   -12.71162929579923
C   40   6     0.01149368127442     1.89967079998079   -15.19747007607967
H   41   1     3.06674924318564     2.97042403350516   -12.64854490967844
O   42   8     1.00001917973751     2.51860460578581   -17.18758625638360
H   43   1    -1.92257659968242     1.06364005135718   -15.17290072571517
[GTO]
1 0
 s    6 1.00
             3047.5249  0.0018347001629433
             457.36951    0.01403730124668
             103.94869   0.068842606114048
             29.210155    0.23218442062076
              9.286663    0.46794134155879
              3.163927    0.36231203217765
 s    3 1.00
             7.8682724   -0.11933240861517
             1.8812885   -0.16085421161283
             0.5442493     1.1434564825515
 s    1 1.00
             0.1687144                   1
 p    3 1.00
             7.8682724   0.068999095584993
             1.8812885    0.31642397975315
             0.5442493    0.74430825237435
 p    1 1.00
             0.1687144                   1
 d    1 1.00
                   0.8                   1

2 0
 s    3 1.00
             18.731137    0.03349459952309
             2.8253937    0.23472694665786
             0.6401217    0.81375731841339
 s    1 1.00
             0.1612778                   1

3 0
 s    6 1.00
             3047.5249  0.0018347001629433
             457.36951    0.01403730124668
             103.94869   0.068842606114048
             29.210155    0.23218442062076
              9.286663    0.46794134155879
              3.163927    0.36231203217765
 s    3 1.00
             7.8682724   -0.11933240861517
             1.8812885   -0.16085421161283
             0.5442493     1.1434564825515
 s    1 1.00
             0.1687144                   1
 p    3 1.00
             7.8682724   0.068999095584993
             1.8812885    0.31642397975315
             0.5442493    0.74430825237435
 p    1 1.00
             0.1687144                   1
 d    1 1.00
                   0.8                   1

4 0
 s    3 1.00
             18.731137    0.03349459952309
             2.8253937    0.23472694665786
             0.6401217    0.81375731841339
 s    1 1.00
             0.1612778                   1

5 0
 s    6 1.00
             3047.5249  0.0018347001629433
             457.36951    0.01403730124668
             103.94869   0.068842606114048
             29.210155    0.23218442062076
              9.286663    0.46794134155879
              3.163927    0.36231203217765
 s    3 1.00
             7.8682724   -0.11933240861517
             1.8812885   -0.16085421161283
             0.5442493     1.1434564825515
 s    1 1.00
             0.1687144                   1
 p    3 1.00
             7.8682724   0.068999095584993
             1.8812885    0.31642397975315
             0.5442493    0.74430825237435
 p    1 1.00
             0.1687144                   1
 d    1 1.00
                   0.8                   1

6 0
 s    3 1.00
             18.731137    0.03349459952309
             2.8253937    0.23472694665786
             0.6401217    0.81375731841339
 s    1 1.00
             0.1612778                   1

7 0
 s    6 1.00
             3047.5249  0.0018347001629433
             457.36951    0.01403730124668
             103.94869   0.068842606114048
             29.210155    0.23218442062076
              9.286663    0.46794134155879
              3.163927    0.36231203217765
 s    3 1.00
             7.8682724   -0.11933240861517
             1.8812885   -0.16085421161283
             0.5442493     1.1434564825515
 s    1 1.00
             0.1687144                   1
 p    3 1.00
             7.8682724   0.068999095584993
             1.8812885    0.31642397975315
             0.5442493    0.74430825237435
 p    1 1.00
             0.1687144                   1
 d    1 1.00
                   0.8                   1

8 0
 s    3 1.00
             18.731137    0.03349459952309
             2.8253937    0.23472694665786
             0.6401217    0.81375731841339
 s    1 1.00
             0.1612778                   1

9 0
 s    3 1.00
             18.731137    0.03349459952309
             2.8253937    0.23472694665786
             0.6401217    0.81375731841339
 s    1 1.00
             0.1612778                   1

10 0
 s    6 1.00
             3047.5249  0.0018347001629433
             457.36951    0.01403730124668
             103.94869   0.068842606114048
             29.210155    0.23218442062076
              9.286663    0.46794134155879
              3.163927    0.36231203217765
 s    3 1.00
             7.8682724   -0.11933240861517
             1.8812885   -0.16085421161283
             0.5442493     1.1434564825515
 s    1 1.00
             0.1687144                   1
 p    3 1.00
             7.8682724   0.068999095584993
             1.8812885    0.31642397975315
             0.5442493    0.74430825237435
 p    1 1.00
             0.1687144                   1
 d    1 1.00
                   0.8                   1

11 0
 s    3 1.00
             18.731137    0.03349459952309
             2.8253937    0.23472694665786
             0.6401217    0.81375731841339
 s    1 1.00
             0.1612778                   1

12 0
 s    6 1.00
             3047.5249  0.0018347001629433
             457.36951    0.01403730124668
             103.94869   0.068842606114048
             29.210155    0.23218442062076
              9.286663    0.46794134155879
              3.163927    0.36231203217765
 s    3 1.00
             7.8682724   -0.11933240861517
             1.8812885   -0.16085421161283
             0.5442493     1.1434564825515
 s    1 1.00
             0.1687144                   1
 p    3 1.00
             7.8682724   0.068999095584993
             1.8812885    0.31642397975315
             0.5442493    0.74430825237435
 p    1 1.00
             0.1687144                   1
 d    1 1.00
                   0.8                   1

13 0
 s    3 1.00
             18.731137    0.03349459952309
             2.8253937    0.23472694665786
             0.6401217    0.81375731841339
 s    1 1.00
             0.1612778                   1

14 0
 s    3 1.00
             18.731137    0.03349459952309
             2.8253937    0.23472694665786
             0.6401217    0.81375731841339
 s    1 1.00
             0.1612778                   1

15 0
 s    6 1.00
             3047.5249  0.0018347001629433
             457.36951    0.01403730124668
             103.94869   0.068842606114048
             29.210155    0.23218442062076
              9.286663    0.46794134155879
              3.163927    0.36231203217765
 s    3 1.00
             7.8682724   -0.11933240861517
             1.8812885   -0.16085421161283
             0.5442493     1.1434564825515
 s    1 1.00
             0.1687144                   1
 p    3 1.00
             7.8682724   0.068999095584993
             1.8812885    0.31642397975315
             0.5442493    0.74430825237435
 p    1 1.00
             0.1687144                   1
 d    1 1.00
                   0.8                   1

16 0
 s    6 1.00
             3047.5249  0.0018347001629433
             457.36951    0.01403730124668
             103.94869   0.068842606114048
             29.210155    0.23218442062076
              9.286663    0.46794134155879
              3.163927    0.36231203217765
 s    3 1.00
             7.8682724   -0.11933240861517
             1.8812885   -0.16085421161283
             0.5442493     1.1434564825515
 s    1 1.00
             0.1687144                   1
 p    3 1.00
             7.8682724   0.068999095584993
             1.8812885    0.31642397975315
             0.5442493    0.74430825237435
 p    1 1.00
             0.1687144                   1
 d    1 1.00
                   0.8                   1

17 0
 s    6 1.00
             3047.5249  0.0018347001629433
             457.36951    0.01403730124668
             103.94869   0.068842606114048
             29.210155    0.23218442062076
              9.286663    0.46794134155879
              3.163927    0.36231203217765
 s    3 1.00
             7.8682724   -0.11933240861517
             1.8812885   -0.16085421161283
             0.5442493     1.1434564825515
 s    1 1.00
             0.1687144                   1
 p    3 1.00
             7.8682724   0.068999095584993
             1.8812885    0.31642397975315
             0.5442493    0.74430825237435
 p    1 1.00
             0.1687144                   1
 d    1 1.00
                   0.8                   1

18 0
 s    6 1.00
             3047.5249  0.0018347001629433
             457.36951    0.01403730124668
             103.94869   0.068842606114048
             29.210155    0.23218442062076
              9.286663    0.46794134155879
              3.163927    0.36231203217765
 s    3 1.00
             7.8682724   -0.11933240861517
             1.8812885   -0.16085421161283
             0.5442493     1.1434564825515
 s    1 1.00
             0.1687144                   1
 p    3 1.00
             7.8682724   0.068999095584993
             1.8812885    0.31642397975315
             0.5442493    0.74430825237435
 p    1 1.00
             0.1687144                   1
 d    1 1.00
                   0.8                   1

19 0
 s    6 1.00
             3047.5249  0.0018347001629433
             457.36951    0.01403730124668
             103.94869   0.068842606114048
             29.210155    0.23218442062076
              9.286663    0.46794134155879
              3.163927    0.36231203217765
 s    3 1.00
             7.8682724   -0.11933240861517
             1.8812885   -0.16085421161283
             0.5442493     1.1434564825515
 s    1 1.00
             0.1687144                   1
 p    3 1.00
             7.8682724   0.068999095584993
             1.8812885    0.31642397975315
             0.5442493    0.74430825237435
 p    1 1.00
             0.1687144                   1
 d    1 1.00
                   0.8                   1

20 0
 s    6 1.00
             3047.5249  0.0018347001629433
             457.36951    0.01403730124668
             103.94869   0.068842606114048
             29.210155    0.23218442062076
              9.286663    0.46794134155879
              3.163927    0.36231203217765
 s    3 1.00
             7.8682724   -0.11933240861517
             1.8812885   -0.16085421161283
             0.5442493     1.1434564825515
 s    1 1.00
             0.1687144                   1
 p    3 1.00
             7.8682724   0.068999095584993
             1.8812885    0.31642397975315
             0.5442493    0.74430825237435
 p    1 1.00
             0.1687144                   1
 d    1 1.00
                   0.8                   1

21 0
 s    6 1.00
             3047.5249  0.0018347001629433
             457.36951    0.01403730124668
             103.94869   0.068842606114048
             29.210155    0.23218442062076
              9.286663    0.46794134155879
              3.163927    0.36231203217765
 s    3 1.00
             7.8682724   -0.11933240861517
             1.8812885   -0.16085421161283
             0.5442493     1.1434564825515
 s    1 1.00
             0.1687144                   1
 p    3 1.00
             7.8682724   0.068999095584993
             1.8812885    0.31642397975315
             0.5442493    0.74430825237435
 p    1 1.00
             0.1687144                   1
 d    1 1.00
                   0.8                   1

22 0
 s    3 1.00
             18.731137    0.03349459952309
             2.8253937    0.23472694665786
             0.6401217    0.81375731841339
 s    1 1.00
             0.1612778                   1

23 0
 s    3 1.00
             18.731137    0.03349459952309
             2.8253937    0.23472694665786
             0.6401217    0.81375731841339
 s    1 1.00
             0.1612778                   1

24 0
 s    3 1.00
             18.731137    0.03349459952309
             2.8253937    0.23472694665786
             0.6401217    0.81375731841339
 s    1 1.00
             0.1612778                   1

25 0
 s    3 1.00
             18.731137    0.03349459952309
             2.8253937    0.23472694665786
             0.6401217    0.81375731841339
 s    1 1.00
             0.1612778                   1

26 0
 s    3 1.00
             18.731137    0.03349459952309
             2.8253937    0.23472694665786
             0.6401217    0.81375731841339
 s    1 1.00
             0.1612778                   1

27 0
 s    3 1.00
             18.731137    0.03349459952309
             2.8253937    0.23472694665786
             0.6401217    0.81375731841339
 s    1 1.00
             0.1612778                   1

28 0
 s    3 1.00
             18.731137    0.03349459952309
             2.8253937    0.23472694665786
             0.6401217    0.81375731841339
 s    1 1.00
             0.1612778                   1

29 0
 s    3 1.00
             18.731137    0.03349459952309
             2.8253937    0.23472694665786
             0.6401217    0.81375731841339
 s    1 1.00
             0.1612778                   1

30 0
 s    3 1.00
             18.731137    0.03349459952309
             2.8253937    0.23472694665786
             0.6401217    0.81375731841339
 s    1 1.00
             0.1612778                   1

31 0
 s    3 1.00
             18.731137    0.03349459952309
             2.8253937    0.23472694665786
             0.6401217    0.81375731841339
 s    1 1.00
             0.1612778                   1

32 0
 s    3 1.00
             18.731137    0.03349459952309
             2.8253937    0.23472694665786
             0.6401217    0.81375731841339
 s    1 1.00
             0.1612778                   1

33 0
 s    6 1.00
             3047.5249  0.0018347001629433
             457.36951    0.01403730124668
             103.94869   0.068842606114048
             29.210155    0.23218442062076
              9.286663    0.46794134155879
              3.163927    0.36231203217765
 s    3 1.00
             7.8682724   -0.11933240861517
             1.8812885   -0.16085421161283
             0.5442493     1.1434564825515
 s    1 1.00
             0.1687144                   1
 p    3 1.00
             7.8682724   0.068999095584993
             1.8812885    0.31642397975315
             0.5442493    0.74430825237435
 p    1 1.00
             0.1687144                   1
 d    1 1.00
                   0.8                   1

34 0
 s    6 1.00
             3047.5249  0.0018347001629433
             457.36951    0.01403730124668
             103.94869   0.068842606114048
             29.210155    0.23218442062076
              9.286663    0.46794134155879
              3.163927    0.36231203217765
 s    3 1.00
             7.8682724   -0.11933240861517
             1.8812885   -0.16085421161283
             0.5442493     1.1434564825515
 s    1 1.00
             0.1687144                   1
 p    3 1.00
             7.8682724   0.068999095584993
             1.8812885    0.31642397975315
             0.5442493    0.74430825237435
 p    1 1.00
             0.1687144                   1
 d    1 1.00
                   0.8                   1

35 0
 s    3 1.00
             18.731137    0.03349459952309
             2.8253937    0.23472694665786
             0.6401217    0.81375731841339
 s    1 1.00
             0.1612778                   1

36 0
 s    6 1.00
             3047.5249  0.0018347001629433
             457.36951    0.01403730124668
             103.94869   0.068842606114048
             29.210155    0.23218442062076
              9.286663    0.46794134155879
              3.163927    0.36231203217765
 s    3 1.00
             7.8682724   -0.11933240861517
             1.8812885   -0.16085421161283
             0.5442493     1.1434564825515
 s    1 1.00
             0.1687144                   1
 p    3 1.00
             7.8682724   0.068999095584993
             1.8812885    0.31642397975315
             0.5442493    0.74430825237435
 p    1 1.00
             0.1687144                   1
 d    1 1.00
                   0.8                   1

37 0
 s    3 1.00
             18.731137    0.03349459952309
             2.8253937    0.23472694665786
             0.6401217    0.81375731841339
 s    1 1.00
             0.1612778                   1

38 0
 s    3 1.00
             18.731137    0.03349459952309
             2.8253937    0.23472694665786
             0.6401217    0.81375731841339
 s    1 1.00
             0.1612778                   1

39 0
 s    6 1.00
             3047.5249  0.0018347001629433
             457.36951    0.01403730124668
             103.94869   0.068842606114048
             29.210155    0.23218442062076
              9.286663    0.46794134155879
              3.163927    0.36231203217765
 s    3 1.00
             7.8682724   -0.11933240861517
             1.8812885   -0.16085421161283
             0.5442493     1.1434564825515
 s    1 1.00
             0.1687144                   1
 p    3 1.00
             7.8682724   0.068999095584993
             1.8812885    0.31642397975315
             0.5442493    0.74430825237435
 p    1 1.00
             0.1687144                   1
 d    1 1.00
                   0.8                   1

40 0
 s    6 1.00
             3047.5249  0.0018347001629433
             457.36951    0.01403730124668
             103.94869   0.068842606114048
             29.210155    0.23218442062076
              9.286663    0.46794134155879
              3.163927    0.36231203217765
 s    3 1.00
             7.8682724   -0.11933240861517
             1.8812885   -0.16085421161283
             0.5442493     1.1434564825515
 s    1 1.00
             0.1687144                   1
 p    3 1.00
             7.8682724   0.068999095584993
             1.8812885    0.31642397975315
             0.5442493    0.74430825237435
 p    1 1.00
             0.1687144                   1
 d    1 1.00
                   0.8                   1

41 0
 s    3 1.00
             18.731137    0.03349459952309
             2.8253937    0.23472694665786
             0.6401217    0.81375731841339
 s    1 1.00
             0.1612778                   1

42 0
 s    6 1.00
             5484.6717   0.001831099805527
             825.23495   0.013950098518422
             188.04696    0.06844509273075
               52.9645    0.23271427528445
              16.89757    0.47019295006289
             5.7996353    0.35852086192309
 s    3 1.00
             15.539616   -0.11077750382508
             3.5999336   -0.14802630511126
             1.0137618     1.1307670390447
 s    1 1.00
             0.2700058                   1
 p    3 1.00
             15.539616   0.070874299543311
             3.5999336    0.33975279781076
             1.0137618    0.72715859531445
 p    1 1.00
             0.2700058                   1
 d    1 1.00
                   0.8                   1

43 0
 s    3 1.00
             18.731137    0.03349459952309
             2.8253937    0.23472694665786
             0.6401217    0.81375731841339
 s    1 1.00
             0.1612778                   1

[5d]
[7f]
[9g]

[MO]
 Sym= A
 Ene=               0
 Spin= Alpha
 Occup=    1.00000
   1    -1.2025142071502e-05
   2    -5.2797821593404e-05
   3    -2.3609059250532e-05
   4    -2.4558168668769e-05
   5    -2.4049762481676e-05
   6    3.2293006807328e-05
   7    0.00027569053216623
   8    0.00032286773446979
   9    -0.0010874039971966
  10    2.4141893873199e-05
  11    4.0694423296799e-05
  12    1.3989592804839e-06
  13    8.1877007103838e-06
  14    -2.3099420005977e-06
  15    -5.5280403441256e-05
  16    -3.1056828631752e-05
  17    2.3605303232589e-05
  18    0.00010126276533283
  19    -0.0024092367382696
  20    -2.1165020190585e-05
  21    -9.7795937768114e-06
  22    7.7494680271882e-05
  23    -0.00049207943808956
  24    -0.00023702324169428
  25    0.00075329886674613
  26    -6.328273504824e-05
  27    1.4150072440591e-05
  28    2.6142586856439e-05
  29    -4.94353558479e-06
  30    1.310608621315e-05
  31    -1.4102736255605e-06
  32    0.00011908281804378
  33    -9.3272665919839e-05
  34    -0.00035860753562867
  35    0.0060723207622509
  36    3.7777949694737e-06
  37    1.4847051840722e-05
  38    -0.00020286250419722
  39    -0.0021354423094802
  40    -0.00073552710262046
  41    -0.0015801066683116
  42    0.00017691765342371
  43    6.2861304911046e-05
  44    -4.7030199510482e-06
  45    3.9340199242421e-05
  46    3.7183881608517e-05
  47    4.5031452986121e-05
  48    0.00032571527728877
  49    6.4214722335287e-05
  50    -0.00025514156644561
  51    -0.0046370237937863
  52    0.00017760457623329
  53    2.0705296928527e-05
  54    0.00062204668976182
  55    -0.0018186709429002
  56    -0.0004147237922769
  57    -0.0041140102433274
  58    -0.00011850520770727
  59    -0.00019455345948419
  60    -7.4955727697593e-05
  61    5.3623676016439e-05
  62    8.1611944469212e-05
  63    -0.00040676260383802
  64    -0.00020179942282649
  65    -1.6833572777922e-07
  66    2.0844024906108e-06
  67    -1.6097241700258e-07
  68    -1.643048716696e-06
  69    3.660607483931e-07
  70    9.7332307062812e-07
  71    -1.0680056159205e-06
  72    4.4462498018487e-07
  73    2.2792452905266e-06
  74    8.3649219375764e-07
  75    -3.0576661699786e-06
  76    2.7628458335431e-07
  77    6.740536977882e-08
  78    1.7320305121935e-07
  79    1.4733125549366e-07
  80     8.25069641112e-08
  81    1.0554579847343e-07
  82    7.4032698225602e-07
  83    3.2434217692004e-07
  84    2.3027594345613e-06
  85    -1.1942043161321e-05
  86    4.3631168024991e-07
  87    1.3641464162534e-07
  88    8.8401769170953e-07
  89    6.2290734254797e-06
  90    -1.018107659607e-05
  91    3.2208274435521e-07
  92    -1.3717327488079e-07
  93    -5.7030213068846e-07
  94    1.0675514025634e-06
  95    -3.742295640846e-07
  96    -8.3060187155893e-09
  97    1.5753907309087e-06
  98    8.3861549698002e-07
  99    -4.1908970092725e-07
 100    -1.8770358487186e-06
 101    -7.7517923276996e-07
 102    -3.3300719481708e-06
 103    9.841188802564e-05
 104    -1.2095507166203e-06
 105    2.1769089553997e-07
 106    -2.6720784459881e-06
 107    -3.9508697059454e-05
 108    3.9944531471789e-05
 109    -6.4246712450446e-06
 110    8.0435779562786e-07
 111    1.267327975039e-06
 112    -5.5588960018538e-07
 113    -4.2625359483463e-07
 114    -1.8840609674073e-06
 115    3.792238171541e-07
 116    4.1369464965226e-06
 117    -5.0887600393399e-06
 118    -5.7105967076279e-07
 119    2.2101281496091e-06
 120    -1.600096871048e-06
 121    4.415554518931e-06
 122    -1.45013979634e-05
 123    1.7333452904166e-05
 124    6.3142651977402e-07
 125    -5.8265444939675e-07
 126    -8.5839525849117e-07
 127    -2.5632387616534e-07
 128    -1.9554636167905e-07
 129    2.2807935892063e-07
 130    2.5920829603706e-06
 131    5.2530346022781e-05
 132    6.1355738198946e-06
 133    1.3052044537528e-06
 134    -3.8780179246748e-06
 135    -0.00013050900408604
 136    1.3853882716579e-05
 137    -3.8677439377836e-05
 138    1.3289743261477e-06
 139    1.0795818034005e-06
 140    3.0052134628047e-06
 141    -3.6126478204079e-07
 142    2.0050306799944e-06
 143    6.8628631149543e-08
 144    -1.7781438013877e-06
 145    -4.3267945469453e-05
 146    -3.9706800014173e-07
 147    -1.1712051415661e-06
 148    5.5241033548878e-06
 149    -1.3872382236744e-05
 150    3.8923330502808e-05
 151    -1.6922224546666e-05
 152    -1.201209187284e-06
 153    2.6274462480863e-07
 154    -2.2475083141108e-06
 155    -8.8506665091436e-08
 156    -1.0806021626132e-06
 157    7.1545192196049e-07
 158    5.7242196463755e-06
 159    -3.2896975973307e-05
 160    5.7753705140599e-07
 161    8.2197741340198e-07
 162    -1.0121976605557e-06
 163    -1.1749955035972e-05
 164    1.2700265911197e-05
 165    1.9133975123522e-06
 166    1.1375259379798e-06
 167    -2.6883557688796e-07
 168    2.4439652756442e-07
 169    4.6458520584367e-07
 170    8.7400892560534e-07
 171    6.7143397926412e-08
 172    2.924949378619e-07
 173    3.5902104665401e-06
 174    -2.5552807248562e-07
 175    -2.4040202727815e-07
 176    1.6916264854175e-06
 177    1.3007247848653e-05
 178    4.3054549707563e-06
 179    5.3146872670439e-06
 180    -3.1255925543048e-07
 181    1.5384494606068e-06
 182    -4.6804220116499e-08
 183    7.603757255394e-07
 184    1.1691181556712e-06
 185    -8.1694190933879e-07
 186    -6.8081946292546e-06
 187    3.1500882238752e-05
 188    -1.3389929599674e-06
 189    -8.1425692833829e-08
 190    -1.0429546252828e-07
 191    -1.0963776203896e-08
 192    -1.0224391976811e-05
 193    -1.5787710465536e-05
 194     7.24735366859e-07
 195    8.5954720393119e-07
 196    1.6188789914348e-06
 197    -5.3556701713313e-07
 198    3.8980422929725e-07
 199    -2.0774374358518e-06
 200    1.2759616479329e-06
 201    -4.2237426912625e-07
 202    2.0305583185775e-06
 203    -1.378487438161e-06
 204    -8.4197986921736e-06
 205    3.2491819476314e-06
 206    7.2265950669732e-07
 207    3.7736077305348e-07
 208    1.3452458084035e-05
 209    2.6078396496652e-06
 210    -4.3562732804425e-07
 211    1.9909859409838e-06
 212    4.1863960518304e-06
 213    5.8492757476341e-07
 214    -3.9345142503672e-06
 215    -3.0742803972901e-06
 216    1.8677824709562e-05
 217    8.9008225045388e-07
 218    2.939983770751e-07
 219    8.3945645612307e-07
 220    -2.3779911602387e-06
 221    -3.963061028413e-06
 222    -2.6039657588951e-05
 223    0.00027904418259154
 224    6.2251279127031e-06
 225    7.0741331068139e-07
 226    6.7850056127801e-07
 227    5.3179780940709e-05
 228    6.064290521536e-05
 229    -0.00030131210526157
 230    6.3286938446082e-06
 231    -1.0070413985926e-05
 232    -7.3387329067269e-06
 233    3.5654992612721e-06
 234    3.0426394910119e-06
 235    7.6379979041956e-06
 236    4.4589402772381e-05
 237    -0.00078820485172191
 238    -5.7834730437458e-06
 239    -6.8630487094603e-06
 240    2.0165393530047e-05
 241    0.00025072447770676
 242    5.6578437680321e-05
 243    9.0885200129776e-05
 244    -2.0970107145834e-05
 245    4.5717582274661e-06
 246    7.5182633339689e-06
 247    -1.3615473361906e-06
 248    -3.0532111898656e-06
 249    -1.1889683539364e-05
 250    -1.9535871767399e-05
 251    -8.4943063834175e-06
 252    -5.9767101681407e-05
 253    0.0011474223750412
 254    -1.5616315053373e-05
 255    7.3391356644261e-06
 256    -3.4627503949493e-05
 257    0.00050892022201405
 258    9.2057684723874e-05
 259     9.93205720283e-05
 260    2.0777614390319e-05
 261    -6.5587635137782e-06
 262    -8.7950974772669e-06
 263    6.7271346165417e-06
 264    3.4532469524163e-06
 265    -1.0285830270095e-05
 266    -3.9130282803935e-06
 267    2.8187279389037e-05
 268    7.5548337166979e-05
 269    7.2410143671816e-05
 270    -1.3003491003538e-05
 271    -0.0033934869336797
 272    0.00026485254622287
 273    0.00011887786584175
 274    -0.00010104557434973
 275    -0.0014858642507868
 276    -0.0010100935144591
 277    0.0038958868200119
 278    -0.00038267681597655
 279    6.3269523924701e-05
 280    7.7264811148204e-05