[Molden Format]
made by pyscf v[2.0.1]
[Atoms] (AU)
C   1   6    -0.00491185910195    -0.00302299034612    -6.30478139015019
O   2   8    -0.00302499062123    -0.00226824280266    -4.17507277885027
[GTO]
1 0
 s    5 1.00
          1238.4016938  0.0055173650481097
          186.29004992   0.041088828555946
          42.251176346     0.1822538212649
          11.676557932    0.46828459437429
          3.5930506482    0.44575817336002
 s    1 1.00
         0.40245147363                   1
 s    1 1.00
         0.13090182668                   1
 p    3 1.00
          9.4680970621   0.056888332011037
          2.0103545142    0.31294059336471
         0.54771004707    0.76065016509135
 p    1 1.00
         0.15268613795                   1
 d    1 1.00
                   0.8                   1

2 0
 s    5 1.00
          2266.1767785  -0.0053893503921743
          340.87010191   -0.04023472138896
          77.363135167   -0.18008184205526
           21.47964494   -0.46828857657651
          6.6589433124   -0.44692617160187
 s    1 1.00
         0.80975975668                   1
 s    1 1.00
         0.25530772234                   1
 p    3 1.00
          17.721504317   0.062630248763161
           3.863550544    0.33331138482352
          1.0480920883    0.74148638308122
 p    1 1.00
         0.27641544411                   1
 d    1 1.00
                   1.2                   1

[5d]
[7f]
[9g]

[MO]
 Sym= A
 Ene=               0
 Spin= Alpha
 Occup=    1.00000
   1     0.021020090753751
   2     -0.14891070994172
   3     -0.40490559525283
   4    0.00043635051794226
   5    0.00017454024268231
   6      0.49249702850741
   7    0.00010095815902411
   8    4.0383271807777e-05
   9      0.11394017965156
  10     0.037947702765038
  11    5.8230240576574e-05
  12    2.3292100990862e-05
  13    2.1708859087689e-08
  14    2.0614444158895e-08
  15     0.043770085285693
  16     0.018139301303507
  17    -0.093979725861419
  18    -0.00041560110655284
  19    -0.00016624047591912
  20     -0.46912657140079
  21    -0.00018813292775519
  22    -7.52531861236e-05
  23      -0.2123695627211
  24     0.016405495410438
  25    2.5174739241017e-05
  26    1.0069897783471e-05
  27    9.3499018460171e-09
  28    8.9317901304925e-09
