[Molden Format]
made by pyscf v[2.0.1]
[Atoms] (AU)
O   1   8     0.00000000000000     0.00000000000000    11.69764103529358
H   2   1     0.00000000000000     0.00000000000000     9.87423921339262
H   3   1    -0.05031916615174     1.78353065140343    12.07351273176025
O   4   8     0.00000000000000     0.00000000000000     2.31533471513237
C   5   6     0.00000000000000     0.00000000000000     0.00000000000000
C   6   6     2.01118073026938    -1.40227222164369    -1.50774939176400
C   7   6    -2.01249334291722     1.41331050329955    -1.50315905028694
H   8   1     3.32037363730244    -2.26721897153159    -0.13599698591495
C   9   6     3.45899267434009     0.28739631745591    -3.37437943254505
H   10   1     1.07662969841332    -2.94725144642667    -2.56541439481080
H   11   1    -2.67503415753480     0.18421555839588    -3.06194479365997
H   12   1    -1.07974048864772     3.03851734677796    -2.43674295017013
C   13   6    -4.21607110578555     2.32938802552922     0.11994162256091
H   14   1     4.24440173074564     1.93368664142019    -2.34976285512790
H   15   1     2.15020713235517     1.04714335134846    -4.81494497423699
C   16   6     5.60746363007797    -1.12419643481196    -4.70268606082550
H   17   1    -3.46838323670267     3.50951302338067     1.66946842715333
H   18   1    -5.11873485366228     0.68575958301209     1.04047743976495
C   19   6    -6.18314754751344     3.80909592987882    -1.39656589068747
H   20   1     6.93011263717176    -1.87550812453645    -3.26656317360070
C   21   6     7.06356622236532     0.52877932406334    -6.57829775293605
H   22   1     4.82318879258361    -2.78573437948532    -5.70504560381835
H   23   1    -6.91582688743803     2.61304780074712    -2.95074552451969
H   24   1    -5.26532430573853     5.45420349051338    -2.31005832200284
C   25   6    -8.39941882261433     4.73263980500213     0.21800571437956
H   26   1     7.83338371486801     2.19084139882824    -5.57093109900697
H   27   1     5.73544244039420     1.27376866537418    -8.01071492370229
C   28   6     9.21124858443101    -0.89699110072176    -7.88926949186242
H   29   1    -7.66272760055236     5.92277078003992     1.77035591474408
H   30   1    -9.31497248082589     3.08753015622020     1.12614408368786
C   31   6   -10.35481709231879     6.21833079391143    -1.30905206253246
H   32   1    10.58815905329501    -1.61074586756696    -6.49512691622620
H   33   1    10.23506248045667     0.32468009384095    -9.23072870921204
H   34   1     8.47665842847139    -2.53598436989925    -8.94921964622535
H   35   1    -9.48948872868064     7.90013588951020    -2.18823918416067
H   36   1   -11.93332513000955     6.86460487874102    -0.11255798845995
H   37   1   -11.15126291841033     5.04495968327630    -2.83849898862534
[GTO]
1 0
 s    8 1.00
                 11720  0.00070964594651845
                  1759  0.0054672722921914
                 400.8   0.027823118610189
                 113.7    0.10474773971146
                 37.03    0.28292084635691
                 13.27    0.44849523869833
                 5.025    0.27081688521277
                 1.013    0.01545029160744
 s    8 1.00
                 11720  -0.00031444341168873
                  1759  -0.0024821376810179
                 400.8  -0.012316355381583
                 113.7  -0.050538917343672
                 37.03   -0.13938490331632
                 13.27   -0.32507749481778
                 5.025   -0.22984830758785
                 1.013     1.0953793467883
 s    1 1.00
                0.3023                   1
 p    3 1.00
                  17.7   0.062679166281506
                 3.854    0.33353656587936
                 1.046    0.74123964163973
 p    1 1.00
                0.2753                   1
 d    1 1.00
                 1.185                   1

2 0
 s    3 1.00
                 13.01   0.033498726389998
                 1.962    0.23480080117413
                0.4446     0.8136829578829
 s    1 1.00
                 0.122                   1
 p    1 1.00
                 0.727                   1

3 0
 s    3 1.00
                 13.01   0.033498726389998
                 1.962    0.23480080117413
                0.4446     0.8136829578829
 s    1 1.00
                 0.122                   1
 p    1 1.00
                 0.727                   1

4 0
 s    8 1.00
                 11720  0.00070964594651845
                  1759  0.0054672722921914
                 400.8   0.027823118610189
                 113.7    0.10474773971146
                 37.03    0.28292084635691
                 13.27    0.44849523869833
                 5.025    0.27081688521277
                 1.013    0.01545029160744
 s    8 1.00
                 11720  -0.00031444341168873
                  1759  -0.0024821376810179
                 400.8  -0.012316355381583
                 113.7  -0.050538917343672
                 37.03   -0.13938490331632
                 13.27   -0.32507749481778
                 5.025   -0.22984830758785
                 1.013     1.0953793467883
 s    1 1.00
                0.3023                   1
 p    3 1.00
                  17.7   0.062679166281506
                 3.854    0.33353656587936
                 1.046    0.74123964163973
 p    1 1.00
                0.2753                   1
 d    1 1.00
                 1.185                   1

5 0
 s    8 1.00
                  6665  0.00069158396281299
                  1000  0.0053257961529341
                   228   0.027060721042034
                 64.71    0.10165684614077
                 21.06     0.2745748236174
                 7.495    0.44829431892377
                 2.797    0.28490261071525
                0.5215   0.015194859206082
 s    8 1.00
                  6665  -0.00029326965268655
                  1000  -0.0023180354739745
                   228  -0.011499786038565
                 64.71  -0.046826727009787
                 21.06   -0.12846616875047
                 7.495   -0.30126627246289
                 2.797   -0.25563070233011
                0.5215      1.093793361012
 s    1 1.00
                0.1596                   1
 p    3 1.00
                 9.439   0.056979251590039
                 2.002    0.31320721150073
                0.5456    0.76037674173753
 p    1 1.00
                0.1517                   1
 d    1 1.00
                  0.55                   1

6 0
 s    8 1.00
                  6665  0.00069158396281299
                  1000  0.0053257961529341
                   228   0.027060721042034
                 64.71    0.10165684614077
                 21.06     0.2745748236174
                 7.495    0.44829431892377
                 2.797    0.28490261071525
                0.5215   0.015194859206082
 s    8 1.00
                  6665  -0.00029326965268655
                  1000  -0.0023180354739745
                   228  -0.011499786038565
                 64.71  -0.046826727009787
                 21.06   -0.12846616875047
                 7.495   -0.30126627246289
                 2.797   -0.25563070233011
                0.5215      1.093793361012
 s    1 1.00
                0.1596                   1
 p    3 1.00
                 9.439   0.056979251590039
                 2.002    0.31320721150073
                0.5456    0.76037674173753
 p    1 1.00
                0.1517                   1
 d    1 1.00
                  0.55                   1

7 0
 s    8 1.00
                  6665  0.00069158396281299
                  1000  0.0053257961529341
                   228   0.027060721042034
                 64.71    0.10165684614077
                 21.06     0.2745748236174
                 7.495    0.44829431892377
                 2.797    0.28490261071525
                0.5215   0.015194859206082
 s    8 1.00
                  6665  -0.00029326965268655
                  1000  -0.0023180354739745
                   228  -0.011499786038565
                 64.71  -0.046826727009787
                 21.06   -0.12846616875047
                 7.495   -0.30126627246289
                 2.797   -0.25563070233011
                0.5215      1.093793361012
 s    1 1.00
                0.1596                   1
 p    3 1.00
                 9.439   0.056979251590039
                 2.002    0.31320721150073
                0.5456    0.76037674173753
 p    1 1.00
                0.1517                   1
 d    1 1.00
                  0.55                   1

8 0
 s    3 1.00
                 13.01   0.033498726389998
                 1.962    0.23480080117413
                0.4446     0.8136829578829
 s    1 1.00
                 0.122                   1
 p    1 1.00
                 0.727                   1

9 0
 s    8 1.00
                  6665  0.00069158396281299
                  1000  0.0053257961529341
                   228   0.027060721042034
                 64.71    0.10165684614077
                 21.06     0.2745748236174
                 7.495    0.44829431892377
                 2.797    0.28490261071525
                0.5215   0.015194859206082
 s    8 1.00
                  6665  -0.00029326965268655
                  1000  -0.0023180354739745
                   228  -0.011499786038565
                 64.71  -0.046826727009787
                 21.06   -0.12846616875047
                 7.495   -0.30126627246289
                 2.797   -0.25563070233011
                0.5215      1.093793361012
 s    1 1.00
                0.1596                   1
 p    3 1.00
                 9.439   0.056979251590039
                 2.002    0.31320721150073
                0.5456    0.76037674173753
 p    1 1.00
                0.1517                   1
 d    1 1.00
                  0.55                   1

10 0
 s    3 1.00
                 13.01   0.033498726389998
                 1.962    0.23480080117413
                0.4446     0.8136829578829
 s    1 1.00
                 0.122                   1
 p    1 1.00
                 0.727                   1

11 0
 s    3 1.00
                 13.01   0.033498726389998
                 1.962    0.23480080117413
                0.4446     0.8136829578829
 s    1 1.00
                 0.122                   1
 p    1 1.00
                 0.727                   1

12 0
 s    3 1.00
                 13.01   0.033498726389998
                 1.962    0.23480080117413
                0.4446     0.8136829578829
 s    1 1.00
                 0.122                   1
 p    1 1.00
                 0.727                   1

13 0
 s    8 1.00
                  6665  0.00069158396281299
                  1000  0.0053257961529341
                   228   0.027060721042034
                 64.71    0.10165684614077
                 21.06     0.2745748236174
                 7.495    0.44829431892377
                 2.797    0.28490261071525
                0.5215   0.015194859206082
 s    8 1.00
                  6665  -0.00029326965268655
                  1000  -0.0023180354739745
                   228  -0.011499786038565
                 64.71  -0.046826727009787
                 21.06   -0.12846616875047
                 7.495   -0.30126627246289
                 2.797   -0.25563070233011
                0.5215      1.093793361012
 s    1 1.00
                0.1596                   1
 p    3 1.00
                 9.439   0.056979251590039
                 2.002    0.31320721150073
                0.5456    0.76037674173753
 p    1 1.00
                0.1517                   1
 d    1 1.00
                  0.55                   1

14 0
 s    3 1.00
                 13.01   0.033498726389998
                 1.962    0.23480080117413
                0.4446     0.8136829578829
 s    1 1.00
                 0.122                   1
 p    1 1.00
                 0.727                   1

15 0
 s    3 1.00
                 13.01   0.033498726389998
                 1.962    0.23480080117413
                0.4446     0.8136829578829
 s    1 1.00
                 0.122                   1
 p    1 1.00
                 0.727                   1

16 0
 s    8 1.00
                  6665  0.00069158396281299
                  1000  0.0053257961529341
                   228   0.027060721042034
                 64.71    0.10165684614077
                 21.06     0.2745748236174
                 7.495    0.44829431892377
                 2.797    0.28490261071525
                0.5215   0.015194859206082
 s    8 1.00
                  6665  -0.00029326965268655
                  1000  -0.0023180354739745
                   228  -0.011499786038565
                 64.71  -0.046826727009787
                 21.06   -0.12846616875047
                 7.495   -0.30126627246289
                 2.797   -0.25563070233011
                0.5215      1.093793361012
 s    1 1.00
                0.1596                   1
 p    3 1.00
                 9.439   0.056979251590039
                 2.002    0.31320721150073
                0.5456    0.76037674173753
 p    1 1.00
                0.1517                   1
 d    1 1.00
                  0.55                   1

17 0
 s    3 1.00
                 13.01   0.033498726389998
                 1.962    0.23480080117413
                0.4446     0.8136829578829
 s    1 1.00
                 0.122                   1
 p    1 1.00
                 0.727                   1

18 0
 s    3 1.00
                 13.01   0.033498726389998
                 1.962    0.23480080117413
                0.4446     0.8136829578829
 s    1 1.00
                 0.122                   1
 p    1 1.00
                 0.727                   1

19 0
 s    8 1.00
                  6665  0.00069158396281299
                  1000  0.0053257961529341
                   228   0.027060721042034
                 64.71    0.10165684614077
                 21.06     0.2745748236174
                 7.495    0.44829431892377
                 2.797    0.28490261071525
                0.5215   0.015194859206082
 s    8 1.00
                  6665  -0.00029326965268655
                  1000  -0.0023180354739745
                   228  -0.011499786038565
                 64.71  -0.046826727009787
                 21.06   -0.12846616875047
                 7.495   -0.30126627246289
                 2.797   -0.25563070233011
                0.5215      1.093793361012
 s    1 1.00
                0.1596                   1
 p    3 1.00
                 9.439   0.056979251590039
                 2.002    0.31320721150073
                0.5456    0.76037674173753
 p    1 1.00
                0.1517                   1
 d    1 1.00
                  0.55                   1

20 0
 s    3 1.00
                 13.01   0.033498726389998
                 1.962    0.23480080117413
                0.4446     0.8136829578829
 s    1 1.00
                 0.122                   1
 p    1 1.00
                 0.727                   1

21 0
 s    8 1.00
                  6665  0.00069158396281299
                  1000  0.0053257961529341
                   228   0.027060721042034
                 64.71    0.10165684614077
                 21.06     0.2745748236174
                 7.495    0.44829431892377
                 2.797    0.28490261071525
                0.5215   0.015194859206082
 s    8 1.00
                  6665  -0.00029326965268655
                  1000  -0.0023180354739745
                   228  -0.011499786038565
                 64.71  -0.046826727009787
                 21.06   -0.12846616875047
                 7.495   -0.30126627246289
                 2.797   -0.25563070233011
                0.5215      1.093793361012
 s    1 1.00
                0.1596                   1
 p    3 1.00
                 9.439   0.056979251590039
                 2.002    0.31320721150073
                0.5456    0.76037674173753
 p    1 1.00
                0.1517                   1
 d    1 1.00
                  0.55                   1

22 0
 s    3 1.00
                 13.01   0.033498726389998
                 1.962    0.23480080117413
                0.4446     0.8136829578829
 s    1 1.00
                 0.122                   1
 p    1 1.00
                 0.727                   1

23 0
 s    3 1.00
                 13.01   0.033498726389998
                 1.962    0.23480080117413
                0.4446     0.8136829578829
 s    1 1.00
                 0.122                   1
 p    1 1.00
                 0.727                   1

24 0
 s    3 1.00
                 13.01   0.033498726389998
                 1.962    0.23480080117413
                0.4446     0.8136829578829
 s    1 1.00
                 0.122                   1
 p    1 1.00
                 0.727                   1

25 0
 s    8 1.00
                  6665  0.00069158396281299
                  1000  0.0053257961529341
                   228   0.027060721042034
                 64.71    0.10165684614077
                 21.06     0.2745748236174
                 7.495    0.44829431892377
                 2.797    0.28490261071525
                0.5215   0.015194859206082
 s    8 1.00
                  6665  -0.00029326965268655
                  1000  -0.0023180354739745
                   228  -0.011499786038565
                 64.71  -0.046826727009787
                 21.06   -0.12846616875047
                 7.495   -0.30126627246289
                 2.797   -0.25563070233011
                0.5215      1.093793361012
 s    1 1.00
                0.1596                   1
 p    3 1.00
                 9.439   0.056979251590039
                 2.002    0.31320721150073
                0.5456    0.76037674173753
 p    1 1.00
                0.1517                   1
 d    1 1.00
                  0.55                   1

26 0
 s    3 1.00
                 13.01   0.033498726389998
                 1.962    0.23480080117413
                0.4446     0.8136829578829
 s    1 1.00
                 0.122                   1
 p    1 1.00
                 0.727                   1

27 0
 s    3 1.00
                 13.01   0.033498726389998
                 1.962    0.23480080117413
                0.4446     0.8136829578829
 s    1 1.00
                 0.122                   1
 p    1 1.00
                 0.727                   1

28 0
 s    8 1.00
                  6665  0.00069158396281299
                  1000  0.0053257961529341
                   228   0.027060721042034
                 64.71    0.10165684614077
                 21.06     0.2745748236174
                 7.495    0.44829431892377
                 2.797    0.28490261071525
                0.5215   0.015194859206082
 s    8 1.00
                  6665  -0.00029326965268655
                  1000  -0.0023180354739745
                   228  -0.011499786038565
                 64.71  -0.046826727009787
                 21.06   -0.12846616875047
                 7.495   -0.30126627246289
                 2.797   -0.25563070233011
                0.5215      1.093793361012
 s    1 1.00
                0.1596                   1
 p    3 1.00
                 9.439   0.056979251590039
                 2.002    0.31320721150073
                0.5456    0.76037674173753
 p    1 1.00
                0.1517                   1
 d    1 1.00
                  0.55                   1

29 0
 s    3 1.00
                 13.01   0.033498726389998
                 1.962    0.23480080117413
                0.4446     0.8136829578829
 s    1 1.00
                 0.122                   1
 p    1 1.00
                 0.727                   1

30 0
 s    3 1.00
                 13.01   0.033498726389998
                 1.962    0.23480080117413
                0.4446     0.8136829578829
 s    1 1.00
                 0.122                   1
 p    1 1.00
                 0.727                   1

31 0
 s    8 1.00
                  6665  0.00069158396281299
                  1000  0.0053257961529341
                   228   0.027060721042034
                 64.71    0.10165684614077
                 21.06     0.2745748236174
                 7.495    0.44829431892377
                 2.797    0.28490261071525
                0.5215   0.015194859206082
 s    8 1.00
                  6665  -0.00029326965268655
                  1000  -0.0023180354739745
                   228  -0.011499786038565
                 64.71  -0.046826727009787
                 21.06   -0.12846616875047
                 7.495   -0.30126627246289
                 2.797   -0.25563070233011
                0.5215      1.093793361012
 s    1 1.00
                0.1596                   1
 p    3 1.00
                 9.439   0.056979251590039
                 2.002    0.31320721150073
                0.5456    0.76037674173753
 p    1 1.00
                0.1517                   1
 d    1 1.00
                  0.55                   1

32 0
 s    3 1.00
                 13.01   0.033498726389998
                 1.962    0.23480080117413
                0.4446     0.8136829578829
 s    1 1.00
                 0.122                   1
 p    1 1.00
                 0.727                   1

33 0
 s    3 1.00
                 13.01   0.033498726389998
                 1.962    0.23480080117413
                0.4446     0.8136829578829
 s    1 1.00
                 0.122                   1
 p    1 1.00
                 0.727                   1

34 0
 s    3 1.00
                 13.01   0.033498726389998
                 1.962    0.23480080117413
                0.4446     0.8136829578829
 s    1 1.00
                 0.122                   1
 p    1 1.00
                 0.727                   1

35 0
 s    3 1.00
                 13.01   0.033498726389998
                 1.962    0.23480080117413
                0.4446     0.8136829578829
 s    1 1.00
                 0.122                   1
 p    1 1.00
                 0.727                   1

36 0
 s    3 1.00
                 13.01   0.033498726389998
                 1.962    0.23480080117413
                0.4446     0.8136829578829
 s    1 1.00
                 0.122                   1
 p    1 1.00
                 0.727                   1

37 0
 s    3 1.00
                 13.01   0.033498726389998
                 1.962    0.23480080117413
                0.4446     0.8136829578829
 s    1 1.00
                 0.122                   1
 p    1 1.00
                 0.727                   1

[5d]
[7f]
[9g]

[MO]
 Sym= A
 Ene=               0
 Spin= Alpha
 Occup=    1.00000
   1    -1.8452220933332e-05
   2    -8.1106436667588e-06
   3    3.2738081208397e-05
   4    -3.2395410893231e-08
   5    1.2337829919143e-06
   6    -3.5552049402917e-07
   7    2.2639802828754e-07
   8    -8.1624873576969e-06
   9    -2.5481019187961e-05
  10    4.8573762392306e-06
  11    9.6789128482459e-09
  12    -3.8840255262966e-07
  13    4.2100826154245e-07
  14    2.3411889691163e-08
  15    -3.62955232215e-06
  16    -5.0093039538469e-05
  17    -1.8793564867765e-08
  18    5.1096276788725e-07
  19    -1.5694367141002e-05
  20    -1.7063860375566e-06
  21    2.1402553792812e-05
  22    8.1980440835257e-08
  23    -2.8607290047743e-06
  24    6.6508479325937e-07
  25       1.0013572146209
  26    0.0019416254130308
  27    -0.006748713582492
  28    -4.4650271807649e-06
  29    7.1467425760419e-06
  30    -0.0016625172756829
  31    -4.0057438775128e-07
  32    -1.0064451971955e-06
  33     0.001802406581517
  34    0.00013187138857412
  35    -3.0565803352537e-06
  36    1.299995888328e-06
  37    6.7820278460226e-05
  38    -0.00017667452213124
  39    0.00027060731494804
  40    0.00036527037637101
  41    0.0013852251499554
  42    1.4780794127914e-05
  43    -9.9368602771623e-06
  44    -1.7466986969364e-05
  45    8.2477883653372e-05
  46    -6.3066091206315e-05
  47    0.0035223465999738
  48    -0.00054302584048189
  49    -8.6423159191661e-06
  50    2.4937720096926e-06
  51    2.8376793347146e-05
  52    -0.00010651853756901
  53    -8.5112240088548e-05
  54    -0.00016647318035319
  55    0.0013645832092629
  56    7.8085165391415e-05
  57    -7.4990765151775e-06
  58    -3.6495160293316e-05
  59    -0.00042302788291269
  60    0.00047534281634381
  61    -0.00091654487917773
  62    -0.00011814209952809
  63    0.00015034541456738
  64    -0.00014285312793994
  65    5.5361099214565e-05
  66    -0.00013094402380363
  67    -4.0710764553627e-05
  68    -9.9103042053086e-05
  69    0.00050949971555577
  70    -6.0650104100417e-05
  71    3.9641678064387e-05
  72    -6.2796231444716e-05
  73    0.00099734906665184
  74    -0.00076883843278943
  75    -0.00063184463811409
  76    -0.00014170002445752
  77    -0.00012056051887963
  78    8.9653403565079e-05
  79    5.9299345039041e-05
  80    -0.00015264112313967
  81    -6.5847575820095e-05
  82    0.00020562291307532
  83    6.5772101966252e-05
  84    -4.8295394572024e-05
  85    4.9344072129018e-05
  86    2.4972540628908e-05
  87    4.8920936314463e-05
  88    -0.00060041072992016
  89    -1.5982909106988e-05
  90    -1.705206065444e-05
  91    1.233974862825e-05
  92    0.00025535259676856
  93    0.00061958859763733
  94    -2.0266386086571e-05
  95    1.7886629287967e-05
  96    1.1072213763703e-05
  97    7.0205390774197e-06
  98    -2.0911615340325e-05
  99    -4.5086872540259e-05
 100    -3.6331694401294e-05
 101    -0.00015670541386522
 102    9.8880320066468e-06
 103    -9.6246357525859e-06
 104    7.386878259008e-05
 105    -1.7579017586394e-05
 106    -0.00019962529496986
 107    -6.4622692092684e-05
 108    1.1861634884581e-05
 109    7.428856112036e-05
 110    7.7220411425646e-05
 111    -5.7141138085081e-05
 112    -4.583177490723e-05
 113    1.8098874419378e-05
 114    6.9268308508488e-05
 115    -5.0213683282069e-05
 116    -0.00010207315640062
 117    0.00083950681837278
 118    -2.6566786908818e-05
 119    -9.7332734039291e-06
 120    3.2684122526482e-05
 121    0.00030009640947824
 122    2.8362806345451e-05
 123    -0.00013113195967969
 124    -6.4905073023227e-06
 125    1.2751535454769e-05
 126    1.6166246788481e-05
 127    -3.2167736248026e-05
 128    4.9732027886609e-05
 129    -1.87859437406e-05
 130    -0.00031886726764824
 131    7.3729693359376e-06
 132    5.8303701602329e-06
 133    2.9085658659837e-05
 134    2.5932178377735e-05
 135    -0.00011887890225004
 136    -1.3402978722888e-05
 137    -2.3821257462196e-05
 138    -2.6436523432085e-05
 139    -2.1009821465306e-05
 140    -3.8190216789624e-05
 141    0.00028342511816522
 142    8.0171307516284e-06
 143    -2.3028112951972e-06
 144    -6.2903955635189e-06
 145    -0.00022914785835114
 146    5.0306412080337e-05
 147    6.4780606763489e-05
 148    -2.3324819544706e-06
 149    3.0352034210994e-06
 150    -3.3018496182881e-06
 151    1.1785424992291e-05
 152    -4.9952644855373e-06
 153    -9.7171441222572e-05
 154    -0.00011674855636152
 155    -2.5659420772644e-05
 156    3.0375078233295e-05
 157    2.0809690299723e-05
 158    -2.5980179304427e-05
 159    -9.0189825895617e-05
 160    -5.9579242566353e-05
 161    -7.0984510493096e-06
 162    5.9588472835804e-06
 163    -3.133456652597e-06
 164    -6.7460319570182e-06
 165    -0.00023307750505038
 166    -1.7741495197999e-05
 167    1.4314467156556e-05
 168    6.9358108258376e-06
 169    0.00023873379473895
 170    -0.00021466637646851
 171    -0.00012984714770968
 172    -2.9761168437496e-06
 173    1.0561646124371e-05
 174    -1.3552989027627e-05
 175    2.9511046004132e-06
 176    -1.8509567907797e-05
 177    -1.5852126292024e-05
 178    8.2881373296175e-05
 179    -6.6316592803076e-07
 180    2.0486678267894e-06
 181    -5.0174052616487e-06
 182    1.4930301258666e-05
 183    2.6454589119372e-05
 184    -6.3293992682784e-05
 185    -4.8609488912882e-06
 186    3.5120140351754e-06
 187    5.5390149260176e-06
 188    0.00012565864878282
 189    -0.00010229694892515
 190    -8.333604473115e-05
 191    1.2791597314834e-06
 192    1.8680979951375e-06
 193    -7.8182134076634e-06
 194    -2.9069546153828e-06
 195    -4.9728581232677e-06
 196    -1.3971013491385e-05
 197    -1.8502841222905e-05
 198    5.6329077610446e-06
 199    1.972203471869e-06
 200    -3.6423310632393e-06
 201    -1.3302413032129e-05
 202    4.7495614611796e-06
 203    -1.301191857406e-05
 204    1.008490247393e-05
 205    1.185012129371e-05
 206    7.5130336649645e-06
 207    6.7062009871349e-05
 208    -1.6277889606604e-05
 209    3.9842958573379e-06
 210    1.5556659238866e-05
 211    -1.2205894043962e-05
 212    -4.803772856454e-05
 213    0.00024092810711452
 214    1.4912637787351e-05
 215    2.1032309968838e-06
 216    -1.1322934793575e-05
 217    0.00020123264113876
 218    -5.2155001118505e-05
 219    -7.8330585877718e-05
 220    -1.5466373856405e-06
 221    -1.654521828511e-05
 222    6.0817757376975e-06
 223    9.493718829532e-06
 224    -1.7670712839856e-06
 225    2.4699538822908e-05
 226    5.3146185170721e-05
 227    -1.2199439660789e-05
 228    -1.8385544603346e-06
 229    -9.9065900761017e-07
 230    9.6929407967412e-06
 231    5.4638101041167e-05
 232    -3.9332476425508e-06
 233    6.2433802332356e-06
 234    1.1925286745439e-05
 235    5.6385691120862e-06
 236    2.1736817985216e-06
 237    -7.7286702710003e-05
 238    5.7397019600062e-06
 239    5.1662363920949e-06
 240    -3.440656529625e-06
 241    3.6660526750402e-05
 242    -6.0794748355369e-05
 243    1.7774049979078e-05
 244     1.93254443579e-06
 245    1.7179785147552e-06
 246    -2.2089384452414e-06
 247    2.5118823511385e-07
 248    9.0036768502748e-07
 249    -2.3782241401684e-05
 250    1.4930251947338e-05
 251    -4.032581274661e-06
 252    -2.8529883935323e-07
 253    2.4156442196152e-07
 254    -3.3469129294919e-05
 255    5.0952432094883e-05
 256    -7.75451801908e-07
 257    3.0579128278876e-06
 258    -2.2195136413353e-07
 259    -2.6282064787269e-06
 260    -1.9946197461015e-05
 261    8.1927903007156e-05
 262    -7.8204953590665e-06