[Molden Format]
made by pyscf v[2.0.1]
[Atoms] (AU)
O   1   8     0.00000000000000     0.00000000000000     8.29613401107647
H   2   1     0.00000000000000     0.00000000000000     6.47273218917551
H   3   1    -0.05031916615174     1.78353065140343     8.67200570754314
O   4   8     0.00000000000000     0.00000000000000     2.31533471513237
C   5   6     0.00000000000000     0.00000000000000     0.00000000000000
C   6   6     2.01118073026938    -1.40227222164369    -1.50774939176400
C   7   6    -2.01249334291722     1.41331050329955    -1.50315905028694
H   8   1     3.32037363730244    -2.26721897153159    -0.13599698591495
C   9   6     3.45899267434009     0.28739631745591    -3.37437943254505
H   10   1     1.07662969841332    -2.94725144642667    -2.56541439481080
H   11   1    -2.67503415753480     0.18421555839588    -3.06194479365997
H   12   1    -1.07974048864772     3.03851734677796    -2.43674295017013
C   13   6    -4.21607110578555     2.32938802552922     0.11994162256091
H   14   1     4.24440173074564     1.93368664142019    -2.34976285512790
H   15   1     2.15020713235517     1.04714335134846    -4.81494497423699
C   16   6     5.60746363007797    -1.12419643481196    -4.70268606082550
H   17   1    -3.46838323670267     3.50951302338067     1.66946842715333
H   18   1    -5.11873485366228     0.68575958301209     1.04047743976495
C   19   6    -6.18314754751344     3.80909592987882    -1.39656589068747
H   20   1     6.93011263717176    -1.87550812453645    -3.26656317360070
C   21   6     7.06356622236532     0.52877932406334    -6.57829775293605
H   22   1     4.82318879258361    -2.78573437948532    -5.70504560381835
H   23   1    -6.91582688743803     2.61304780074712    -2.95074552451969
H   24   1    -5.26532430573853     5.45420349051338    -2.31005832200284
C   25   6    -8.39941882261433     4.73263980500213     0.21800571437956
H   26   1     7.83338371486801     2.19084139882824    -5.57093109900697
H   27   1     5.73544244039420     1.27376866537418    -8.01071492370229
C   28   6     9.21124858443101    -0.89699110072176    -7.88926949186242
H   29   1    -7.66272760055236     5.92277078003992     1.77035591474408
H   30   1    -9.31497248082589     3.08753015622020     1.12614408368786
C   31   6   -10.35481709231879     6.21833079391143    -1.30905206253246
H   32   1    10.58815905329501    -1.61074586756696    -6.49512691622620
H   33   1    10.23506248045667     0.32468009384095    -9.23072870921204
H   34   1     8.47665842847139    -2.53598436989925    -8.94921964622535
H   35   1    -9.48948872868064     7.90013588951020    -2.18823918416067
H   36   1   -11.93332513000955     6.86460487874102    -0.11255798845995
H   37   1   -11.15126291841033     5.04495968327630    -2.83849898862534
[GTO]
1 0
 s    8 1.00
                 11720  0.00070964594651845
                  1759  0.0054672722921914
                 400.8   0.027823118610189
                 113.7    0.10474773971146
                 37.03    0.28292084635691
                 13.27    0.44849523869833
                 5.025    0.27081688521277
                 1.013    0.01545029160744
 s    8 1.00
                 11720  -0.00031444341168873
                  1759  -0.0024821376810179
                 400.8  -0.012316355381583
                 113.7  -0.050538917343672
                 37.03   -0.13938490331632
                 13.27   -0.32507749481778
                 5.025   -0.22984830758785
                 1.013     1.0953793467883
 s    1 1.00
                0.3023                   1
 p    3 1.00
                  17.7   0.062679166281506
                 3.854    0.33353656587936
                 1.046    0.74123964163973
 p    1 1.00
                0.2753                   1
 d    1 1.00
                 1.185                   1

2 0
 s    3 1.00
                 13.01   0.033498726389998
                 1.962    0.23480080117413
                0.4446     0.8136829578829
 s    1 1.00
                 0.122                   1
 p    1 1.00
                 0.727                   1

3 0
 s    3 1.00
                 13.01   0.033498726389998
                 1.962    0.23480080117413
                0.4446     0.8136829578829
 s    1 1.00
                 0.122                   1
 p    1 1.00
                 0.727                   1

4 0
 s    8 1.00
                 11720  0.00070964594651845
                  1759  0.0054672722921914
                 400.8   0.027823118610189
                 113.7    0.10474773971146
                 37.03    0.28292084635691
                 13.27    0.44849523869833
                 5.025    0.27081688521277
                 1.013    0.01545029160744
 s    8 1.00
                 11720  -0.00031444341168873
                  1759  -0.0024821376810179
                 400.8  -0.012316355381583
                 113.7  -0.050538917343672
                 37.03   -0.13938490331632
                 13.27   -0.32507749481778
                 5.025   -0.22984830758785
                 1.013     1.0953793467883
 s    1 1.00
                0.3023                   1
 p    3 1.00
                  17.7   0.062679166281506
                 3.854    0.33353656587936
                 1.046    0.74123964163973
 p    1 1.00
                0.2753                   1
 d    1 1.00
                 1.185                   1

5 0
 s    8 1.00
                  6665  0.00069158396281299
                  1000  0.0053257961529341
                   228   0.027060721042034
                 64.71    0.10165684614077
                 21.06     0.2745748236174
                 7.495    0.44829431892377
                 2.797    0.28490261071525
                0.5215   0.015194859206082
 s    8 1.00
                  6665  -0.00029326965268655
                  1000  -0.0023180354739745
                   228  -0.011499786038565
                 64.71  -0.046826727009787
                 21.06   -0.12846616875047
                 7.495   -0.30126627246289
                 2.797   -0.25563070233011
                0.5215      1.093793361012
 s    1 1.00
                0.1596                   1
 p    3 1.00
                 9.439   0.056979251590039
                 2.002    0.31320721150073
                0.5456    0.76037674173753
 p    1 1.00
                0.1517                   1
 d    1 1.00
                  0.55                   1

6 0
 s    8 1.00
                  6665  0.00069158396281299
                  1000  0.0053257961529341
                   228   0.027060721042034
                 64.71    0.10165684614077
                 21.06     0.2745748236174
                 7.495    0.44829431892377
                 2.797    0.28490261071525
                0.5215   0.015194859206082
 s    8 1.00
                  6665  -0.00029326965268655
                  1000  -0.0023180354739745
                   228  -0.011499786038565
                 64.71  -0.046826727009787
                 21.06   -0.12846616875047
                 7.495   -0.30126627246289
                 2.797   -0.25563070233011
                0.5215      1.093793361012
 s    1 1.00
                0.1596                   1
 p    3 1.00
                 9.439   0.056979251590039
                 2.002    0.31320721150073
                0.5456    0.76037674173753
 p    1 1.00
                0.1517                   1
 d    1 1.00
                  0.55                   1

7 0
 s    8 1.00
                  6665  0.00069158396281299
                  1000  0.0053257961529341
                   228   0.027060721042034
                 64.71    0.10165684614077
                 21.06     0.2745748236174
                 7.495    0.44829431892377
                 2.797    0.28490261071525
                0.5215   0.015194859206082
 s    8 1.00
                  6665  -0.00029326965268655
                  1000  -0.0023180354739745
                   228  -0.011499786038565
                 64.71  -0.046826727009787
                 21.06   -0.12846616875047
                 7.495   -0.30126627246289
                 2.797   -0.25563070233011
                0.5215      1.093793361012
 s    1 1.00
                0.1596                   1
 p    3 1.00
                 9.439   0.056979251590039
                 2.002    0.31320721150073
                0.5456    0.76037674173753
 p    1 1.00
                0.1517                   1
 d    1 1.00
                  0.55                   1

8 0
 s    3 1.00
                 13.01   0.033498726389998
                 1.962    0.23480080117413
                0.4446     0.8136829578829
 s    1 1.00
                 0.122                   1
 p    1 1.00
                 0.727                   1

9 0
 s    8 1.00
                  6665  0.00069158396281299
                  1000  0.0053257961529341
                   228   0.027060721042034
                 64.71    0.10165684614077
                 21.06     0.2745748236174
                 7.495    0.44829431892377
                 2.797    0.28490261071525
                0.5215   0.015194859206082
 s    8 1.00
                  6665  -0.00029326965268655
                  1000  -0.0023180354739745
                   228  -0.011499786038565
                 64.71  -0.046826727009787
                 21.06   -0.12846616875047
                 7.495   -0.30126627246289
                 2.797   -0.25563070233011
                0.5215      1.093793361012
 s    1 1.00
                0.1596                   1
 p    3 1.00
                 9.439   0.056979251590039
                 2.002    0.31320721150073
                0.5456    0.76037674173753
 p    1 1.00
                0.1517                   1
 d    1 1.00
                  0.55                   1

10 0
 s    3 1.00
                 13.01   0.033498726389998
                 1.962    0.23480080117413
                0.4446     0.8136829578829
 s    1 1.00
                 0.122                   1
 p    1 1.00
                 0.727                   1

11 0
 s    3 1.00
                 13.01   0.033498726389998
                 1.962    0.23480080117413
                0.4446     0.8136829578829
 s    1 1.00
                 0.122                   1
 p    1 1.00
                 0.727                   1

12 0
 s    3 1.00
                 13.01   0.033498726389998
                 1.962    0.23480080117413
                0.4446     0.8136829578829
 s    1 1.00
                 0.122                   1
 p    1 1.00
                 0.727                   1

13 0
 s    8 1.00
                  6665  0.00069158396281299
                  1000  0.0053257961529341
                   228   0.027060721042034
                 64.71    0.10165684614077
                 21.06     0.2745748236174
                 7.495    0.44829431892377
                 2.797    0.28490261071525
                0.5215   0.015194859206082
 s    8 1.00
                  6665  -0.00029326965268655
                  1000  -0.0023180354739745
                   228  -0.011499786038565
                 64.71  -0.046826727009787
                 21.06   -0.12846616875047
                 7.495   -0.30126627246289
                 2.797   -0.25563070233011
                0.5215      1.093793361012
 s    1 1.00
                0.1596                   1
 p    3 1.00
                 9.439   0.056979251590039
                 2.002    0.31320721150073
                0.5456    0.76037674173753
 p    1 1.00
                0.1517                   1
 d    1 1.00
                  0.55                   1

14 0
 s    3 1.00
                 13.01   0.033498726389998
                 1.962    0.23480080117413
                0.4446     0.8136829578829
 s    1 1.00
                 0.122                   1
 p    1 1.00
                 0.727                   1

15 0
 s    3 1.00
                 13.01   0.033498726389998
                 1.962    0.23480080117413
                0.4446     0.8136829578829
 s    1 1.00
                 0.122                   1
 p    1 1.00
                 0.727                   1

16 0
 s    8 1.00
                  6665  0.00069158396281299
                  1000  0.0053257961529341
                   228   0.027060721042034
                 64.71    0.10165684614077
                 21.06     0.2745748236174
                 7.495    0.44829431892377
                 2.797    0.28490261071525
                0.5215   0.015194859206082
 s    8 1.00
                  6665  -0.00029326965268655
                  1000  -0.0023180354739745
                   228  -0.011499786038565
                 64.71  -0.046826727009787
                 21.06   -0.12846616875047
                 7.495   -0.30126627246289
                 2.797   -0.25563070233011
                0.5215      1.093793361012
 s    1 1.00
                0.1596                   1
 p    3 1.00
                 9.439   0.056979251590039
                 2.002    0.31320721150073
                0.5456    0.76037674173753
 p    1 1.00
                0.1517                   1
 d    1 1.00
                  0.55                   1

17 0
 s    3 1.00
                 13.01   0.033498726389998
                 1.962    0.23480080117413
                0.4446     0.8136829578829
 s    1 1.00
                 0.122                   1
 p    1 1.00
                 0.727                   1

18 0
 s    3 1.00
                 13.01   0.033498726389998
                 1.962    0.23480080117413
                0.4446     0.8136829578829
 s    1 1.00
                 0.122                   1
 p    1 1.00
                 0.727                   1

19 0
 s    8 1.00
                  6665  0.00069158396281299
                  1000  0.0053257961529341
                   228   0.027060721042034
                 64.71    0.10165684614077
                 21.06     0.2745748236174
                 7.495    0.44829431892377
                 2.797    0.28490261071525
                0.5215   0.015194859206082
 s    8 1.00
                  6665  -0.00029326965268655
                  1000  -0.0023180354739745
                   228  -0.011499786038565
                 64.71  -0.046826727009787
                 21.06   -0.12846616875047
                 7.495   -0.30126627246289
                 2.797   -0.25563070233011
                0.5215      1.093793361012
 s    1 1.00
                0.1596                   1
 p    3 1.00
                 9.439   0.056979251590039
                 2.002    0.31320721150073
                0.5456    0.76037674173753
 p    1 1.00
                0.1517                   1
 d    1 1.00
                  0.55                   1

20 0
 s    3 1.00
                 13.01   0.033498726389998
                 1.962    0.23480080117413
                0.4446     0.8136829578829
 s    1 1.00
                 0.122                   1
 p    1 1.00
                 0.727                   1

21 0
 s    8 1.00
                  6665  0.00069158396281299
                  1000  0.0053257961529341
                   228   0.027060721042034
                 64.71    0.10165684614077
                 21.06     0.2745748236174
                 7.495    0.44829431892377
                 2.797    0.28490261071525
                0.5215   0.015194859206082
 s    8 1.00
                  6665  -0.00029326965268655
                  1000  -0.0023180354739745
                   228  -0.011499786038565
                 64.71  -0.046826727009787
                 21.06   -0.12846616875047
                 7.495   -0.30126627246289
                 2.797   -0.25563070233011
                0.5215      1.093793361012
 s    1 1.00
                0.1596                   1
 p    3 1.00
                 9.439   0.056979251590039
                 2.002    0.31320721150073
                0.5456    0.76037674173753
 p    1 1.00
                0.1517                   1
 d    1 1.00
                  0.55                   1

22 0
 s    3 1.00
                 13.01   0.033498726389998
                 1.962    0.23480080117413
                0.4446     0.8136829578829
 s    1 1.00
                 0.122                   1
 p    1 1.00
                 0.727                   1

23 0
 s    3 1.00
                 13.01   0.033498726389998
                 1.962    0.23480080117413
                0.4446     0.8136829578829
 s    1 1.00
                 0.122                   1
 p    1 1.00
                 0.727                   1

24 0
 s    3 1.00
                 13.01   0.033498726389998
                 1.962    0.23480080117413
                0.4446     0.8136829578829
 s    1 1.00
                 0.122                   1
 p    1 1.00
                 0.727                   1

25 0
 s    8 1.00
                  6665  0.00069158396281299
                  1000  0.0053257961529341
                   228   0.027060721042034
                 64.71    0.10165684614077
                 21.06     0.2745748236174
                 7.495    0.44829431892377
                 2.797    0.28490261071525
                0.5215   0.015194859206082
 s    8 1.00
                  6665  -0.00029326965268655
                  1000  -0.0023180354739745
                   228  -0.011499786038565
                 64.71  -0.046826727009787
                 21.06   -0.12846616875047
                 7.495   -0.30126627246289
                 2.797   -0.25563070233011
                0.5215      1.093793361012
 s    1 1.00
                0.1596                   1
 p    3 1.00
                 9.439   0.056979251590039
                 2.002    0.31320721150073
                0.5456    0.76037674173753
 p    1 1.00
                0.1517                   1
 d    1 1.00
                  0.55                   1

26 0
 s    3 1.00
                 13.01   0.033498726389998
                 1.962    0.23480080117413
                0.4446     0.8136829578829
 s    1 1.00
                 0.122                   1
 p    1 1.00
                 0.727                   1

27 0
 s    3 1.00
                 13.01   0.033498726389998
                 1.962    0.23480080117413
                0.4446     0.8136829578829
 s    1 1.00
                 0.122                   1
 p    1 1.00
                 0.727                   1

28 0
 s    8 1.00
                  6665  0.00069158396281299
                  1000  0.0053257961529341
                   228   0.027060721042034
                 64.71    0.10165684614077
                 21.06     0.2745748236174
                 7.495    0.44829431892377
                 2.797    0.28490261071525
                0.5215   0.015194859206082
 s    8 1.00
                  6665  -0.00029326965268655
                  1000  -0.0023180354739745
                   228  -0.011499786038565
                 64.71  -0.046826727009787
                 21.06   -0.12846616875047
                 7.495   -0.30126627246289
                 2.797   -0.25563070233011
                0.5215      1.093793361012
 s    1 1.00
                0.1596                   1
 p    3 1.00
                 9.439   0.056979251590039
                 2.002    0.31320721150073
                0.5456    0.76037674173753
 p    1 1.00
                0.1517                   1
 d    1 1.00
                  0.55                   1

29 0
 s    3 1.00
                 13.01   0.033498726389998
                 1.962    0.23480080117413
                0.4446     0.8136829578829
 s    1 1.00
                 0.122                   1
 p    1 1.00
                 0.727                   1

30 0
 s    3 1.00
                 13.01   0.033498726389998
                 1.962    0.23480080117413
                0.4446     0.8136829578829
 s    1 1.00
                 0.122                   1
 p    1 1.00
                 0.727                   1

31 0
 s    8 1.00
                  6665  0.00069158396281299
                  1000  0.0053257961529341
                   228   0.027060721042034
                 64.71    0.10165684614077
                 21.06     0.2745748236174
                 7.495    0.44829431892377
                 2.797    0.28490261071525
                0.5215   0.015194859206082
 s    8 1.00
                  6665  -0.00029326965268655
                  1000  -0.0023180354739745
                   228  -0.011499786038565
                 64.71  -0.046826727009787
                 21.06   -0.12846616875047
                 7.495   -0.30126627246289
                 2.797   -0.25563070233011
                0.5215      1.093793361012
 s    1 1.00
                0.1596                   1
 p    3 1.00
                 9.439   0.056979251590039
                 2.002    0.31320721150073
                0.5456    0.76037674173753
 p    1 1.00
                0.1517                   1
 d    1 1.00
                  0.55                   1

32 0
 s    3 1.00
                 13.01   0.033498726389998
                 1.962    0.23480080117413
                0.4446     0.8136829578829
 s    1 1.00
                 0.122                   1
 p    1 1.00
                 0.727                   1

33 0
 s    3 1.00
                 13.01   0.033498726389998
                 1.962    0.23480080117413
                0.4446     0.8136829578829
 s    1 1.00
                 0.122                   1
 p    1 1.00
                 0.727                   1

34 0
 s    3 1.00
                 13.01   0.033498726389998
                 1.962    0.23480080117413
                0.4446     0.8136829578829
 s    1 1.00
                 0.122                   1
 p    1 1.00
                 0.727                   1

35 0
 s    3 1.00
                 13.01   0.033498726389998
                 1.962    0.23480080117413
                0.4446     0.8136829578829
 s    1 1.00
                 0.122                   1
 p    1 1.00
                 0.727                   1

36 0
 s    3 1.00
                 13.01   0.033498726389998
                 1.962    0.23480080117413
                0.4446     0.8136829578829
 s    1 1.00
                 0.122                   1
 p    1 1.00
                 0.727                   1

37 0
 s    3 1.00
                 13.01   0.033498726389998
                 1.962    0.23480080117413
                0.4446     0.8136829578829
 s    1 1.00
                 0.122                   1
 p    1 1.00
                 0.727                   1

[5d]
[7f]
[9g]

[MO]
 Sym= A
 Ene=               0
 Spin= Alpha
 Occup=    1.00000
   1    7.019124962365e-05
   2    5.1289530819156e-05
   3    -0.00013383551207097
   4    -1.262212882806e-07
   5    -5.7240743236655e-06
   6    -1.3647991407863e-05
   7    -2.162715878488e-07
   8    2.5186424944938e-05
   9    6.3894064133599e-05
  10    -3.4910662706966e-06
  11    1.5640418818824e-07
  12    -1.0925520041753e-06
  13    -8.7990600378977e-07
  14    -1.7420552897265e-08
  15    3.5534567534219e-05
  16    0.00022316463510534
  17      5.9126605095e-07
  18    -2.5203657720843e-06
  19    -2.3053189497405e-05
  20    3.1857489188783e-06
  21    -6.1137859316085e-05
  22    -1.4434409273795e-07
  23    1.0089365482023e-06
  24    2.6578221756326e-06
  25      -1.0013822790122
  26    -0.0019988576118579
  27    0.0069640082042272
  28    5.2478224076757e-06
  29    -1.1381050047195e-05
  30    0.0016355437500701
  31    3.2719433694895e-07
  32    3.1763996292885e-06
  33    -0.0019721848891373
  34    -0.00010817213613845
  35    2.7932624276736e-06
  36    -1.5138550156581e-06
  37    -6.6238180873523e-05
  38    0.00017240285186548
  39    -0.00029134242365538
  40    -0.0004100272135996
  41    -0.0015527357741124
  42    -1.6108657925183e-05
  43    1.0017514830607e-05
  44    -2.8228521452061e-05
  45    -8.3404719073066e-05
  46    6.6307194378646e-05
  47    -0.0036922192988855
  48    0.00050165019823861
  49    8.1871287760514e-06
  50    -2.6630850925391e-06
  51    -3.0229331254549e-05
  52    0.00011125948450646
  53    8.4245948093041e-05
  54    0.0001648906641302
  55    -0.0013892107224796
  56    -7.871640501069e-05
  57    7.2179011896787e-06
  58    3.4124325608656e-05
  59    0.00042850815660294
  60    -0.00048314454839452
  61    0.00097971691909558
  62    0.00011582810411413
  63    -0.00014975854410332
  64    0.00014339884773927
  65    -5.4116901274951e-05
  66    0.00012664700031883
  67    3.8261603089777e-05
  68    9.4849725902744e-05
  69    -0.00052047297628235
  70    6.2168838540841e-05
  71    -4.1344011582092e-05
  72    6.1735327674955e-05
  73    -0.0010195272411667
  74    0.00078365324811782
  75    0.00066531109374002
  76    0.00013921887046668
  77    0.00012144221073812
  78    -8.9794835488835e-05
  79    -5.8251305072172e-05
  80    0.00014952525988514
  81    5.8747949148124e-05
  82    -0.00021829207656796
  83    -6.7114564237968e-05
  84    4.9285589746494e-05
  85    -4.7026552828582e-05
  86    -2.503552343224e-05
  87    -4.8979624509297e-05
  88    0.00062436928693854
  89    1.5606509563199e-05
  90    1.729033467115e-05
  91    -1.1169280073876e-05
  92    -0.00026277984041344
  93    -0.00065152725536085
  94    1.1077189690283e-05
  95    -1.9075041598649e-05
  96    -1.1570839494108e-05
  97    -8.1066517192457e-06
  98    1.9322980403449e-05
  99    4.8682100380431e-05
 100    4.1234502183258e-05
 101    0.00016597982959729
 102    -6.3064703498757e-06
 103    1.0769833911016e-05
 104    -7.7472331797069e-05
 105    1.9729417463909e-05
 106    0.00020745060350301
 107    6.383385986178e-05
 108    -7.9870194068102e-06
 109    -7.6567344245013e-05
 110    -7.8268357090755e-05
 111    6.6554174318444e-05
 112    4.4056956343382e-05
 113    -2.0217074349763e-05
 114    -7.160570612322e-05
 115    4.8227614125105e-05
 116    9.8332633977717e-05
 117    -0.00085582771775809
 118    2.4284653896595e-05
 119    1.1376741222108e-05
 120    -3.2046924992903e-05
 121    -0.00028371978588102
 122    -3.8464279312028e-05
 123    0.00015632105534135
 124    6.0127063904204e-06
 125    -1.0827608817782e-05
 126    -1.4884475391575e-05
 127    3.2308628310673e-05
 128    -5.1124807040555e-05
 129    2.0057230216453e-05
 130    0.00033781244101507
 131    -8.1283656650411e-06
 132    -6.0043835881518e-06
 133    -2.9677309952932e-05
 134    -2.5677208570343e-05
 135    0.00011714668116041
 136    1.3826916405924e-05
 137    2.5319418201642e-05
 138    2.7525581929048e-05
 139    2.2032646091928e-05
 140    4.0127376520164e-05
 141    -0.00030558037845789
 142    -7.7363523635112e-06
 143    2.9748236811508e-06
 144    6.0323952793801e-06
 145    0.00023192121842105
 146    -5.9500895086599e-05
 147    -5.9652154467377e-05
 148    2.5871501502552e-06
 149    -3.3087495964392e-06
 150    4.5649227276362e-06
 151    -1.2716055811308e-05
 152    4.7946316309897e-06
 153    9.7835388051452e-05
 154    9.6787577969581e-05
 155    2.6693081834074e-05
 156    -2.7967907655487e-05
 157    -1.9242152618469e-05
 158    2.6084557310789e-05
 159    8.6270739679769e-05
 160    5.9134293299731e-05
 161    7.4206077152376e-06
 162    -6.7780285462625e-06
 163    6.8160639291414e-07
 164    3.2427468831591e-06
 165    0.00026352262682333
 166    1.8085414449833e-05
 167    -1.4291248413834e-05
 168    -7.0768966048967e-06
 169    -0.0002335589306562
 170    0.00020990076810664
 171    0.00014060329245642
 172    2.4388013676894e-06
 173    -1.0018699054109e-05
 174    1.354188323386e-05
 175    -3.106232233201e-06
 176    1.7934039837575e-05
 177    1.652370614013e-05
 178    -8.6503441546098e-05
 179    1.1928502201954e-06
 180    -1.632701201815e-06
 181    4.6845576863061e-06
 182    -1.6190029716642e-05
 183    -2.8689933783137e-05
 184     7.83337751197e-05
 185    4.5908948721932e-06
 186    -3.8400663965971e-06
 187    -5.395320612439e-06
 188    -0.00013118447147142
 189    0.00010206388810079
 190    9.1065967811624e-05
 191    -1.2198237898475e-06
 192    -2.3343776778366e-06
 193    7.6110146489231e-06
 194    3.034107038592e-06
 195    5.6270173370036e-06
 196    1.3227675010114e-05
 197    1.9476265507667e-05
 198    -5.6680548666709e-06
 199    -1.9288489602503e-06
 200    3.2143189650152e-06
 201    1.2927189075511e-05
 202    -1.7034338344402e-06
 203    1.3397831593066e-05
 204    -9.8294978269895e-06
 205    -1.1785452557699e-05
 206    -8.9719391069468e-06
 207    -6.8625493013585e-05
 208    1.6044418681345e-05
 209    -3.8909601724046e-06
 210    -1.5941030926092e-05
 211    1.8557551479466e-05
 212    3.2062053527104e-05
 213    -0.00026783570624414
 214    -5.6621086635451e-06
 215    2.3601934477497e-06
 216    6.2554956872619e-06
 217    -0.0001943325935077
 218    5.1915448040415e-05
 219    7.9769615099107e-05
 220    2.0906175416794e-06
 221    1.6440178372492e-05
 222    -5.484456041731e-06
 223    -9.4067176214655e-06
 224    1.8928260519413e-06
 225    -2.6570578626584e-05
 226    -5.664372355008e-05
 227    1.2590360066494e-05
 228    2.1473595567531e-06
 229    9.7073466040664e-07
 230    -1.0201425918603e-05
 231    -5.4445309015654e-05
 232    4.1016683911422e-06
 233    -6.4921674439572e-06
 234    -1.2183557638853e-05
 235    -5.06371727243e-07
 236    -8.7061522149999e-07
 237    7.9448970355389e-05
 238    -2.2388084310233e-06
 239    -2.0801288322947e-06
 240    3.7783881662574e-06
 241    -3.6514620941018e-05
 242    6.3799541430809e-05
 243    -1.8275882804945e-05
 244    -1.985647454517e-06
 245    -1.9075763938336e-06
 246    1.885075919806e-06
 247    -1.4501870672763e-07
 248    -9.3415737299331e-07
 249    1.7858969881645e-05
 250    -1.0148560056432e-05
 251    4.399724835358e-06
 252    8.5681948303538e-07
 253    -1.2666966536949e-07
 254    1.6368395963337e-05
 255    -5.600638736167e-05
 256    -2.4037121204644e-07
 257    -4.2672994661492e-06
 258    7.8607047145108e-07
 259    1.0555740311478e-05
 260    1.8870933767509e-05
 261    -7.2542872793408e-05
 262    3.5111572684506e-06
 263    -1.4049142196944e-06