[Molden Format]
made by pyscf v[2.0.1]
[Atoms] (AU)
O   1   8     0.00000000000000     0.00000000000000     6.78435311142442
H   2   1     0.00000000000000     0.00000000000000     4.96095128952346
H   3   1    -0.05031916615174     1.78353065140343     7.16022480789109
O   4   8     0.00000000000000     0.00000000000000     2.31533471513237
C   5   6     0.00000000000000     0.00000000000000     0.00000000000000
C   6   6     2.01118073026938    -1.40227222164369    -1.50774939176400
C   7   6    -2.01249334291722     1.41331050329955    -1.50315905028694
H   8   1     3.32037363730244    -2.26721897153159    -0.13599698591495
C   9   6     3.45899267434009     0.28739631745591    -3.37437943254505
H   10   1     1.07662969841332    -2.94725144642667    -2.56541439481080
H   11   1    -2.67503415753480     0.18421555839588    -3.06194479365997
H   12   1    -1.07974048864772     3.03851734677796    -2.43674295017013
C   13   6    -4.21607110578555     2.32938802552922     0.11994162256091
H   14   1     4.24440173074564     1.93368664142019    -2.34976285512790
H   15   1     2.15020713235517     1.04714335134846    -4.81494497423699
C   16   6     5.60746363007797    -1.12419643481196    -4.70268606082550
H   17   1    -3.46838323670267     3.50951302338067     1.66946842715333
H   18   1    -5.11873485366228     0.68575958301209     1.04047743976495
C   19   6    -6.18314754751344     3.80909592987882    -1.39656589068747
H   20   1     6.93011263717176    -1.87550812453645    -3.26656317360070
C   21   6     7.06356622236532     0.52877932406334    -6.57829775293605
H   22   1     4.82318879258361    -2.78573437948532    -5.70504560381835
H   23   1    -6.91582688743803     2.61304780074712    -2.95074552451969
H   24   1    -5.26532430573853     5.45420349051338    -2.31005832200284
C   25   6    -8.39941882261433     4.73263980500213     0.21800571437956
H   26   1     7.83338371486801     2.19084139882824    -5.57093109900697
H   27   1     5.73544244039420     1.27376866537418    -8.01071492370229
C   28   6     9.21124858443101    -0.89699110072176    -7.88926949186242
H   29   1    -7.66272760055236     5.92277078003992     1.77035591474408
H   30   1    -9.31497248082589     3.08753015622020     1.12614408368786
C   31   6   -10.35481709231879     6.21833079391143    -1.30905206253246
H   32   1    10.58815905329501    -1.61074586756696    -6.49512691622620
H   33   1    10.23506248045667     0.32468009384095    -9.23072870921204
H   34   1     8.47665842847139    -2.53598436989925    -8.94921964622535
H   35   1    -9.48948872868064     7.90013588951020    -2.18823918416067
H   36   1   -11.93332513000955     6.86460487874102    -0.11255798845995
H   37   1   -11.15126291841033     5.04495968327630    -2.83849898862534
[GTO]
1 0
 s    8 1.00
                 11720  0.00070964594651845
                  1759  0.0054672722921914
                 400.8   0.027823118610189
                 113.7    0.10474773971146
                 37.03    0.28292084635691
                 13.27    0.44849523869833
                 5.025    0.27081688521277
                 1.013    0.01545029160744
 s    8 1.00
                 11720  -0.00031444341168873
                  1759  -0.0024821376810179
                 400.8  -0.012316355381583
                 113.7  -0.050538917343672
                 37.03   -0.13938490331632
                 13.27   -0.32507749481778
                 5.025   -0.22984830758785
                 1.013     1.0953793467883
 s    1 1.00
                0.3023                   1
 p    3 1.00
                  17.7   0.062679166281506
                 3.854    0.33353656587936
                 1.046    0.74123964163973
 p    1 1.00
                0.2753                   1
 d    1 1.00
                 1.185                   1

2 0
 s    3 1.00
                 13.01   0.033498726389998
                 1.962    0.23480080117413
                0.4446     0.8136829578829
 s    1 1.00
                 0.122                   1
 p    1 1.00
                 0.727                   1

3 0
 s    3 1.00
                 13.01   0.033498726389998
                 1.962    0.23480080117413
                0.4446     0.8136829578829
 s    1 1.00
                 0.122                   1
 p    1 1.00
                 0.727                   1

4 0
 s    8 1.00
                 11720  0.00070964594651845
                  1759  0.0054672722921914
                 400.8   0.027823118610189
                 113.7    0.10474773971146
                 37.03    0.28292084635691
                 13.27    0.44849523869833
                 5.025    0.27081688521277
                 1.013    0.01545029160744
 s    8 1.00
                 11720  -0.00031444341168873
                  1759  -0.0024821376810179
                 400.8  -0.012316355381583
                 113.7  -0.050538917343672
                 37.03   -0.13938490331632
                 13.27   -0.32507749481778
                 5.025   -0.22984830758785
                 1.013     1.0953793467883
 s    1 1.00
                0.3023                   1
 p    3 1.00
                  17.7   0.062679166281506
                 3.854    0.33353656587936
                 1.046    0.74123964163973
 p    1 1.00
                0.2753                   1
 d    1 1.00
                 1.185                   1

5 0
 s    8 1.00
                  6665  0.00069158396281299
                  1000  0.0053257961529341
                   228   0.027060721042034
                 64.71    0.10165684614077
                 21.06     0.2745748236174
                 7.495    0.44829431892377
                 2.797    0.28490261071525
                0.5215   0.015194859206082
 s    8 1.00
                  6665  -0.00029326965268655
                  1000  -0.0023180354739745
                   228  -0.011499786038565
                 64.71  -0.046826727009787
                 21.06   -0.12846616875047
                 7.495   -0.30126627246289
                 2.797   -0.25563070233011
                0.5215      1.093793361012
 s    1 1.00
                0.1596                   1
 p    3 1.00
                 9.439   0.056979251590039
                 2.002    0.31320721150073
                0.5456    0.76037674173753
 p    1 1.00
                0.1517                   1
 d    1 1.00
                  0.55                   1

6 0
 s    8 1.00
                  6665  0.00069158396281299
                  1000  0.0053257961529341
                   228   0.027060721042034
                 64.71    0.10165684614077
                 21.06     0.2745748236174
                 7.495    0.44829431892377
                 2.797    0.28490261071525
                0.5215   0.015194859206082
 s    8 1.00
                  6665  -0.00029326965268655
                  1000  -0.0023180354739745
                   228  -0.011499786038565
                 64.71  -0.046826727009787
                 21.06   -0.12846616875047
                 7.495   -0.30126627246289
                 2.797   -0.25563070233011
                0.5215      1.093793361012
 s    1 1.00
                0.1596                   1
 p    3 1.00
                 9.439   0.056979251590039
                 2.002    0.31320721150073
                0.5456    0.76037674173753
 p    1 1.00
                0.1517                   1
 d    1 1.00
                  0.55                   1

7 0
 s    8 1.00
                  6665  0.00069158396281299
                  1000  0.0053257961529341
                   228   0.027060721042034
                 64.71    0.10165684614077
                 21.06     0.2745748236174
                 7.495    0.44829431892377
                 2.797    0.28490261071525
                0.5215   0.015194859206082
 s    8 1.00
                  6665  -0.00029326965268655
                  1000  -0.0023180354739745
                   228  -0.011499786038565
                 64.71  -0.046826727009787
                 21.06   -0.12846616875047
                 7.495   -0.30126627246289
                 2.797   -0.25563070233011
                0.5215      1.093793361012
 s    1 1.00
                0.1596                   1
 p    3 1.00
                 9.439   0.056979251590039
                 2.002    0.31320721150073
                0.5456    0.76037674173753
 p    1 1.00
                0.1517                   1
 d    1 1.00
                  0.55                   1

8 0
 s    3 1.00
                 13.01   0.033498726389998
                 1.962    0.23480080117413
                0.4446     0.8136829578829
 s    1 1.00
                 0.122                   1
 p    1 1.00
                 0.727                   1

9 0
 s    8 1.00
                  6665  0.00069158396281299
                  1000  0.0053257961529341
                   228   0.027060721042034
                 64.71    0.10165684614077
                 21.06     0.2745748236174
                 7.495    0.44829431892377
                 2.797    0.28490261071525
                0.5215   0.015194859206082
 s    8 1.00
                  6665  -0.00029326965268655
                  1000  -0.0023180354739745
                   228  -0.011499786038565
                 64.71  -0.046826727009787
                 21.06   -0.12846616875047
                 7.495   -0.30126627246289
                 2.797   -0.25563070233011
                0.5215      1.093793361012
 s    1 1.00
                0.1596                   1
 p    3 1.00
                 9.439   0.056979251590039
                 2.002    0.31320721150073
                0.5456    0.76037674173753
 p    1 1.00
                0.1517                   1
 d    1 1.00
                  0.55                   1

10 0
 s    3 1.00
                 13.01   0.033498726389998
                 1.962    0.23480080117413
                0.4446     0.8136829578829
 s    1 1.00
                 0.122                   1
 p    1 1.00
                 0.727                   1

11 0
 s    3 1.00
                 13.01   0.033498726389998
                 1.962    0.23480080117413
                0.4446     0.8136829578829
 s    1 1.00
                 0.122                   1
 p    1 1.00
                 0.727                   1

12 0
 s    3 1.00
                 13.01   0.033498726389998
                 1.962    0.23480080117413
                0.4446     0.8136829578829
 s    1 1.00
                 0.122                   1
 p    1 1.00
                 0.727                   1

13 0
 s    8 1.00
                  6665  0.00069158396281299
                  1000  0.0053257961529341
                   228   0.027060721042034
                 64.71    0.10165684614077
                 21.06     0.2745748236174
                 7.495    0.44829431892377
                 2.797    0.28490261071525
                0.5215   0.015194859206082
 s    8 1.00
                  6665  -0.00029326965268655
                  1000  -0.0023180354739745
                   228  -0.011499786038565
                 64.71  -0.046826727009787
                 21.06   -0.12846616875047
                 7.495   -0.30126627246289
                 2.797   -0.25563070233011
                0.5215      1.093793361012
 s    1 1.00
                0.1596                   1
 p    3 1.00
                 9.439   0.056979251590039
                 2.002    0.31320721150073
                0.5456    0.76037674173753
 p    1 1.00
                0.1517                   1
 d    1 1.00
                  0.55                   1

14 0
 s    3 1.00
                 13.01   0.033498726389998
                 1.962    0.23480080117413
                0.4446     0.8136829578829
 s    1 1.00
                 0.122                   1
 p    1 1.00
                 0.727                   1

15 0
 s    3 1.00
                 13.01   0.033498726389998
                 1.962    0.23480080117413
                0.4446     0.8136829578829
 s    1 1.00
                 0.122                   1
 p    1 1.00
                 0.727                   1

16 0
 s    8 1.00
                  6665  0.00069158396281299
                  1000  0.0053257961529341
                   228   0.027060721042034
                 64.71    0.10165684614077
                 21.06     0.2745748236174
                 7.495    0.44829431892377
                 2.797    0.28490261071525
                0.5215   0.015194859206082
 s    8 1.00
                  6665  -0.00029326965268655
                  1000  -0.0023180354739745
                   228  -0.011499786038565
                 64.71  -0.046826727009787
                 21.06   -0.12846616875047
                 7.495   -0.30126627246289
                 2.797   -0.25563070233011
                0.5215      1.093793361012
 s    1 1.00
                0.1596                   1
 p    3 1.00
                 9.439   0.056979251590039
                 2.002    0.31320721150073
                0.5456    0.76037674173753
 p    1 1.00
                0.1517                   1
 d    1 1.00
                  0.55                   1

17 0
 s    3 1.00
                 13.01   0.033498726389998
                 1.962    0.23480080117413
                0.4446     0.8136829578829
 s    1 1.00
                 0.122                   1
 p    1 1.00
                 0.727                   1

18 0
 s    3 1.00
                 13.01   0.033498726389998
                 1.962    0.23480080117413
                0.4446     0.8136829578829
 s    1 1.00
                 0.122                   1
 p    1 1.00
                 0.727                   1

19 0
 s    8 1.00
                  6665  0.00069158396281299
                  1000  0.0053257961529341
                   228   0.027060721042034
                 64.71    0.10165684614077
                 21.06     0.2745748236174
                 7.495    0.44829431892377
                 2.797    0.28490261071525
                0.5215   0.015194859206082
 s    8 1.00
                  6665  -0.00029326965268655
                  1000  -0.0023180354739745
                   228  -0.011499786038565
                 64.71  -0.046826727009787
                 21.06   -0.12846616875047
                 7.495   -0.30126627246289
                 2.797   -0.25563070233011
                0.5215      1.093793361012
 s    1 1.00
                0.1596                   1
 p    3 1.00
                 9.439   0.056979251590039
                 2.002    0.31320721150073
                0.5456    0.76037674173753
 p    1 1.00
                0.1517                   1
 d    1 1.00
                  0.55                   1

20 0
 s    3 1.00
                 13.01   0.033498726389998
                 1.962    0.23480080117413
                0.4446     0.8136829578829
 s    1 1.00
                 0.122                   1
 p    1 1.00
                 0.727                   1

21 0
 s    8 1.00
                  6665  0.00069158396281299
                  1000  0.0053257961529341
                   228   0.027060721042034
                 64.71    0.10165684614077
                 21.06     0.2745748236174
                 7.495    0.44829431892377
                 2.797    0.28490261071525
                0.5215   0.015194859206082
 s    8 1.00
                  6665  -0.00029326965268655
                  1000  -0.0023180354739745
                   228  -0.011499786038565
                 64.71  -0.046826727009787
                 21.06   -0.12846616875047
                 7.495   -0.30126627246289
                 2.797   -0.25563070233011
                0.5215      1.093793361012
 s    1 1.00
                0.1596                   1
 p    3 1.00
                 9.439   0.056979251590039
                 2.002    0.31320721150073
                0.5456    0.76037674173753
 p    1 1.00
                0.1517                   1
 d    1 1.00
                  0.55                   1

22 0
 s    3 1.00
                 13.01   0.033498726389998
                 1.962    0.23480080117413
                0.4446     0.8136829578829
 s    1 1.00
                 0.122                   1
 p    1 1.00
                 0.727                   1

23 0
 s    3 1.00
                 13.01   0.033498726389998
                 1.962    0.23480080117413
                0.4446     0.8136829578829
 s    1 1.00
                 0.122                   1
 p    1 1.00
                 0.727                   1

24 0
 s    3 1.00
                 13.01   0.033498726389998
                 1.962    0.23480080117413
                0.4446     0.8136829578829
 s    1 1.00
                 0.122                   1
 p    1 1.00
                 0.727                   1

25 0
 s    8 1.00
                  6665  0.00069158396281299
                  1000  0.0053257961529341
                   228   0.027060721042034
                 64.71    0.10165684614077
                 21.06     0.2745748236174
                 7.495    0.44829431892377
                 2.797    0.28490261071525
                0.5215   0.015194859206082
 s    8 1.00
                  6665  -0.00029326965268655
                  1000  -0.0023180354739745
                   228  -0.011499786038565
                 64.71  -0.046826727009787
                 21.06   -0.12846616875047
                 7.495   -0.30126627246289
                 2.797   -0.25563070233011
                0.5215      1.093793361012
 s    1 1.00
                0.1596                   1
 p    3 1.00
                 9.439   0.056979251590039
                 2.002    0.31320721150073
                0.5456    0.76037674173753
 p    1 1.00
                0.1517                   1
 d    1 1.00
                  0.55                   1

26 0
 s    3 1.00
                 13.01   0.033498726389998
                 1.962    0.23480080117413
                0.4446     0.8136829578829
 s    1 1.00
                 0.122                   1
 p    1 1.00
                 0.727                   1

27 0
 s    3 1.00
                 13.01   0.033498726389998
                 1.962    0.23480080117413
                0.4446     0.8136829578829
 s    1 1.00
                 0.122                   1
 p    1 1.00
                 0.727                   1

28 0
 s    8 1.00
                  6665  0.00069158396281299
                  1000  0.0053257961529341
                   228   0.027060721042034
                 64.71    0.10165684614077
                 21.06     0.2745748236174
                 7.495    0.44829431892377
                 2.797    0.28490261071525
                0.5215   0.015194859206082
 s    8 1.00
                  6665  -0.00029326965268655
                  1000  -0.0023180354739745
                   228  -0.011499786038565
                 64.71  -0.046826727009787
                 21.06   -0.12846616875047
                 7.495   -0.30126627246289
                 2.797   -0.25563070233011
                0.5215      1.093793361012
 s    1 1.00
                0.1596                   1
 p    3 1.00
                 9.439   0.056979251590039
                 2.002    0.31320721150073
                0.5456    0.76037674173753
 p    1 1.00
                0.1517                   1
 d    1 1.00
                  0.55                   1

29 0
 s    3 1.00
                 13.01   0.033498726389998
                 1.962    0.23480080117413
                0.4446     0.8136829578829
 s    1 1.00
                 0.122                   1
 p    1 1.00
                 0.727                   1

30 0
 s    3 1.00
                 13.01   0.033498726389998
                 1.962    0.23480080117413
                0.4446     0.8136829578829
 s    1 1.00
                 0.122                   1
 p    1 1.00
                 0.727                   1

31 0
 s    8 1.00
                  6665  0.00069158396281299
                  1000  0.0053257961529341
                   228   0.027060721042034
                 64.71    0.10165684614077
                 21.06     0.2745748236174
                 7.495    0.44829431892377
                 2.797    0.28490261071525
                0.5215   0.015194859206082
 s    8 1.00
                  6665  -0.00029326965268655
                  1000  -0.0023180354739745
                   228  -0.011499786038565
                 64.71  -0.046826727009787
                 21.06   -0.12846616875047
                 7.495   -0.30126627246289
                 2.797   -0.25563070233011
                0.5215      1.093793361012
 s    1 1.00
                0.1596                   1
 p    3 1.00
                 9.439   0.056979251590039
                 2.002    0.31320721150073
                0.5456    0.76037674173753
 p    1 1.00
                0.1517                   1
 d    1 1.00
                  0.55                   1

32 0
 s    3 1.00
                 13.01   0.033498726389998
                 1.962    0.23480080117413
                0.4446     0.8136829578829
 s    1 1.00
                 0.122                   1
 p    1 1.00
                 0.727                   1

33 0
 s    3 1.00
                 13.01   0.033498726389998
                 1.962    0.23480080117413
                0.4446     0.8136829578829
 s    1 1.00
                 0.122                   1
 p    1 1.00
                 0.727                   1

34 0
 s    3 1.00
                 13.01   0.033498726389998
                 1.962    0.23480080117413
                0.4446     0.8136829578829
 s    1 1.00
                 0.122                   1
 p    1 1.00
                 0.727                   1

35 0
 s    3 1.00
                 13.01   0.033498726389998
                 1.962    0.23480080117413
                0.4446     0.8136829578829
 s    1 1.00
                 0.122                   1
 p    1 1.00
                 0.727                   1

36 0
 s    3 1.00
                 13.01   0.033498726389998
                 1.962    0.23480080117413
                0.4446     0.8136829578829
 s    1 1.00
                 0.122                   1
 p    1 1.00
                 0.727                   1

37 0
 s    3 1.00
                 13.01   0.033498726389998
                 1.962    0.23480080117413
                0.4446     0.8136829578829
 s    1 1.00
                 0.122                   1
 p    1 1.00
                 0.727                   1

[5d]
[7f]
[9g]

[MO]
 Sym= A
 Ene=               0
 Spin= Alpha
 Occup=    1.00000
   1    7.7466377647508e-05
   2    2.2027143467658e-06
   3    0.00012916785272986
   4    -1.1734038666979e-06
   5    -4.5939309963097e-07
   6    -5.2716996281401e-05
   7    2.1519782686619e-06
   8    1.4735126234125e-05
   9    -0.00013689095792211
  10    6.1341323382323e-05
  11    2.8145869002364e-07
  12    -2.8236075517574e-06
  13    -4.6547009288204e-06
  14    -2.023405825263e-07
  15    -4.7117503964667e-05
  16    0.00012407501534191
  17    1.5033423158996e-06
  18    -5.1145853476461e-06
  19    -0.00016188051922656
  20    -2.8392837946048e-05
  21    8.8236746217153e-06
  22    -2.3450561971069e-07
  23    -6.0391689800826e-06
  24    1.0123118548216e-05
  25      -1.0014127789637
  26    -0.0021239307353375
  27    0.0070311338847031
  28    5.3838297712302e-06
  29    -1.6821638078263e-05
  30     0.001570049560156
  31    -1.2007916230728e-06
  32    4.7111144325377e-06
  33    -0.0021227023904149
  34    -0.00013955900401523
  35    2.6478625747999e-06
  36    -1.0854898536655e-06
  37    -6.2035527921108e-05
  38    0.00016258579744948
  39    -0.00030011613424205
  40    -0.00042688719838651
  41    -0.0017245349849638
  42    -1.651434615522e-05
  43    1.0489385363999e-05
  44    -5.2565518884099e-05
  45    -7.1003101394949e-05
  46    5.8877098562577e-05
  47    -0.0037358521329577
  48    0.00049094177529966
  49    7.7244323645859e-06
  50    -1.7887444135668e-06
  51    -3.3214888892731e-05
  52    0.00011879821508497
  53    8.4124829983395e-05
  54    0.00016511692341866
  55    -0.0013787139213191
  56    -8.0574584979237e-05
  57    8.5528509755994e-06
  58    3.5610943212718e-05
  59    0.00040814451666921
  60    -0.00047528389761667
  61    0.00099317311067399
  62    0.00011345433030716
  63    -0.00015294548212185
  64    0.00014614136750462
  65    -5.3806643300392e-05
  66    0.00012510541157091
  67    3.5804344120477e-05
  68    9.1189088305413e-05
  69    -0.00046922198872327
  70    6.4636276403955e-05
  71    -4.3104760331494e-05
  72    6.3721487480655e-05
  73    -0.0010108890914756
  74    0.0007735427269242
  75    0.00069115163473323
  76    0.00013652875785245
  77    0.00012473166657377
  78    -9.1547851192664e-05
  79    -5.7545576872809e-05
  80    0.00014721486496295
  81    6.0329540984946e-05
  82    -0.00021218354651935
  83    -6.8151356538341e-05
  84    5.0207557964315e-05
  85    -4.8269912374821e-05
  86    -2.4729038056627e-05
  87    -4.8508549368408e-05
  88    0.00061963363729408
  89    1.5358522185549e-05
  90    1.7207690867669e-05
  91    -1.1963142514361e-05
  92    -0.00026518669211064
  93    -0.00065141611736889
  94    2.0745347726274e-05
  95    -1.9357886372453e-05
  96    -1.1295012244732e-05
  97    -8.3188318939317e-06
  98    1.8470636082848e-05
  99    5.0404962340668e-05
 100    3.9728189534514e-05
 101    0.00016732871814553
 102    -4.7257744947542e-06
 103    1.0545206632144e-05
 104    -7.8056357550773e-05
 105    1.8330499898723e-05
 106    0.00020739490263044
 107    6.294162758842e-05
 108    -6.0744662790398e-06
 109    -7.7876845511956e-05
 110    -8.0490798943017e-05
 111    7.2060928895184e-05
 112    4.3086667551601e-05
 113    -2.080313835585e-05
 114    -7.2282064927747e-05
 115    5.1343423633371e-05
 116    0.00010361025103324
 117    -0.00090410995480388
 118    2.4166363544011e-05
 119    1.1727099461172e-05
 120    -3.2490238048645e-05
 121    -0.00027588987075354
 122    -4.5440163776599e-05
 123    0.00017194263640328
 124    5.4060544242997e-06
 125    -1.1484060993139e-05
 126    -1.4157398857294e-05
 127    3.2521389857824e-05
 128    -5.1004684785013e-05
 129    1.7632770519401e-05
 130    0.00034016847606563
 131    -8.1598268369333e-06
 132    -5.7992110050434e-06
 133    -3.0061704301869e-05
 134    -2.3603840581789e-05
 135    0.00011549982009485
 136    1.4810078416597e-05
 137    2.5350391323678e-05
 138    2.624067406748e-05
 139    2.1100483214039e-05
 140    3.8480943344603e-05
 141    -0.00029878468145147
 142    -7.3857358616262e-06
 143    3.4834305449067e-06
 144    6.2993930111356e-06
 145    0.00021879899412832
 146    -6.3159671998433e-05
 147    -5.5999968593022e-05
 148    2.3779741490153e-06
 149    -3.8826930317021e-06
 150    5.1237158914468e-06
 151    -1.2406266661267e-05
 152    4.2017189405904e-06
 153    9.8695281136497e-05
 154    9.8242493146152e-05
 155    2.6228995254117e-05
 156    -2.7800656299396e-05
 157    -2.0223552372347e-05
 158    2.6376908940285e-05
 159    9.1913525364015e-05
 160    5.9188273433068e-05
 161    8.4832756959136e-06
 162    -7.876684118388e-06
 163    -1.2966543550559e-06
 164    -8.1172390137476e-07
 165    0.00029518435172581
 166    1.8459683772595e-05
 167    -1.4667565213886e-05
 168    -6.6555997442752e-06
 169    -0.00021572027799965
 170    0.00019886691865328
 171    0.00014670968085435
 172    1.6646745989491e-06
 173    -9.6648798498848e-06
 174      1.2828306086e-05
 175    -2.3194162147361e-06
 176    1.6814031479151e-05
 177    1.7093466098499e-05
 178    -8.6239166523262e-05
 179    1.8890529387531e-06
 180    -1.2050383598281e-06
 181    4.3294996838838e-06
 182    -1.6647695326719e-05
 183    -2.9440567205592e-05
 184    8.3130203796869e-05
 185    4.4988277762138e-06
 186    -4.0423695853078e-06
 187    -5.4385543520917e-06
 188    -0.00013267269839896
 189    0.00010273279435002
 190    9.8419093961916e-05
 191    -8.2185069241488e-07
 192    -2.4593146713338e-06
 193    7.4137083693471e-06
 194    2.7408080312825e-06
 195    5.8887925144722e-06
 196    1.1070488771893e-05
 197    1.7919912150731e-05
 198    -5.2879433159229e-06
 199    -1.9340200360261e-06
 200    3.0014176360521e-06
 201    1.1136152911624e-05
 202    -1.0830787808452e-06
 203    1.3019183616803e-05
 204    -9.3424622810568e-06
 205    -1.1689247687796e-05
 206    -9.6251951765391e-06
 207    -6.8247855142513e-05
 208    1.5350983653199e-05
 209    -3.4553512919433e-06
 210    -1.6065655774358e-05
 211    1.1205794644208e-05
 212    4.7290874940559e-05
 213    -0.00025702946135735
 214    -1.4809964954679e-05
 215    -3.3107265128606e-06
 216    1.1904667869219e-05
 217    -0.00019977913200214
 218    4.9942850163412e-05
 219    8.2546352507563e-05
 220    1.6210741087324e-06
 221    1.6360377662289e-05
 222    -6.0503097854514e-06
 223    -9.7919040046753e-06
 224    2.0152643987356e-06
 225    -2.7245991394961e-05
 226    -5.8530377954476e-05
 227    1.2807788704014e-05
 228    2.320085775615e-06
 229    8.2230691910586e-07
 230    -1.0377214517174e-05
 231    -5.2308920971408e-05
 232    4.2885454020813e-06
 233    -6.6900015161858e-06
 234    -1.227402406041e-05
 235    -5.8232722617221e-06
 236    -2.750040650055e-06
 237    8.2826196359684e-05
 238    -4.7422349734078e-06
 239    -3.5009923187919e-06
 240    2.2332616616616e-06
 241    -4.1004030886725e-05
 242    6.3031124429031e-05
 243    -1.7741167417433e-05
 244    -2.1410338528338e-06
 245    -2.0996789068283e-06
 246    1.9624971241946e-06
 247    7.7584836741974e-09
 248    -1.0287041615322e-06
 249    2.2408477863628e-05
 250    -1.21668305295e-05
 251    3.9023314575178e-06
 252    2.3065635888974e-07
 253    -3.9433813070475e-07
 254    3.4151624121369e-05
 255    -5.2420012634417e-05
 256    1.9727390119229e-07
 257    -3.0863772548809e-06
 258    2.1689263496223e-07
 259    2.2343056688266e-06
 260    1.7138015165036e-05
 261    -7.0918725765567e-05
 262    5.8254381682954e-06