[Molden Format]
made by pyscf v[2.0.1]
[Atoms] (AU)
O   1   8     0.00000000000000     0.00000000000000     8.67407923598948
H   2   1     0.00000000000000     0.00000000000000     6.85067741408852
H   3   1    -0.05031916615174     1.78353065140343     9.04995093245615
O   4   8     0.00000000000000     0.00000000000000     2.31533471513237
C   5   6     0.00000000000000     0.00000000000000     0.00000000000000
C   6   6     2.01118073026938    -1.40227222164369    -1.50774939176400
C   7   6    -2.01249334291722     1.41331050329955    -1.50315905028694
H   8   1     3.32037363730244    -2.26721897153159    -0.13599698591495
C   9   6     3.45899267434009     0.28739631745591    -3.37437943254505
H   10   1     1.07662969841332    -2.94725144642667    -2.56541439481080
H   11   1    -2.67503415753480     0.18421555839588    -3.06194479365997
H   12   1    -1.07974048864772     3.03851734677796    -2.43674295017013
C   13   6    -4.21607110578555     2.32938802552922     0.11994162256091
H   14   1     4.24440173074564     1.93368664142019    -2.34976285512790
H   15   1     2.15020713235517     1.04714335134846    -4.81494497423699
C   16   6     5.60746363007797    -1.12419643481196    -4.70268606082550
H   17   1    -3.46838323670267     3.50951302338067     1.66946842715333
H   18   1    -5.11873485366228     0.68575958301209     1.04047743976495
C   19   6    -6.18314754751344     3.80909592987882    -1.39656589068747
H   20   1     6.93011263717176    -1.87550812453645    -3.26656317360070
C   21   6     7.06356622236532     0.52877932406334    -6.57829775293605
H   22   1     4.82318879258361    -2.78573437948532    -5.70504560381835
H   23   1    -6.91582688743803     2.61304780074712    -2.95074552451969
H   24   1    -5.26532430573853     5.45420349051338    -2.31005832200284
C   25   6    -8.39941882261433     4.73263980500213     0.21800571437956
H   26   1     7.83338371486801     2.19084139882824    -5.57093109900697
H   27   1     5.73544244039420     1.27376866537418    -8.01071492370229
C   28   6     9.21124858443101    -0.89699110072176    -7.88926949186242
H   29   1    -7.66272760055236     5.92277078003992     1.77035591474408
H   30   1    -9.31497248082589     3.08753015622020     1.12614408368786
C   31   6   -10.35481709231879     6.21833079391143    -1.30905206253246
H   32   1    10.58815905329501    -1.61074586756696    -6.49512691622620
H   33   1    10.23506248045667     0.32468009384095    -9.23072870921204
H   34   1     8.47665842847139    -2.53598436989925    -8.94921964622535
H   35   1    -9.48948872868064     7.90013588951020    -2.18823918416067
H   36   1   -11.93332513000955     6.86460487874102    -0.11255798845995
H   37   1   -11.15126291841033     5.04495968327630    -2.83849898862534
[GTO]
1 0
 s    8 1.00
                 11720  0.00070964594651845
                  1759  0.0054672722921914
                 400.8   0.027823118610189
                 113.7    0.10474773971146
                 37.03    0.28292084635691
                 13.27    0.44849523869833
                 5.025    0.27081688521277
                 1.013    0.01545029160744
 s    8 1.00
                 11720  -0.00031444341168873
                  1759  -0.0024821376810179
                 400.8  -0.012316355381583
                 113.7  -0.050538917343672
                 37.03   -0.13938490331632
                 13.27   -0.32507749481778
                 5.025   -0.22984830758785
                 1.013     1.0953793467883
 s    1 1.00
                0.3023                   1
 p    3 1.00
                  17.7   0.062679166281506
                 3.854    0.33353656587936
                 1.046    0.74123964163973
 p    1 1.00
                0.2753                   1
 d    1 1.00
                 1.185                   1

2 0
 s    3 1.00
                 13.01   0.033498726389998
                 1.962    0.23480080117413
                0.4446     0.8136829578829
 s    1 1.00
                 0.122                   1
 p    1 1.00
                 0.727                   1

3 0
 s    3 1.00
                 13.01   0.033498726389998
                 1.962    0.23480080117413
                0.4446     0.8136829578829
 s    1 1.00
                 0.122                   1
 p    1 1.00
                 0.727                   1

4 0
 s    8 1.00
                 11720  0.00070964594651845
                  1759  0.0054672722921914
                 400.8   0.027823118610189
                 113.7    0.10474773971146
                 37.03    0.28292084635691
                 13.27    0.44849523869833
                 5.025    0.27081688521277
                 1.013    0.01545029160744
 s    8 1.00
                 11720  -0.00031444341168873
                  1759  -0.0024821376810179
                 400.8  -0.012316355381583
                 113.7  -0.050538917343672
                 37.03   -0.13938490331632
                 13.27   -0.32507749481778
                 5.025   -0.22984830758785
                 1.013     1.0953793467883
 s    1 1.00
                0.3023                   1
 p    3 1.00
                  17.7   0.062679166281506
                 3.854    0.33353656587936
                 1.046    0.74123964163973
 p    1 1.00
                0.2753                   1
 d    1 1.00
                 1.185                   1

5 0
 s    8 1.00
                  6665  0.00069158396281299
                  1000  0.0053257961529341
                   228   0.027060721042034
                 64.71    0.10165684614077
                 21.06     0.2745748236174
                 7.495    0.44829431892377
                 2.797    0.28490261071525
                0.5215   0.015194859206082
 s    8 1.00
                  6665  -0.00029326965268655
                  1000  -0.0023180354739745
                   228  -0.011499786038565
                 64.71  -0.046826727009787
                 21.06   -0.12846616875047
                 7.495   -0.30126627246289
                 2.797   -0.25563070233011
                0.5215      1.093793361012
 s    1 1.00
                0.1596                   1
 p    3 1.00
                 9.439   0.056979251590039
                 2.002    0.31320721150073
                0.5456    0.76037674173753
 p    1 1.00
                0.1517                   1
 d    1 1.00
                  0.55                   1

6 0
 s    8 1.00
                  6665  0.00069158396281299
                  1000  0.0053257961529341
                   228   0.027060721042034
                 64.71    0.10165684614077
                 21.06     0.2745748236174
                 7.495    0.44829431892377
                 2.797    0.28490261071525
                0.5215   0.015194859206082
 s    8 1.00
                  6665  -0.00029326965268655
                  1000  -0.0023180354739745
                   228  -0.011499786038565
                 64.71  -0.046826727009787
                 21.06   -0.12846616875047
                 7.495   -0.30126627246289
                 2.797   -0.25563070233011
                0.5215      1.093793361012
 s    1 1.00
                0.1596                   1
 p    3 1.00
                 9.439   0.056979251590039
                 2.002    0.31320721150073
                0.5456    0.76037674173753
 p    1 1.00
                0.1517                   1
 d    1 1.00
                  0.55                   1

7 0
 s    8 1.00
                  6665  0.00069158396281299
                  1000  0.0053257961529341
                   228   0.027060721042034
                 64.71    0.10165684614077
                 21.06     0.2745748236174
                 7.495    0.44829431892377
                 2.797    0.28490261071525
                0.5215   0.015194859206082
 s    8 1.00
                  6665  -0.00029326965268655
                  1000  -0.0023180354739745
                   228  -0.011499786038565
                 64.71  -0.046826727009787
                 21.06   -0.12846616875047
                 7.495   -0.30126627246289
                 2.797   -0.25563070233011
                0.5215      1.093793361012
 s    1 1.00
                0.1596                   1
 p    3 1.00
                 9.439   0.056979251590039
                 2.002    0.31320721150073
                0.5456    0.76037674173753
 p    1 1.00
                0.1517                   1
 d    1 1.00
                  0.55                   1

8 0
 s    3 1.00
                 13.01   0.033498726389998
                 1.962    0.23480080117413
                0.4446     0.8136829578829
 s    1 1.00
                 0.122                   1
 p    1 1.00
                 0.727                   1

9 0
 s    8 1.00
                  6665  0.00069158396281299
                  1000  0.0053257961529341
                   228   0.027060721042034
                 64.71    0.10165684614077
                 21.06     0.2745748236174
                 7.495    0.44829431892377
                 2.797    0.28490261071525
                0.5215   0.015194859206082
 s    8 1.00
                  6665  -0.00029326965268655
                  1000  -0.0023180354739745
                   228  -0.011499786038565
                 64.71  -0.046826727009787
                 21.06   -0.12846616875047
                 7.495   -0.30126627246289
                 2.797   -0.25563070233011
                0.5215      1.093793361012
 s    1 1.00
                0.1596                   1
 p    3 1.00
                 9.439   0.056979251590039
                 2.002    0.31320721150073
                0.5456    0.76037674173753
 p    1 1.00
                0.1517                   1
 d    1 1.00
                  0.55                   1

10 0
 s    3 1.00
                 13.01   0.033498726389998
                 1.962    0.23480080117413
                0.4446     0.8136829578829
 s    1 1.00
                 0.122                   1
 p    1 1.00
                 0.727                   1

11 0
 s    3 1.00
                 13.01   0.033498726389998
                 1.962    0.23480080117413
                0.4446     0.8136829578829
 s    1 1.00
                 0.122                   1
 p    1 1.00
                 0.727                   1

12 0
 s    3 1.00
                 13.01   0.033498726389998
                 1.962    0.23480080117413
                0.4446     0.8136829578829
 s    1 1.00
                 0.122                   1
 p    1 1.00
                 0.727                   1

13 0
 s    8 1.00
                  6665  0.00069158396281299
                  1000  0.0053257961529341
                   228   0.027060721042034
                 64.71    0.10165684614077
                 21.06     0.2745748236174
                 7.495    0.44829431892377
                 2.797    0.28490261071525
                0.5215   0.015194859206082
 s    8 1.00
                  6665  -0.00029326965268655
                  1000  -0.0023180354739745
                   228  -0.011499786038565
                 64.71  -0.046826727009787
                 21.06   -0.12846616875047
                 7.495   -0.30126627246289
                 2.797   -0.25563070233011
                0.5215      1.093793361012
 s    1 1.00
                0.1596                   1
 p    3 1.00
                 9.439   0.056979251590039
                 2.002    0.31320721150073
                0.5456    0.76037674173753
 p    1 1.00
                0.1517                   1
 d    1 1.00
                  0.55                   1

14 0
 s    3 1.00
                 13.01   0.033498726389998
                 1.962    0.23480080117413
                0.4446     0.8136829578829
 s    1 1.00
                 0.122                   1
 p    1 1.00
                 0.727                   1

15 0
 s    3 1.00
                 13.01   0.033498726389998
                 1.962    0.23480080117413
                0.4446     0.8136829578829
 s    1 1.00
                 0.122                   1
 p    1 1.00
                 0.727                   1

16 0
 s    8 1.00
                  6665  0.00069158396281299
                  1000  0.0053257961529341
                   228   0.027060721042034
                 64.71    0.10165684614077
                 21.06     0.2745748236174
                 7.495    0.44829431892377
                 2.797    0.28490261071525
                0.5215   0.015194859206082
 s    8 1.00
                  6665  -0.00029326965268655
                  1000  -0.0023180354739745
                   228  -0.011499786038565
                 64.71  -0.046826727009787
                 21.06   -0.12846616875047
                 7.495   -0.30126627246289
                 2.797   -0.25563070233011
                0.5215      1.093793361012
 s    1 1.00
                0.1596                   1
 p    3 1.00
                 9.439   0.056979251590039
                 2.002    0.31320721150073
                0.5456    0.76037674173753
 p    1 1.00
                0.1517                   1
 d    1 1.00
                  0.55                   1

17 0
 s    3 1.00
                 13.01   0.033498726389998
                 1.962    0.23480080117413
                0.4446     0.8136829578829
 s    1 1.00
                 0.122                   1
 p    1 1.00
                 0.727                   1

18 0
 s    3 1.00
                 13.01   0.033498726389998
                 1.962    0.23480080117413
                0.4446     0.8136829578829
 s    1 1.00
                 0.122                   1
 p    1 1.00
                 0.727                   1

19 0
 s    8 1.00
                  6665  0.00069158396281299
                  1000  0.0053257961529341
                   228   0.027060721042034
                 64.71    0.10165684614077
                 21.06     0.2745748236174
                 7.495    0.44829431892377
                 2.797    0.28490261071525
                0.5215   0.015194859206082
 s    8 1.00
                  6665  -0.00029326965268655
                  1000  -0.0023180354739745
                   228  -0.011499786038565
                 64.71  -0.046826727009787
                 21.06   -0.12846616875047
                 7.495   -0.30126627246289
                 2.797   -0.25563070233011
                0.5215      1.093793361012
 s    1 1.00
                0.1596                   1
 p    3 1.00
                 9.439   0.056979251590039
                 2.002    0.31320721150073
                0.5456    0.76037674173753
 p    1 1.00
                0.1517                   1
 d    1 1.00
                  0.55                   1

20 0
 s    3 1.00
                 13.01   0.033498726389998
                 1.962    0.23480080117413
                0.4446     0.8136829578829
 s    1 1.00
                 0.122                   1
 p    1 1.00
                 0.727                   1

21 0
 s    8 1.00
                  6665  0.00069158396281299
                  1000  0.0053257961529341
                   228   0.027060721042034
                 64.71    0.10165684614077
                 21.06     0.2745748236174
                 7.495    0.44829431892377
                 2.797    0.28490261071525
                0.5215   0.015194859206082
 s    8 1.00
                  6665  -0.00029326965268655
                  1000  -0.0023180354739745
                   228  -0.011499786038565
                 64.71  -0.046826727009787
                 21.06   -0.12846616875047
                 7.495   -0.30126627246289
                 2.797   -0.25563070233011
                0.5215      1.093793361012
 s    1 1.00
                0.1596                   1
 p    3 1.00
                 9.439   0.056979251590039
                 2.002    0.31320721150073
                0.5456    0.76037674173753
 p    1 1.00
                0.1517                   1
 d    1 1.00
                  0.55                   1

22 0
 s    3 1.00
                 13.01   0.033498726389998
                 1.962    0.23480080117413
                0.4446     0.8136829578829
 s    1 1.00
                 0.122                   1
 p    1 1.00
                 0.727                   1

23 0
 s    3 1.00
                 13.01   0.033498726389998
                 1.962    0.23480080117413
                0.4446     0.8136829578829
 s    1 1.00
                 0.122                   1
 p    1 1.00
                 0.727                   1

24 0
 s    3 1.00
                 13.01   0.033498726389998
                 1.962    0.23480080117413
                0.4446     0.8136829578829
 s    1 1.00
                 0.122                   1
 p    1 1.00
                 0.727                   1

25 0
 s    8 1.00
                  6665  0.00069158396281299
                  1000  0.0053257961529341
                   228   0.027060721042034
                 64.71    0.10165684614077
                 21.06     0.2745748236174
                 7.495    0.44829431892377
                 2.797    0.28490261071525
                0.5215   0.015194859206082
 s    8 1.00
                  6665  -0.00029326965268655
                  1000  -0.0023180354739745
                   228  -0.011499786038565
                 64.71  -0.046826727009787
                 21.06   -0.12846616875047
                 7.495   -0.30126627246289
                 2.797   -0.25563070233011
                0.5215      1.093793361012
 s    1 1.00
                0.1596                   1
 p    3 1.00
                 9.439   0.056979251590039
                 2.002    0.31320721150073
                0.5456    0.76037674173753
 p    1 1.00
                0.1517                   1
 d    1 1.00
                  0.55                   1

26 0
 s    3 1.00
                 13.01   0.033498726389998
                 1.962    0.23480080117413
                0.4446     0.8136829578829
 s    1 1.00
                 0.122                   1
 p    1 1.00
                 0.727                   1

27 0
 s    3 1.00
                 13.01   0.033498726389998
                 1.962    0.23480080117413
                0.4446     0.8136829578829
 s    1 1.00
                 0.122                   1
 p    1 1.00
                 0.727                   1

28 0
 s    8 1.00
                  6665  0.00069158396281299
                  1000  0.0053257961529341
                   228   0.027060721042034
                 64.71    0.10165684614077
                 21.06     0.2745748236174
                 7.495    0.44829431892377
                 2.797    0.28490261071525
                0.5215   0.015194859206082
 s    8 1.00
                  6665  -0.00029326965268655
                  1000  -0.0023180354739745
                   228  -0.011499786038565
                 64.71  -0.046826727009787
                 21.06   -0.12846616875047
                 7.495   -0.30126627246289
                 2.797   -0.25563070233011
                0.5215      1.093793361012
 s    1 1.00
                0.1596                   1
 p    3 1.00
                 9.439   0.056979251590039
                 2.002    0.31320721150073
                0.5456    0.76037674173753
 p    1 1.00
                0.1517                   1
 d    1 1.00
                  0.55                   1

29 0
 s    3 1.00
                 13.01   0.033498726389998
                 1.962    0.23480080117413
                0.4446     0.8136829578829
 s    1 1.00
                 0.122                   1
 p    1 1.00
                 0.727                   1

30 0
 s    3 1.00
                 13.01   0.033498726389998
                 1.962    0.23480080117413
                0.4446     0.8136829578829
 s    1 1.00
                 0.122                   1
 p    1 1.00
                 0.727                   1

31 0
 s    8 1.00
                  6665  0.00069158396281299
                  1000  0.0053257961529341
                   228   0.027060721042034
                 64.71    0.10165684614077
                 21.06     0.2745748236174
                 7.495    0.44829431892377
                 2.797    0.28490261071525
                0.5215   0.015194859206082
 s    8 1.00
                  6665  -0.00029326965268655
                  1000  -0.0023180354739745
                   228  -0.011499786038565
                 64.71  -0.046826727009787
                 21.06   -0.12846616875047
                 7.495   -0.30126627246289
                 2.797   -0.25563070233011
                0.5215      1.093793361012
 s    1 1.00
                0.1596                   1
 p    3 1.00
                 9.439   0.056979251590039
                 2.002    0.31320721150073
                0.5456    0.76037674173753
 p    1 1.00
                0.1517                   1
 d    1 1.00
                  0.55                   1

32 0
 s    3 1.00
                 13.01   0.033498726389998
                 1.962    0.23480080117413
                0.4446     0.8136829578829
 s    1 1.00
                 0.122                   1
 p    1 1.00
                 0.727                   1

33 0
 s    3 1.00
                 13.01   0.033498726389998
                 1.962    0.23480080117413
                0.4446     0.8136829578829
 s    1 1.00
                 0.122                   1
 p    1 1.00
                 0.727                   1

34 0
 s    3 1.00
                 13.01   0.033498726389998
                 1.962    0.23480080117413
                0.4446     0.8136829578829
 s    1 1.00
                 0.122                   1
 p    1 1.00
                 0.727                   1

35 0
 s    3 1.00
                 13.01   0.033498726389998
                 1.962    0.23480080117413
                0.4446     0.8136829578829
 s    1 1.00
                 0.122                   1
 p    1 1.00
                 0.727                   1

36 0
 s    3 1.00
                 13.01   0.033498726389998
                 1.962    0.23480080117413
                0.4446     0.8136829578829
 s    1 1.00
                 0.122                   1
 p    1 1.00
                 0.727                   1

37 0
 s    3 1.00
                 13.01   0.033498726389998
                 1.962    0.23480080117413
                0.4446     0.8136829578829
 s    1 1.00
                 0.122                   1
 p    1 1.00
                 0.727                   1

[5d]
[7f]
[9g]

[MO]
 Sym= A
 Ene=               0
 Spin= Alpha
 Occup=    1.00000
   1    -7.0495780592217e-05
   2    -5.2572579082402e-05
   3    0.0001326663177505
   4    2.0550165399906e-08
   5    5.9468697859789e-06
   6    1.5765203908062e-05
   7    4.1750747335818e-07
   8    -2.5937748934759e-05
   9    -7.3498007423765e-05
  10    4.2419405952563e-06
  11    -9.8397678100888e-08
  12    3.659486400073e-07
  13    5.7597338687688e-07
  14    1.0006916393182e-08
  15    -2.1718211516077e-05
  16    -0.00021616411114923
  17    -4.1495027335875e-07
  18    2.2445892520141e-06
  19    1.4899357995915e-05
  20    -5.6381910692203e-06
  21    6.6863305355707e-05
  22    1.5086753333349e-07
  23    -2.5632968417377e-06
  24    -2.975847282741e-07
  25       1.0013774666882
  26    0.0019865872970463
  27    -0.006925235075048
  28    -5.1132354055711e-06
  29    1.0477294401284e-05
  30    -0.0016411556912962
  31    -3.2325259575031e-07
  32    -2.6963649968676e-06
  33    0.0019358350172597
  34    0.00011218462698038
  35    -2.8361246605634e-06
  36    1.4859518848919e-06
  37    6.6643760356723e-05
  38    -0.00017346184145458
  39    0.00028721296856064
  40    0.00040122963541917
  41    0.0015185841084101
  42    1.5909691774842e-05
  43    -9.9981518647814e-06
  44    1.9420992478027e-05
  45    8.2605104926525e-05
  46    -6.5565275701746e-05
  47    0.0036582890390729
  48    -0.00050946194534124
  49    -8.2356161175755e-06
  50    2.6073313379822e-06
  51    2.9883772256793e-05
  52    -0.00011030396246707
  53    -8.447396985985e-05
  54    -0.00016527574039289
  55    0.0013855623336198
  56    7.8538624713483e-05
  57    -7.2335688157264e-06
  58    -3.4528230331456e-05
  59    -0.00042719627812122
  60    0.00048177748414913
  61    -0.00096736084401729
  62    -0.00011622561741009
  63    0.00014979075918253
  64    -0.0001432484326133
  65    5.4323425572107e-05
  66    -0.00012740277159952
  67    -3.8719898054155e-05
  68    -9.5571818005221e-05
  69    0.00051824088937206
  70    -6.1906803701667e-05
  71    4.1004394229015e-05
  72    -6.1845623898398e-05
  73    0.0010155085892438
  74    -0.00078048374834468
  75    -0.00065871215837633
  76    -0.00013959081084469
  77    -0.00012123666557302
  78    8.9769409845209e-05
  79    5.837022320612e-05
  80    -0.00014999973376015
  81    -6.0054779245416e-05
  82    0.00021533651233775
  83    6.6847883873924e-05
  84    -4.9108924762382e-05
  85    4.748763672668e-05
  86    2.5071131266694e-05
  87    4.9019718866845e-05
  88    -0.00062051895820171
  89    -1.5692641761227e-05
  90    -1.7211204459445e-05
  91    1.137300479133e-05
  92    0.00026141093231268
  93    0.00064569900263893
  94    -1.2711809728044e-05
  95    1.8837588001819e-05
  96    1.1486750717949e-05
  97    7.9354989711883e-06
  98    -1.9629599068575e-05
  99    -4.7961080067391e-05
 100    -4.0376875884841e-05
 101    -0.00016407888837409
 102    6.9824095900059e-06
 103    -1.0561084471801e-05
 104    7.6767508406559e-05
 105    -1.9348262374002e-05
 106    -0.00020607735691371
 107    -6.3986546666707e-05
 108    8.6889009704738e-06
 109    7.6052437224829e-05
 110    7.7980841210704e-05
 111    -6.5007286594155e-05
 112    -4.4379701376768e-05
 113    1.9837061309841e-05
 114    7.1116601797435e-05
 115    -4.8522433828822e-05
 116    -9.8841884175212e-05
 117    0.00085275160551962
 118    -2.4708528253237e-05
 119    -1.1102762919261e-05
 120    3.2195096242434e-05
 121    0.00028545822692767
 122    3.6254356410886e-05
 123    -0.00015363220741892
 124    -6.1818757058386e-06
 125    1.1162247372104e-05
 126    1.4990491325078e-05
 127    -3.2168694930734e-05
 128    5.0651858971968e-05
 129    -1.9863387032861e-05
 130    -0.00033420331188388
 131    7.9825490456405e-06
 132    5.9806227592714e-06
 133    2.957240039322e-05
 134    2.5777546917724e-05
 135    -0.00011734736793096
 136    -1.3729775067246e-05
 137    -2.5058089557036e-05
 138    -2.7312477823878e-05
 139    -2.1881753380079e-05
 140    -3.9750540485374e-05
 141    0.00030190029477972
 142    7.8111876323698e-06
 143    -2.7628526170388e-06
 144    -6.1404578971418e-06
 145    -0.00023162159050545
 146    5.789804714114e-05
 147    6.0409881720367e-05
 148    -2.5454593963609e-06
 149    3.2490833180951e-06
 150    -4.3160505244458e-06
 151    1.2552580989801e-05
 152    -4.8436192648472e-06
 153    -9.7428824421493e-05
 154    -9.8860217070515e-05
 155    -2.6636653876513e-05
 156    2.8240339670875e-05
 157    1.9282533074325e-05
 158    -2.6079351059607e-05
 159    -8.7148550932907e-05
 160    -5.9105887301189e-05
 161    -7.2959880188952e-06
 162    6.6932452921342e-06
 163    -1.4007171021487e-06
 164    -3.6935386588458e-06
 165    -0.00025916246724619
 166    -1.8224991728113e-05
 167    1.4420328049131e-05
 168    7.2211997662202e-06
 169    0.00023342770762586
 170    -0.00020943374786719
 171    -0.00013884250365899
 172    -2.447225704543e-06
 173    1.0497268596894e-05
 174    -1.3417734986931e-05
 175    2.787082787975e-06
 176    -1.7984484591059e-05
 177    -1.6375850212901e-05
 178    8.6029252192049e-05
 179    -1.0960137768017e-06
 180    1.7194712989182e-06
 181    -4.7625851946097e-06
 182    1.5951436620178e-05
 183    2.8197660132106e-05
 184    -7.5544307976296e-05
 185    -4.6306557099267e-06
 186    3.8333707308917e-06
 187    5.3614731332743e-06
 188    0.00013026561914668
 189    -0.00010206550058083
 190    -8.966371674629e-05
 191    1.2143385780339e-06
 192    2.1943913280099e-06
 193    -7.7356504404397e-06
 194    -2.8592126816625e-06
 195    -5.5099412082352e-06
 196    -1.3439286098585e-05
 197    -1.9411629856396e-05
 198    5.6631909828132e-06
 199    1.9306176284112e-06
 200    -3.2875417660512e-06
 201    -1.2740938798786e-05
 202    2.7403189415776e-06
 203    -1.3416955784493e-05
 204    9.8205071566155e-06
 205    1.1811992460273e-05
 206    8.020068715318e-06
 207    6.7028669454591e-05
 208    -1.6057917791946e-05
 209    3.9172143121032e-06
 210    1.5881630936345e-05
 211    -1.2163458977098e-05
 212    -4.879005021102e-05
 213    0.00025439694248206
 214    1.5465718251215e-05
 215    2.0474955215357e-06
 216    -1.1399128171756e-05
 217    0.00019946716614854
 218    -5.0528961015038e-05
 219    -8.108689742119e-05
 220    -1.6135081317571e-06
 221    -1.6377366136957e-05
 222    6.0810263534821e-06
 223    9.6287952378338e-06
 224    -1.8998687523892e-06
 225    2.5932139018138e-05
 226    5.554343758583e-05
 227    -1.253887389344e-05
 228    -2.0839174243149e-06
 229    -9.6936687873522e-07
 230    1.0213254110885e-05
 231    5.4638792581201e-05
 232    -4.0778539932025e-06
 233    6.4410930350788e-06
 234    1.212733203434e-05
 235    5.6951449193597e-06
 236    2.3818099521107e-06
 237    -7.8334555000883e-05
 238    5.6568149794884e-06
 239    5.1863080210074e-06
 240    -3.3705114400244e-06
 241    3.7848539363038e-05
 242    -6.2101621765448e-05
 243    1.8335594716969e-05
 244    2.0258953941637e-06
 245    1.8160632872445e-06
 246    -2.1771660648107e-06
 247    2.3194330111409e-07
 248    9.0608597708747e-07
 249    -2.3405505123956e-05
 250    1.1560429703765e-05
 251    -3.8591393852302e-06
 252    -1.1952348509743e-07
 253    5.8408921215162e-07
 254    -3.387930042801e-05
 255    5.080594837559e-05
 256    -4.4437806435357e-07
 257    2.9151507447859e-06
 258    -1.1184234174965e-07
 259    -2.4137863944009e-06
 260    -1.904749560809e-05
 261    7.4031754615885e-05
 262    -7.6573806866848e-06