[Molden Format]
made by pyscf v[2.0.1]
[Atoms] (AU)
O   1   8     0.00000000000000     0.00000000000000    11.69764103529358
H   2   1     0.00000000000000     0.00000000000000     9.87423921339262
H   3   1    -0.05031916615174     1.78353065140343    12.07351273176025
O   4   8     0.00000000000000     0.00000000000000     2.31533471513237
C   5   6     0.00000000000000     0.00000000000000     0.00000000000000
C   6   6     2.01118073026938    -1.40227222164369    -1.50774939176400
C   7   6    -2.01249334291722     1.41331050329955    -1.50315905028694
H   8   1     3.32037363730244    -2.26721897153159    -0.13599698591495
C   9   6     3.45899267434009     0.28739631745591    -3.37437943254505
H   10   1     1.07662969841332    -2.94725144642667    -2.56541439481080
H   11   1    -2.67503415753480     0.18421555839588    -3.06194479365997
H   12   1    -1.07974048864772     3.03851734677796    -2.43674295017013
C   13   6    -4.21607110578555     2.32938802552922     0.11994162256091
H   14   1     4.24440173074564     1.93368664142019    -2.34976285512790
H   15   1     2.15020713235517     1.04714335134846    -4.81494497423699
C   16   6     5.60746363007797    -1.12419643481196    -4.70268606082550
H   17   1    -3.46838323670267     3.50951302338067     1.66946842715333
H   18   1    -5.11873485366228     0.68575958301209     1.04047743976495
C   19   6    -6.18314754751344     3.80909592987882    -1.39656589068747
H   20   1     6.93011263717176    -1.87550812453645    -3.26656317360070
C   21   6     7.06356622236532     0.52877932406334    -6.57829775293605
H   22   1     4.82318879258361    -2.78573437948532    -5.70504560381835
H   23   1    -6.91582688743803     2.61304780074712    -2.95074552451969
H   24   1    -5.26532430573853     5.45420349051338    -2.31005832200284
C   25   6    -8.39941882261433     4.73263980500213     0.21800571437956
H   26   1     7.83338371486801     2.19084139882824    -5.57093109900697
H   27   1     5.73544244039420     1.27376866537418    -8.01071492370229
C   28   6     9.21124858443101    -0.89699110072176    -7.88926949186242
H   29   1    -7.66272760055236     5.92277078003992     1.77035591474408
H   30   1    -9.31497248082589     3.08753015622020     1.12614408368786
C   31   6   -10.35481709231879     6.21833079391143    -1.30905206253246
H   32   1    10.58815905329501    -1.61074586756696    -6.49512691622620
H   33   1    10.23506248045667     0.32468009384095    -9.23072870921204
H   34   1     8.47665842847139    -2.53598436989925    -8.94921964622535
H   35   1    -9.48948872868064     7.90013588951020    -2.18823918416067
H   36   1   -11.93332513000955     6.86460487874102    -0.11255798845995
H   37   1   -11.15126291841033     5.04495968327630    -2.83849898862534
[GTO]
1 0
 s    8 1.00
                 11720  0.00070964594651845
                  1759  0.0054672722921914
                 400.8   0.027823118610189
                 113.7    0.10474773971146
                 37.03    0.28292084635691
                 13.27    0.44849523869833
                 5.025    0.27081688521277
                 1.013    0.01545029160744
 s    8 1.00
                 11720  -0.00031444341168873
                  1759  -0.0024821376810179
                 400.8  -0.012316355381583
                 113.7  -0.050538917343672
                 37.03   -0.13938490331632
                 13.27   -0.32507749481778
                 5.025   -0.22984830758785
                 1.013     1.0953793467883
 s    1 1.00
                0.3023                   1
 p    3 1.00
                  17.7   0.062679166281506
                 3.854    0.33353656587936
                 1.046    0.74123964163973
 p    1 1.00
                0.2753                   1
 d    1 1.00
                 1.185                   1

2 0
 s    3 1.00
                 13.01   0.033498726389998
                 1.962    0.23480080117413
                0.4446     0.8136829578829
 s    1 1.00
                 0.122                   1
 p    1 1.00
                 0.727                   1

3 0
 s    3 1.00
                 13.01   0.033498726389998
                 1.962    0.23480080117413
                0.4446     0.8136829578829
 s    1 1.00
                 0.122                   1
 p    1 1.00
                 0.727                   1

4 0
 s    8 1.00
                 11720  0.00070964594651845
                  1759  0.0054672722921914
                 400.8   0.027823118610189
                 113.7    0.10474773971146
                 37.03    0.28292084635691
                 13.27    0.44849523869833
                 5.025    0.27081688521277
                 1.013    0.01545029160744
 s    8 1.00
                 11720  -0.00031444341168873
                  1759  -0.0024821376810179
                 400.8  -0.012316355381583
                 113.7  -0.050538917343672
                 37.03   -0.13938490331632
                 13.27   -0.32507749481778
                 5.025   -0.22984830758785
                 1.013     1.0953793467883
 s    1 1.00
                0.3023                   1
 p    3 1.00
                  17.7   0.062679166281506
                 3.854    0.33353656587936
                 1.046    0.74123964163973
 p    1 1.00
                0.2753                   1
 d    1 1.00
                 1.185                   1

5 0
 s    8 1.00
                  6665  0.00069158396281299
                  1000  0.0053257961529341
                   228   0.027060721042034
                 64.71    0.10165684614077
                 21.06     0.2745748236174
                 7.495    0.44829431892377
                 2.797    0.28490261071525
                0.5215   0.015194859206082
 s    8 1.00
                  6665  -0.00029326965268655
                  1000  -0.0023180354739745
                   228  -0.011499786038565
                 64.71  -0.046826727009787
                 21.06   -0.12846616875047
                 7.495   -0.30126627246289
                 2.797   -0.25563070233011
                0.5215      1.093793361012
 s    1 1.00
                0.1596                   1
 p    3 1.00
                 9.439   0.056979251590039
                 2.002    0.31320721150073
                0.5456    0.76037674173753
 p    1 1.00
                0.1517                   1
 d    1 1.00
                  0.55                   1

6 0
 s    8 1.00
                  6665  0.00069158396281299
                  1000  0.0053257961529341
                   228   0.027060721042034
                 64.71    0.10165684614077
                 21.06     0.2745748236174
                 7.495    0.44829431892377
                 2.797    0.28490261071525
                0.5215   0.015194859206082
 s    8 1.00
                  6665  -0.00029326965268655
                  1000  -0.0023180354739745
                   228  -0.011499786038565
                 64.71  -0.046826727009787
                 21.06   -0.12846616875047
                 7.495   -0.30126627246289
                 2.797   -0.25563070233011
                0.5215      1.093793361012
 s    1 1.00
                0.1596                   1
 p    3 1.00
                 9.439   0.056979251590039
                 2.002    0.31320721150073
                0.5456    0.76037674173753
 p    1 1.00
                0.1517                   1
 d    1 1.00
                  0.55                   1

7 0
 s    8 1.00
                  6665  0.00069158396281299
                  1000  0.0053257961529341
                   228   0.027060721042034
                 64.71    0.10165684614077
                 21.06     0.2745748236174
                 7.495    0.44829431892377
                 2.797    0.28490261071525
                0.5215   0.015194859206082
 s    8 1.00
                  6665  -0.00029326965268655
                  1000  -0.0023180354739745
                   228  -0.011499786038565
                 64.71  -0.046826727009787
                 21.06   -0.12846616875047
                 7.495   -0.30126627246289
                 2.797   -0.25563070233011
                0.5215      1.093793361012
 s    1 1.00
                0.1596                   1
 p    3 1.00
                 9.439   0.056979251590039
                 2.002    0.31320721150073
                0.5456    0.76037674173753
 p    1 1.00
                0.1517                   1
 d    1 1.00
                  0.55                   1

8 0
 s    3 1.00
                 13.01   0.033498726389998
                 1.962    0.23480080117413
                0.4446     0.8136829578829
 s    1 1.00
                 0.122                   1
 p    1 1.00
                 0.727                   1

9 0
 s    8 1.00
                  6665  0.00069158396281299
                  1000  0.0053257961529341
                   228   0.027060721042034
                 64.71    0.10165684614077
                 21.06     0.2745748236174
                 7.495    0.44829431892377
                 2.797    0.28490261071525
                0.5215   0.015194859206082
 s    8 1.00
                  6665  -0.00029326965268655
                  1000  -0.0023180354739745
                   228  -0.011499786038565
                 64.71  -0.046826727009787
                 21.06   -0.12846616875047
                 7.495   -0.30126627246289
                 2.797   -0.25563070233011
                0.5215      1.093793361012
 s    1 1.00
                0.1596                   1
 p    3 1.00
                 9.439   0.056979251590039
                 2.002    0.31320721150073
                0.5456    0.76037674173753
 p    1 1.00
                0.1517                   1
 d    1 1.00
                  0.55                   1

10 0
 s    3 1.00
                 13.01   0.033498726389998
                 1.962    0.23480080117413
                0.4446     0.8136829578829
 s    1 1.00
                 0.122                   1
 p    1 1.00
                 0.727                   1

11 0
 s    3 1.00
                 13.01   0.033498726389998
                 1.962    0.23480080117413
                0.4446     0.8136829578829
 s    1 1.00
                 0.122                   1
 p    1 1.00
                 0.727                   1

12 0
 s    3 1.00
                 13.01   0.033498726389998
                 1.962    0.23480080117413
                0.4446     0.8136829578829
 s    1 1.00
                 0.122                   1
 p    1 1.00
                 0.727                   1

13 0
 s    8 1.00
                  6665  0.00069158396281299
                  1000  0.0053257961529341
                   228   0.027060721042034
                 64.71    0.10165684614077
                 21.06     0.2745748236174
                 7.495    0.44829431892377
                 2.797    0.28490261071525
                0.5215   0.015194859206082
 s    8 1.00
                  6665  -0.00029326965268655
                  1000  -0.0023180354739745
                   228  -0.011499786038565
                 64.71  -0.046826727009787
                 21.06   -0.12846616875047
                 7.495   -0.30126627246289
                 2.797   -0.25563070233011
                0.5215      1.093793361012
 s    1 1.00
                0.1596                   1
 p    3 1.00
                 9.439   0.056979251590039
                 2.002    0.31320721150073
                0.5456    0.76037674173753
 p    1 1.00
                0.1517                   1
 d    1 1.00
                  0.55                   1

14 0
 s    3 1.00
                 13.01   0.033498726389998
                 1.962    0.23480080117413
                0.4446     0.8136829578829
 s    1 1.00
                 0.122                   1
 p    1 1.00
                 0.727                   1

15 0
 s    3 1.00
                 13.01   0.033498726389998
                 1.962    0.23480080117413
                0.4446     0.8136829578829
 s    1 1.00
                 0.122                   1
 p    1 1.00
                 0.727                   1

16 0
 s    8 1.00
                  6665  0.00069158396281299
                  1000  0.0053257961529341
                   228   0.027060721042034
                 64.71    0.10165684614077
                 21.06     0.2745748236174
                 7.495    0.44829431892377
                 2.797    0.28490261071525
                0.5215   0.015194859206082
 s    8 1.00
                  6665  -0.00029326965268655
                  1000  -0.0023180354739745
                   228  -0.011499786038565
                 64.71  -0.046826727009787
                 21.06   -0.12846616875047
                 7.495   -0.30126627246289
                 2.797   -0.25563070233011
                0.5215      1.093793361012
 s    1 1.00
                0.1596                   1
 p    3 1.00
                 9.439   0.056979251590039
                 2.002    0.31320721150073
                0.5456    0.76037674173753
 p    1 1.00
                0.1517                   1
 d    1 1.00
                  0.55                   1

17 0
 s    3 1.00
                 13.01   0.033498726389998
                 1.962    0.23480080117413
                0.4446     0.8136829578829
 s    1 1.00
                 0.122                   1
 p    1 1.00
                 0.727                   1

18 0
 s    3 1.00
                 13.01   0.033498726389998
                 1.962    0.23480080117413
                0.4446     0.8136829578829
 s    1 1.00
                 0.122                   1
 p    1 1.00
                 0.727                   1

19 0
 s    8 1.00
                  6665  0.00069158396281299
                  1000  0.0053257961529341
                   228   0.027060721042034
                 64.71    0.10165684614077
                 21.06     0.2745748236174
                 7.495    0.44829431892377
                 2.797    0.28490261071525
                0.5215   0.015194859206082
 s    8 1.00
                  6665  -0.00029326965268655
                  1000  -0.0023180354739745
                   228  -0.011499786038565
                 64.71  -0.046826727009787
                 21.06   -0.12846616875047
                 7.495   -0.30126627246289
                 2.797   -0.25563070233011
                0.5215      1.093793361012
 s    1 1.00
                0.1596                   1
 p    3 1.00
                 9.439   0.056979251590039
                 2.002    0.31320721150073
                0.5456    0.76037674173753
 p    1 1.00
                0.1517                   1
 d    1 1.00
                  0.55                   1

20 0
 s    3 1.00
                 13.01   0.033498726389998
                 1.962    0.23480080117413
                0.4446     0.8136829578829
 s    1 1.00
                 0.122                   1
 p    1 1.00
                 0.727                   1

21 0
 s    8 1.00
                  6665  0.00069158396281299
                  1000  0.0053257961529341
                   228   0.027060721042034
                 64.71    0.10165684614077
                 21.06     0.2745748236174
                 7.495    0.44829431892377
                 2.797    0.28490261071525
                0.5215   0.015194859206082
 s    8 1.00
                  6665  -0.00029326965268655
                  1000  -0.0023180354739745
                   228  -0.011499786038565
                 64.71  -0.046826727009787
                 21.06   -0.12846616875047
                 7.495   -0.30126627246289
                 2.797   -0.25563070233011
                0.5215      1.093793361012
 s    1 1.00
                0.1596                   1
 p    3 1.00
                 9.439   0.056979251590039
                 2.002    0.31320721150073
                0.5456    0.76037674173753
 p    1 1.00
                0.1517                   1
 d    1 1.00
                  0.55                   1

22 0
 s    3 1.00
                 13.01   0.033498726389998
                 1.962    0.23480080117413
                0.4446     0.8136829578829
 s    1 1.00
                 0.122                   1
 p    1 1.00
                 0.727                   1

23 0
 s    3 1.00
                 13.01   0.033498726389998
                 1.962    0.23480080117413
                0.4446     0.8136829578829
 s    1 1.00
                 0.122                   1
 p    1 1.00
                 0.727                   1

24 0
 s    3 1.00
                 13.01   0.033498726389998
                 1.962    0.23480080117413
                0.4446     0.8136829578829
 s    1 1.00
                 0.122                   1
 p    1 1.00
                 0.727                   1

25 0
 s    8 1.00
                  6665  0.00069158396281299
                  1000  0.0053257961529341
                   228   0.027060721042034
                 64.71    0.10165684614077
                 21.06     0.2745748236174
                 7.495    0.44829431892377
                 2.797    0.28490261071525
                0.5215   0.015194859206082
 s    8 1.00
                  6665  -0.00029326965268655
                  1000  -0.0023180354739745
                   228  -0.011499786038565
                 64.71  -0.046826727009787
                 21.06   -0.12846616875047
                 7.495   -0.30126627246289
                 2.797   -0.25563070233011
                0.5215      1.093793361012
 s    1 1.00
                0.1596                   1
 p    3 1.00
                 9.439   0.056979251590039
                 2.002    0.31320721150073
                0.5456    0.76037674173753
 p    1 1.00
                0.1517                   1
 d    1 1.00
                  0.55                   1

26 0
 s    3 1.00
                 13.01   0.033498726389998
                 1.962    0.23480080117413
                0.4446     0.8136829578829
 s    1 1.00
                 0.122                   1
 p    1 1.00
                 0.727                   1

27 0
 s    3 1.00
                 13.01   0.033498726389998
                 1.962    0.23480080117413
                0.4446     0.8136829578829
 s    1 1.00
                 0.122                   1
 p    1 1.00
                 0.727                   1

28 0
 s    8 1.00
                  6665  0.00069158396281299
                  1000  0.0053257961529341
                   228   0.027060721042034
                 64.71    0.10165684614077
                 21.06     0.2745748236174
                 7.495    0.44829431892377
                 2.797    0.28490261071525
                0.5215   0.015194859206082
 s    8 1.00
                  6665  -0.00029326965268655
                  1000  -0.0023180354739745
                   228  -0.011499786038565
                 64.71  -0.046826727009787
                 21.06   -0.12846616875047
                 7.495   -0.30126627246289
                 2.797   -0.25563070233011
                0.5215      1.093793361012
 s    1 1.00
                0.1596                   1
 p    3 1.00
                 9.439   0.056979251590039
                 2.002    0.31320721150073
                0.5456    0.76037674173753
 p    1 1.00
                0.1517                   1
 d    1 1.00
                  0.55                   1

29 0
 s    3 1.00
                 13.01   0.033498726389998
                 1.962    0.23480080117413
                0.4446     0.8136829578829
 s    1 1.00
                 0.122                   1
 p    1 1.00
                 0.727                   1

30 0
 s    3 1.00
                 13.01   0.033498726389998
                 1.962    0.23480080117413
                0.4446     0.8136829578829
 s    1 1.00
                 0.122                   1
 p    1 1.00
                 0.727                   1

31 0
 s    8 1.00
                  6665  0.00069158396281299
                  1000  0.0053257961529341
                   228   0.027060721042034
                 64.71    0.10165684614077
                 21.06     0.2745748236174
                 7.495    0.44829431892377
                 2.797    0.28490261071525
                0.5215   0.015194859206082
 s    8 1.00
                  6665  -0.00029326965268655
                  1000  -0.0023180354739745
                   228  -0.011499786038565
                 64.71  -0.046826727009787
                 21.06   -0.12846616875047
                 7.495   -0.30126627246289
                 2.797   -0.25563070233011
                0.5215      1.093793361012
 s    1 1.00
                0.1596                   1
 p    3 1.00
                 9.439   0.056979251590039
                 2.002    0.31320721150073
                0.5456    0.76037674173753
 p    1 1.00
                0.1517                   1
 d    1 1.00
                  0.55                   1

32 0
 s    3 1.00
                 13.01   0.033498726389998
                 1.962    0.23480080117413
                0.4446     0.8136829578829
 s    1 1.00
                 0.122                   1
 p    1 1.00
                 0.727                   1

33 0
 s    3 1.00
                 13.01   0.033498726389998
                 1.962    0.23480080117413
                0.4446     0.8136829578829
 s    1 1.00
                 0.122                   1
 p    1 1.00
                 0.727                   1

34 0
 s    3 1.00
                 13.01   0.033498726389998
                 1.962    0.23480080117413
                0.4446     0.8136829578829
 s    1 1.00
                 0.122                   1
 p    1 1.00
                 0.727                   1

35 0
 s    3 1.00
                 13.01   0.033498726389998
                 1.962    0.23480080117413
                0.4446     0.8136829578829
 s    1 1.00
                 0.122                   1
 p    1 1.00
                 0.727                   1

36 0
 s    3 1.00
                 13.01   0.033498726389998
                 1.962    0.23480080117413
                0.4446     0.8136829578829
 s    1 1.00
                 0.122                   1
 p    1 1.00
                 0.727                   1

37 0
 s    3 1.00
                 13.01   0.033498726389998
                 1.962    0.23480080117413
                0.4446     0.8136829578829
 s    1 1.00
                 0.122                   1
 p    1 1.00
                 0.727                   1

[5d]
[7f]
[9g]

[MO]
 Sym= A
 Ene=               0
 Spin= Alpha
 Occup=    1.00000
   1    -1.8461266677903e-05
   2    -8.1104322549263e-06
   3    3.2737112961676e-05
   4    -3.239441819941e-08
   5    1.2337665802658e-06
   6    -3.5553741807373e-07
   7    2.2638519711255e-07
   8    -8.1622314355271e-06
   9    -2.5480274559338e-05
  10    4.8572987665535e-06
  11    9.6784786762415e-09
  12    -3.8839833677463e-07
  13    4.2100293421877e-07
  14    2.3411395710453e-08
  15    -3.6295006365563e-06
  16    -5.0090888241287e-05
  17    -1.8796276065199e-08
  18    5.1095342581816e-07
  19    -1.5694023692639e-05
  20    -1.7063251015728e-06
  21    2.140175015023e-05
  22    8.1980555713995e-08
  23    -2.8606954604902e-06
  24    6.6505848749304e-07
  25       1.0013572104786
  26    0.0019416184789558
  27    -0.0067486442505536
  28    -4.4592422675672e-06
  29    7.1534892465351e-06
  30    -0.0016625141476127
  31    -4.0515971760058e-07
  32    -9.8620713418689e-07
  33    0.0018023950137193
  34    0.00013187099711165
  35    -3.0556760138691e-06
  36    1.2992548182377e-06
  37    6.7819807174265e-05
  38    -0.00017667381675714
  39    0.00027060524169072
  40    0.00036530195515213
  41    0.0013851999519898
  42    1.4762774546111e-05
  43    -9.9359363861129e-06
  44    -1.7494360154081e-05
  45    8.2609095471137e-05
  46    -6.3149266092343e-05
  47    0.0035222479924549
  48    -0.0005430183877731
  49    -8.6397924403665e-06
  50    2.4936647078505e-06
  51    2.8370305448434e-05
  52    -0.00010650424814473
  53    -8.5120460678119e-05
  54    -0.00016651022902172
  55    0.0013644333764078
  56    7.8097405826591e-05
  57    -7.5308386637055e-06
  58    -3.6488233145695e-05
  59    -0.00042311451196755
  60    0.00047531430568814
  61    -0.00091664090793038
  62    -0.0001181461159608
  63    0.00015034365823549
  64    -0.00014285096986228
  65    5.5369016960296e-05
  66    -0.00013095289542749
  67    -4.0764319171358e-05
  68    -9.9273969235978e-05
  69     0.000510399138241
  70    -6.060789312458e-05
  71    3.9625501742063e-05
  72    -6.2866137228623e-05
  73    0.00099683941748734
  74    -0.00076859784854273
  75    -0.00063148437084885
  76    -0.0001417192202009
  77    -0.00012059417225159
  78    8.9661248451377e-05
  79    5.9327991934543e-05
  80    -0.00015269136013137
  81    -6.582309482416e-05
  82    0.00020571921792616
  83    6.5772692484762e-05
  84    -4.8294464411426e-05
  85    4.9341307646702e-05
  86    2.4968439721494e-05
  87    4.8942625717961e-05
  88    -0.00060043191330744
  89    -1.5943547027765e-05
  90    -1.7079946021336e-05
  91    1.2313467235559e-05
  92    0.00025531328100058
  93    0.00061957552489345
  94    -2.0183213140064e-05
  95    1.7883672414353e-05
  96    1.108522921236e-05
  97    7.0190356725089e-06
  98    -2.0922550483629e-05
  99    -4.5089909351578e-05
 100    -3.6348025224216e-05
 101    -0.00015676606773922
 102    9.8909100533713e-06
 103    -9.6305455624112e-06
 104    7.3871866193635e-05
 105    -1.7587894683792e-05
 106    -0.00019947851267341
 107    -6.4601139769195e-05
 108    1.1865232035304e-05
 109    7.4288666260586e-05
 110    7.7182757481875e-05
 111    -5.7090408004174e-05
 112    -4.5828611934427e-05
 113    1.8088451687141e-05
 114    6.9258905544195e-05
 115    -5.0099154728065e-05
 116    -0.00010191463796396
 117    0.0008377541344882
 118    -2.6515230938986e-05
 119    -9.7046485762604e-06
 120    3.2668924834451e-05
 121    0.00029982352703741
 122    2.8593459388681e-05
 123    -0.00013031009810866
 124    -6.4657448107858e-06
 125    1.2786636514029e-05
 126    1.6116528377431e-05
 127    -3.2208725412435e-05
 128    4.9799196694802e-05
 129    -1.8783213747636e-05
 130    -0.00031890222564636
 131     7.38273197515e-06
 132    5.8332223102707e-06
 133    2.9080519614754e-05
 134    2.5941156259566e-05
 135    -0.00011881540248433
 136    -1.3402317406744e-05
 137    -2.3822345179838e-05
 138    -2.6437619926289e-05
 139    -2.0979069443641e-05
 140    -3.8239749595092e-05
 141    0.00028320674013178
 142    7.9834450285577e-06
 143    -2.3947076460423e-06
 144    -6.2030709722107e-06
 145    -0.00022921102865932
 146    5.0270176365399e-05
 147    6.4992201569731e-05
 148    -2.3388118065027e-06
 149    3.0168282504877e-06
 150    -3.2978277146765e-06
 151    1.1780536737342e-05
 152    -4.9950628719505e-06
 153    -9.7110964149869e-05
 154    -0.00011683541398124
 155    -2.5622658088175e-05
 156    3.0370258223164e-05
 157    2.0800899534399e-05
 158    -2.5827822131861e-05
 159    -8.9936191642311e-05
 160    -5.9580652229182e-05
 161    -7.1075904108363e-06
 162    5.9440947759133e-06
 163    -2.7195854261508e-06
 164    -6.8723776565641e-06
 165    -0.00023263224603985
 166    -1.7523355610724e-05
 167    1.4153477978886e-05
 168    6.6920705929607e-06
 169    0.00023963526192597
 170    -0.00021534535071439
 171    -0.00012985593059121
 172    -3.0610149080759e-06
 173    1.0056234225523e-05
 174    -1.364102655472e-05
 175    3.3231589539187e-06
 176    -1.8494091788963e-05
 177    -1.5859736278877e-05
 178    8.2809626311357e-05
 179    -6.6809226453188e-07
 180    2.0448269381436e-06
 181    -5.0129761731496e-06
 182    1.4938387963492e-05
 183    2.6551850861833e-05
 184    -6.3287271734612e-05
 185    -4.8816432670151e-06
 186    3.441806730063e-06
 187    5.6136221458735e-06
 188    0.00012559696676514
 189    -0.00010227266262541
 190    -8.3261496431419e-05
 191    1.3020102171528e-06
 192    1.9415257006839e-06
 193    -7.711190261085e-06
 194    -3.0961201202435e-06
 195    -4.9745065838528e-06
 196    -1.3919549750324e-05
 197    -1.8390329074994e-05
 198    5.6374732910662e-06
 199    1.9736361688659e-06
 200    -3.6426105844229e-06
 201    -1.3543907089228e-05
 202     4.18932686673e-06
 203    -1.2911575874736e-05
 204    1.0121576889727e-05
 205    1.1812697703597e-05
 206    8.2922023057183e-06
 207    6.8358478330047e-05
 208    -1.6275240817218e-05
 209    3.9597799137946e-06
 210    1.5520242548143e-05
 211    -1.7668628034324e-05
 212    -3.0623015745976e-05
 213    0.00025200136731721
 214    4.7293329813545e-06
 215    -2.0309674717561e-06
 216    -6.1737846148676e-06
 217    0.00019610959764602
 218    -5.386971481736e-05
 219    -7.6294071750712e-05
 220    -1.9984700559517e-06
 221    -1.6590481871488e-05
 222    5.4830972420908e-06
 223    9.2250040706064e-06
 224    -1.7418686191096e-06
 225    2.5043865810413e-05
 226    5.3634736233265e-05
 227    -1.2172956568175e-05
 228    -1.8406848779856e-06
 229    -9.946813641016e-07
 230    9.5790789871649e-06
 231    5.4419025889955e-05
 232    -3.9254438743377e-06
 233    6.2499067826725e-06
 234    1.1923427225194e-05
 235    3.8275476248856e-07
 236    6.1986393714141e-07
 237    -7.8089308450987e-05
 238    2.3505815987215e-06
 239    1.9880239801168e-06
 240    -3.8046382776427e-06
 241    3.5001541985419e-05
 242    -6.2267687556998e-05
 243    1.7640636411437e-05
 244    1.871616790307e-06
 245    1.7890421596185e-06
 246    -1.9265990777843e-06
 247    1.7567767337271e-07
 248    9.2530707623218e-07
 249    -1.7991721362514e-05
 250    1.4021589942271e-05
 251    -4.6302049008923e-06
 252    -1.0284499411358e-06
 253    -2.9777907516143e-07
 254    -1.5712709353263e-05
 255    5.6060185197225e-05
 256    -1.5895739806232e-07
 257    4.4599323670732e-06
 258    -9.3358931760024e-07
 259    -1.1241931943156e-05
 260    -2.0007298122801e-05
 261    8.1881257028871e-05
 262    -3.2309976290084e-06