[Molden Format]
made by pyscf v[2.0.1]
[Atoms] (AU)
O   1   8     0.00000000000000     0.00000000000000     7.16229833633744
H   2   1     0.00000000000000     0.00000000000000     5.33889651443647
H   3   1    -0.05031916615174     1.78353065140343     7.53817003280410
O   4   8     0.00000000000000     0.00000000000000     2.31533471513237
C   5   6     0.00000000000000     0.00000000000000     0.00000000000000
C   6   6     2.01118073026938    -1.40227222164369    -1.50774939176400
C   7   6    -2.01249334291722     1.41331050329955    -1.50315905028694
H   8   1     3.32037363730244    -2.26721897153159    -0.13599698591495
C   9   6     3.45899267434009     0.28739631745591    -3.37437943254505
H   10   1     1.07662969841332    -2.94725144642667    -2.56541439481080
H   11   1    -2.67503415753480     0.18421555839588    -3.06194479365997
H   12   1    -1.07974048864772     3.03851734677796    -2.43674295017013
C   13   6    -4.21607110578555     2.32938802552922     0.11994162256091
H   14   1     4.24440173074564     1.93368664142019    -2.34976285512790
H   15   1     2.15020713235517     1.04714335134846    -4.81494497423699
C   16   6     5.60746363007797    -1.12419643481196    -4.70268606082550
H   17   1    -3.46838323670267     3.50951302338067     1.66946842715333
H   18   1    -5.11873485366228     0.68575958301209     1.04047743976495
C   19   6    -6.18314754751344     3.80909592987882    -1.39656589068747
H   20   1     6.93011263717176    -1.87550812453645    -3.26656317360070
C   21   6     7.06356622236532     0.52877932406334    -6.57829775293605
H   22   1     4.82318879258361    -2.78573437948532    -5.70504560381835
H   23   1    -6.91582688743803     2.61304780074712    -2.95074552451969
H   24   1    -5.26532430573853     5.45420349051338    -2.31005832200284
C   25   6    -8.39941882261433     4.73263980500213     0.21800571437956
H   26   1     7.83338371486801     2.19084139882824    -5.57093109900697
H   27   1     5.73544244039420     1.27376866537418    -8.01071492370229
C   28   6     9.21124858443101    -0.89699110072176    -7.88926949186242
H   29   1    -7.66272760055236     5.92277078003992     1.77035591474408
H   30   1    -9.31497248082589     3.08753015622020     1.12614408368786
C   31   6   -10.35481709231879     6.21833079391143    -1.30905206253246
H   32   1    10.58815905329501    -1.61074586756696    -6.49512691622620
H   33   1    10.23506248045667     0.32468009384095    -9.23072870921204
H   34   1     8.47665842847139    -2.53598436989925    -8.94921964622535
H   35   1    -9.48948872868064     7.90013588951020    -2.18823918416067
H   36   1   -11.93332513000955     6.86460487874102    -0.11255798845995
H   37   1   -11.15126291841033     5.04495968327630    -2.83849898862534
[GTO]
1 0
 s    8 1.00
                 11720  0.00070964594651845
                  1759  0.0054672722921914
                 400.8   0.027823118610189
                 113.7    0.10474773971146
                 37.03    0.28292084635691
                 13.27    0.44849523869833
                 5.025    0.27081688521277
                 1.013    0.01545029160744
 s    8 1.00
                 11720  -0.00031444341168873
                  1759  -0.0024821376810179
                 400.8  -0.012316355381583
                 113.7  -0.050538917343672
                 37.03   -0.13938490331632
                 13.27   -0.32507749481778
                 5.025   -0.22984830758785
                 1.013     1.0953793467883
 s    1 1.00
                0.3023                   1
 p    3 1.00
                  17.7   0.062679166281506
                 3.854    0.33353656587936
                 1.046    0.74123964163973
 p    1 1.00
                0.2753                   1
 d    1 1.00
                 1.185                   1

2 0
 s    3 1.00
                 13.01   0.033498726389998
                 1.962    0.23480080117413
                0.4446     0.8136829578829
 s    1 1.00
                 0.122                   1
 p    1 1.00
                 0.727                   1

3 0
 s    3 1.00
                 13.01   0.033498726389998
                 1.962    0.23480080117413
                0.4446     0.8136829578829
 s    1 1.00
                 0.122                   1
 p    1 1.00
                 0.727                   1

4 0
 s    8 1.00
                 11720  0.00070964594651845
                  1759  0.0054672722921914
                 400.8   0.027823118610189
                 113.7    0.10474773971146
                 37.03    0.28292084635691
                 13.27    0.44849523869833
                 5.025    0.27081688521277
                 1.013    0.01545029160744
 s    8 1.00
                 11720  -0.00031444341168873
                  1759  -0.0024821376810179
                 400.8  -0.012316355381583
                 113.7  -0.050538917343672
                 37.03   -0.13938490331632
                 13.27   -0.32507749481778
                 5.025   -0.22984830758785
                 1.013     1.0953793467883
 s    1 1.00
                0.3023                   1
 p    3 1.00
                  17.7   0.062679166281506
                 3.854    0.33353656587936
                 1.046    0.74123964163973
 p    1 1.00
                0.2753                   1
 d    1 1.00
                 1.185                   1

5 0
 s    8 1.00
                  6665  0.00069158396281299
                  1000  0.0053257961529341
                   228   0.027060721042034
                 64.71    0.10165684614077
                 21.06     0.2745748236174
                 7.495    0.44829431892377
                 2.797    0.28490261071525
                0.5215   0.015194859206082
 s    8 1.00
                  6665  -0.00029326965268655
                  1000  -0.0023180354739745
                   228  -0.011499786038565
                 64.71  -0.046826727009787
                 21.06   -0.12846616875047
                 7.495   -0.30126627246289
                 2.797   -0.25563070233011
                0.5215      1.093793361012
 s    1 1.00
                0.1596                   1
 p    3 1.00
                 9.439   0.056979251590039
                 2.002    0.31320721150073
                0.5456    0.76037674173753
 p    1 1.00
                0.1517                   1
 d    1 1.00
                  0.55                   1

6 0
 s    8 1.00
                  6665  0.00069158396281299
                  1000  0.0053257961529341
                   228   0.027060721042034
                 64.71    0.10165684614077
                 21.06     0.2745748236174
                 7.495    0.44829431892377
                 2.797    0.28490261071525
                0.5215   0.015194859206082
 s    8 1.00
                  6665  -0.00029326965268655
                  1000  -0.0023180354739745
                   228  -0.011499786038565
                 64.71  -0.046826727009787
                 21.06   -0.12846616875047
                 7.495   -0.30126627246289
                 2.797   -0.25563070233011
                0.5215      1.093793361012
 s    1 1.00
                0.1596                   1
 p    3 1.00
                 9.439   0.056979251590039
                 2.002    0.31320721150073
                0.5456    0.76037674173753
 p    1 1.00
                0.1517                   1
 d    1 1.00
                  0.55                   1

7 0
 s    8 1.00
                  6665  0.00069158396281299
                  1000  0.0053257961529341
                   228   0.027060721042034
                 64.71    0.10165684614077
                 21.06     0.2745748236174
                 7.495    0.44829431892377
                 2.797    0.28490261071525
                0.5215   0.015194859206082
 s    8 1.00
                  6665  -0.00029326965268655
                  1000  -0.0023180354739745
                   228  -0.011499786038565
                 64.71  -0.046826727009787
                 21.06   -0.12846616875047
                 7.495   -0.30126627246289
                 2.797   -0.25563070233011
                0.5215      1.093793361012
 s    1 1.00
                0.1596                   1
 p    3 1.00
                 9.439   0.056979251590039
                 2.002    0.31320721150073
                0.5456    0.76037674173753
 p    1 1.00
                0.1517                   1
 d    1 1.00
                  0.55                   1

8 0
 s    3 1.00
                 13.01   0.033498726389998
                 1.962    0.23480080117413
                0.4446     0.8136829578829
 s    1 1.00
                 0.122                   1
 p    1 1.00
                 0.727                   1

9 0
 s    8 1.00
                  6665  0.00069158396281299
                  1000  0.0053257961529341
                   228   0.027060721042034
                 64.71    0.10165684614077
                 21.06     0.2745748236174
                 7.495    0.44829431892377
                 2.797    0.28490261071525
                0.5215   0.015194859206082
 s    8 1.00
                  6665  -0.00029326965268655
                  1000  -0.0023180354739745
                   228  -0.011499786038565
                 64.71  -0.046826727009787
                 21.06   -0.12846616875047
                 7.495   -0.30126627246289
                 2.797   -0.25563070233011
                0.5215      1.093793361012
 s    1 1.00
                0.1596                   1
 p    3 1.00
                 9.439   0.056979251590039
                 2.002    0.31320721150073
                0.5456    0.76037674173753
 p    1 1.00
                0.1517                   1
 d    1 1.00
                  0.55                   1

10 0
 s    3 1.00
                 13.01   0.033498726389998
                 1.962    0.23480080117413
                0.4446     0.8136829578829
 s    1 1.00
                 0.122                   1
 p    1 1.00
                 0.727                   1

11 0
 s    3 1.00
                 13.01   0.033498726389998
                 1.962    0.23480080117413
                0.4446     0.8136829578829
 s    1 1.00
                 0.122                   1
 p    1 1.00
                 0.727                   1

12 0
 s    3 1.00
                 13.01   0.033498726389998
                 1.962    0.23480080117413
                0.4446     0.8136829578829
 s    1 1.00
                 0.122                   1
 p    1 1.00
                 0.727                   1

13 0
 s    8 1.00
                  6665  0.00069158396281299
                  1000  0.0053257961529341
                   228   0.027060721042034
                 64.71    0.10165684614077
                 21.06     0.2745748236174
                 7.495    0.44829431892377
                 2.797    0.28490261071525
                0.5215   0.015194859206082
 s    8 1.00
                  6665  -0.00029326965268655
                  1000  -0.0023180354739745
                   228  -0.011499786038565
                 64.71  -0.046826727009787
                 21.06   -0.12846616875047
                 7.495   -0.30126627246289
                 2.797   -0.25563070233011
                0.5215      1.093793361012
 s    1 1.00
                0.1596                   1
 p    3 1.00
                 9.439   0.056979251590039
                 2.002    0.31320721150073
                0.5456    0.76037674173753
 p    1 1.00
                0.1517                   1
 d    1 1.00
                  0.55                   1

14 0
 s    3 1.00
                 13.01   0.033498726389998
                 1.962    0.23480080117413
                0.4446     0.8136829578829
 s    1 1.00
                 0.122                   1
 p    1 1.00
                 0.727                   1

15 0
 s    3 1.00
                 13.01   0.033498726389998
                 1.962    0.23480080117413
                0.4446     0.8136829578829
 s    1 1.00
                 0.122                   1
 p    1 1.00
                 0.727                   1

16 0
 s    8 1.00
                  6665  0.00069158396281299
                  1000  0.0053257961529341
                   228   0.027060721042034
                 64.71    0.10165684614077
                 21.06     0.2745748236174
                 7.495    0.44829431892377
                 2.797    0.28490261071525
                0.5215   0.015194859206082
 s    8 1.00
                  6665  -0.00029326965268655
                  1000  -0.0023180354739745
                   228  -0.011499786038565
                 64.71  -0.046826727009787
                 21.06   -0.12846616875047
                 7.495   -0.30126627246289
                 2.797   -0.25563070233011
                0.5215      1.093793361012
 s    1 1.00
                0.1596                   1
 p    3 1.00
                 9.439   0.056979251590039
                 2.002    0.31320721150073
                0.5456    0.76037674173753
 p    1 1.00
                0.1517                   1
 d    1 1.00
                  0.55                   1

17 0
 s    3 1.00
                 13.01   0.033498726389998
                 1.962    0.23480080117413
                0.4446     0.8136829578829
 s    1 1.00
                 0.122                   1
 p    1 1.00
                 0.727                   1

18 0
 s    3 1.00
                 13.01   0.033498726389998
                 1.962    0.23480080117413
                0.4446     0.8136829578829
 s    1 1.00
                 0.122                   1
 p    1 1.00
                 0.727                   1

19 0
 s    8 1.00
                  6665  0.00069158396281299
                  1000  0.0053257961529341
                   228   0.027060721042034
                 64.71    0.10165684614077
                 21.06     0.2745748236174
                 7.495    0.44829431892377
                 2.797    0.28490261071525
                0.5215   0.015194859206082
 s    8 1.00
                  6665  -0.00029326965268655
                  1000  -0.0023180354739745
                   228  -0.011499786038565
                 64.71  -0.046826727009787
                 21.06   -0.12846616875047
                 7.495   -0.30126627246289
                 2.797   -0.25563070233011
                0.5215      1.093793361012
 s    1 1.00
                0.1596                   1
 p    3 1.00
                 9.439   0.056979251590039
                 2.002    0.31320721150073
                0.5456    0.76037674173753
 p    1 1.00
                0.1517                   1
 d    1 1.00
                  0.55                   1

20 0
 s    3 1.00
                 13.01   0.033498726389998
                 1.962    0.23480080117413
                0.4446     0.8136829578829
 s    1 1.00
                 0.122                   1
 p    1 1.00
                 0.727                   1

21 0
 s    8 1.00
                  6665  0.00069158396281299
                  1000  0.0053257961529341
                   228   0.027060721042034
                 64.71    0.10165684614077
                 21.06     0.2745748236174
                 7.495    0.44829431892377
                 2.797    0.28490261071525
                0.5215   0.015194859206082
 s    8 1.00
                  6665  -0.00029326965268655
                  1000  -0.0023180354739745
                   228  -0.011499786038565
                 64.71  -0.046826727009787
                 21.06   -0.12846616875047
                 7.495   -0.30126627246289
                 2.797   -0.25563070233011
                0.5215      1.093793361012
 s    1 1.00
                0.1596                   1
 p    3 1.00
                 9.439   0.056979251590039
                 2.002    0.31320721150073
                0.5456    0.76037674173753
 p    1 1.00
                0.1517                   1
 d    1 1.00
                  0.55                   1

22 0
 s    3 1.00
                 13.01   0.033498726389998
                 1.962    0.23480080117413
                0.4446     0.8136829578829
 s    1 1.00
                 0.122                   1
 p    1 1.00
                 0.727                   1

23 0
 s    3 1.00
                 13.01   0.033498726389998
                 1.962    0.23480080117413
                0.4446     0.8136829578829
 s    1 1.00
                 0.122                   1
 p    1 1.00
                 0.727                   1

24 0
 s    3 1.00
                 13.01   0.033498726389998
                 1.962    0.23480080117413
                0.4446     0.8136829578829
 s    1 1.00
                 0.122                   1
 p    1 1.00
                 0.727                   1

25 0
 s    8 1.00
                  6665  0.00069158396281299
                  1000  0.0053257961529341
                   228   0.027060721042034
                 64.71    0.10165684614077
                 21.06     0.2745748236174
                 7.495    0.44829431892377
                 2.797    0.28490261071525
                0.5215   0.015194859206082
 s    8 1.00
                  6665  -0.00029326965268655
                  1000  -0.0023180354739745
                   228  -0.011499786038565
                 64.71  -0.046826727009787
                 21.06   -0.12846616875047
                 7.495   -0.30126627246289
                 2.797   -0.25563070233011
                0.5215      1.093793361012
 s    1 1.00
                0.1596                   1
 p    3 1.00
                 9.439   0.056979251590039
                 2.002    0.31320721150073
                0.5456    0.76037674173753
 p    1 1.00
                0.1517                   1
 d    1 1.00
                  0.55                   1

26 0
 s    3 1.00
                 13.01   0.033498726389998
                 1.962    0.23480080117413
                0.4446     0.8136829578829
 s    1 1.00
                 0.122                   1
 p    1 1.00
                 0.727                   1

27 0
 s    3 1.00
                 13.01   0.033498726389998
                 1.962    0.23480080117413
                0.4446     0.8136829578829
 s    1 1.00
                 0.122                   1
 p    1 1.00
                 0.727                   1

28 0
 s    8 1.00
                  6665  0.00069158396281299
                  1000  0.0053257961529341
                   228   0.027060721042034
                 64.71    0.10165684614077
                 21.06     0.2745748236174
                 7.495    0.44829431892377
                 2.797    0.28490261071525
                0.5215   0.015194859206082
 s    8 1.00
                  6665  -0.00029326965268655
                  1000  -0.0023180354739745
                   228  -0.011499786038565
                 64.71  -0.046826727009787
                 21.06   -0.12846616875047
                 7.495   -0.30126627246289
                 2.797   -0.25563070233011
                0.5215      1.093793361012
 s    1 1.00
                0.1596                   1
 p    3 1.00
                 9.439   0.056979251590039
                 2.002    0.31320721150073
                0.5456    0.76037674173753
 p    1 1.00
                0.1517                   1
 d    1 1.00
                  0.55                   1

29 0
 s    3 1.00
                 13.01   0.033498726389998
                 1.962    0.23480080117413
                0.4446     0.8136829578829
 s    1 1.00
                 0.122                   1
 p    1 1.00
                 0.727                   1

30 0
 s    3 1.00
                 13.01   0.033498726389998
                 1.962    0.23480080117413
                0.4446     0.8136829578829
 s    1 1.00
                 0.122                   1
 p    1 1.00
                 0.727                   1

31 0
 s    8 1.00
                  6665  0.00069158396281299
                  1000  0.0053257961529341
                   228   0.027060721042034
                 64.71    0.10165684614077
                 21.06     0.2745748236174
                 7.495    0.44829431892377
                 2.797    0.28490261071525
                0.5215   0.015194859206082
 s    8 1.00
                  6665  -0.00029326965268655
                  1000  -0.0023180354739745
                   228  -0.011499786038565
                 64.71  -0.046826727009787
                 21.06   -0.12846616875047
                 7.495   -0.30126627246289
                 2.797   -0.25563070233011
                0.5215      1.093793361012
 s    1 1.00
                0.1596                   1
 p    3 1.00
                 9.439   0.056979251590039
                 2.002    0.31320721150073
                0.5456    0.76037674173753
 p    1 1.00
                0.1517                   1
 d    1 1.00
                  0.55                   1

32 0
 s    3 1.00
                 13.01   0.033498726389998
                 1.962    0.23480080117413
                0.4446     0.8136829578829
 s    1 1.00
                 0.122                   1
 p    1 1.00
                 0.727                   1

33 0
 s    3 1.00
                 13.01   0.033498726389998
                 1.962    0.23480080117413
                0.4446     0.8136829578829
 s    1 1.00
                 0.122                   1
 p    1 1.00
                 0.727                   1

34 0
 s    3 1.00
                 13.01   0.033498726389998
                 1.962    0.23480080117413
                0.4446     0.8136829578829
 s    1 1.00
                 0.122                   1
 p    1 1.00
                 0.727                   1

35 0
 s    3 1.00
                 13.01   0.033498726389998
                 1.962    0.23480080117413
                0.4446     0.8136829578829
 s    1 1.00
                 0.122                   1
 p    1 1.00
                 0.727                   1

36 0
 s    3 1.00
                 13.01   0.033498726389998
                 1.962    0.23480080117413
                0.4446     0.8136829578829
 s    1 1.00
                 0.122                   1
 p    1 1.00
                 0.727                   1

37 0
 s    3 1.00
                 13.01   0.033498726389998
                 1.962    0.23480080117413
                0.4446     0.8136829578829
 s    1 1.00
                 0.122                   1
 p    1 1.00
                 0.727                   1

[5d]
[7f]
[9g]

[MO]
 Sym= A
 Ene=               0
 Spin= Alpha
 Occup=    1.00000
   1    6.5627276408033e-05
   2    1.0325551274148e-05
   3    -3.605369185598e-05
   4    -7.9171773859593e-07
   5    -2.5497707260525e-06
   6    -8.614184620699e-06
   7    1.2173144598865e-06
   8    1.781323598271e-05
   9    -2.9472271041735e-05
  10    1.5652322861799e-05
  11    3.1769297726233e-07
  12    -2.9302350127849e-06
  13    -2.9051487850683e-06
  14    -1.0053460918206e-07
  15    3.6090885054503e-05
  16    0.00018805851141074
  17    1.3454705376067e-06
  18    -4.0697661882323e-06
  19    -3.510237633344e-05
  20    -1.385637793059e-05
  21    -1.9097374361716e-05
  22    -1.9774686547322e-07
  23    -4.0177406434592e-06
  24    9.353101593116e-06
  25       -1.001402739316
  26    -0.0020697525932249
  27    0.0070478187633416
  28    5.6604378024596e-06
  29    -1.5247690318336e-05
  30    0.0015975847656166
  31    -4.5470571575803e-07
  32    4.6651713873486e-06
  33    -0.0020618299017971
  34    -0.00010892140911477
  35    2.7098512003223e-06
  36    -1.3943687583799e-06
  37    -6.3699650023152e-05
  38    0.00016622051544031
  39    -0.00029927974349092
  40    -0.00042646900056472
  41    -0.0016425200847539
  42    -1.6555870871151e-05
  43    1.0151440800555e-05
  44    -4.6745191594105e-05
  45    -8.1894549915596e-05
  46    6.5646053004323e-05
  47    -0.0037721147404004
  48    0.0004850115820922
  49    8.0863364646515e-06
  50    -2.4656514590784e-06
  51    -3.1311855530172e-05
  52    0.00011415338923108
  53    8.3792017655999e-05
  54    0.00016410865446569
  55    -0.0013978108445315
  56    -7.9237980805969e-05
  57    7.2056095261632e-06
  58    3.3619850489217e-05
  59    0.00043002920545558
  60    -0.00048598132001528
  61    0.0010047719764379
  62    0.00011505205912916
  63    -0.0001502179363524
  64    0.00014410786052654
  65    -5.3842309636959e-05
  66    0.00012529792338769
  67    3.6666812121849e-05
  68    9.2131294878835e-05
  69    -0.00051294449331589
  70    6.3065099701263e-05
  71    -4.2294825235773e-05
  72     6.16812277165e-05
  73    -0.001030705284843
  74    0.00079142702381116
  75    0.00068487959578104
  76    0.00013846903402644
  77    0.00012209951982096
  78    -9.0042808933897e-05
  79    -5.7907480855461e-05
  80    0.00014846698156565
  81    5.6699530052581e-05
  82    -0.00022370078339827
  83    -6.7866080697918e-05
  84    4.9811889331379e-05
  85    -4.6354530416858e-05
  86    -2.4870089558796e-05
  87    -4.8689178442579e-05
  88    0.00063048072348503
  89    1.5558167571892e-05
  90    1.7395772563254e-05
  91    -1.102210695697e-05
  92    -0.00026552694454685
  93    -0.00066289826263453
  94    9.7043022773417e-06
  95    -1.9569909647038e-05
  96    -1.1595054509715e-05
  97    -8.4200021066721e-06
  98    1.8537229805724e-05
  99    5.0334799344069e-05
 100    4.2530188914967e-05
 101    0.00016955371940813
 102    -4.8249408547433e-06
 103    1.1046856829267e-05
 104    -7.8951730635625e-05
 105    2.0117795789406e-05
 106    0.00021071109553208
 107    6.3563408020191e-05
 108    -6.435517798077e-06
 109    -7.7992309942085e-05
 110    -7.9550169055545e-05
 111    7.0055200251969e-05
 112    4.3431166468006e-05
 113    -2.1034508102495e-05
 114    -7.2874332549904e-05
 115    4.8845475220787e-05
 116    9.9263018900773e-05
 117    -0.00087837002903422
 118    2.3711452194816e-05
 119    1.1998152557528e-05
 120    -3.182325516973e-05
 121    -0.00028316563795284
 122    -4.1990744090653e-05
 123    0.00016541298029371
 124    5.6220839224254e-06
 125    -9.9953580185497e-06
 126    -1.4937732145582e-05
 127    3.2594544042713e-05
 128    -5.2071346389529e-05
 129    2.0084023222197e-05
 130    0.00034489275016343
 131    -8.377991890785e-06
 132    -5.972081811611e-06
 133    -2.9940876782445e-05
 134    -2.5139719270238e-05
 135    0.00011756321912779
 136    1.4124453954882e-05
 137    2.5784981387977e-05
 138    2.785607405942e-05
 139    2.2300497553744e-05
 140    4.0567666197413e-05
 141    -0.00031214281939367
 142    -7.6587600535177e-06
 143    3.2362809075781e-06
 144    6.1099674568255e-06
 145    0.00023093507841333
 146    -6.2807638452349e-05
 147    -5.7710790013434e-05
 148    2.5997490297024e-06
 149    -3.560923168746e-06
 150    5.1323072249449e-06
 151    -1.3010906582953e-05
 152    4.6159850811104e-06
 153    9.9303904153984e-05
 154    9.4056622137527e-05
 155    2.673789374913e-05
 156    -2.7591474687635e-05
 157    -1.964648416762e-05
 158    2.6763768094812e-05
 159    8.6970655618738e-05
 160    5.9440459423299e-05
 161    7.9229944169451e-06
 162    -7.2499838843495e-06
 163    1.9446786858089e-07
 164    1.6378625161263e-06
 165    0.00027699679920332
 166    1.8473906546353e-05
 167    -1.4572981304593e-05
 168    -7.4126923279611e-06
 169    -0.00023011071367224
 170    0.00020861508020683
 171    0.00014477983867047
 172    2.1316985241903e-06
 173    -1.0519963491226e-05
 174    1.3495295791098e-05
 175    -2.612818569934e-06
 176    1.7902730534814e-05
 177    1.6903338701456e-05
 178    -8.74856632802e-05
 179    1.4361993437972e-06
 180    -1.4372362789008e-06
 181      4.5057969717e-06
 182    -1.6679863620114e-05
 183    -2.9453059591762e-05
 184    8.3927505688453e-05
 185    4.463297376044e-06
 186    -4.0493969065432e-06
 187    -5.2956119042368e-06
 188    -0.00013312503165147
 189    0.00010246029755971
 190    9.4694171347612e-05
 191    -1.0989477642014e-06
 192    -2.4331589127591e-06
 193    7.6514690957595e-06
 194    2.8422228089998e-06
 195    5.8855681564699e-06
 196    1.2698832315683e-05
 197    1.9710387043473e-05
 198    -5.6319961519237e-06
 199    -1.9351843170925e-06
 200    3.0813999706636e-06
 201    1.243423534107e-05
 202    -1.2724694572601e-06
 203    1.361322273404e-05
 204    -9.7290317997224e-06
 205    -1.1852972883394e-05
 206    -8.7082515435221e-06
 207    -6.8227602412262e-05
 208    1.5991891679724e-05
 209    -3.8590613779951e-06
 210    -1.6205426971697e-05
 211    1.1752729997308e-05
 212    4.8317320093896e-05
 213    -0.00026289941725604
 214    -1.535030664815e-05
 215    -2.5776992395409e-06
 216    1.1627091094915e-05
 217    -0.00020004808260084
 218    4.9372225874405e-05
 219    8.3423075518158e-05
 220    1.6745979667303e-06
 221    1.6408036055158e-05
 222    -6.0694315866206e-06
 223    -9.821478681685e-06
 224    2.0105024536623e-06
 225    -2.6980063798582e-05
 226    -5.7736869775357e-05
 227    1.2784929668407e-05
 228    2.2836827542962e-06
 229    9.5513064611313e-07
 230    -1.0541098667929e-05
 231    -5.4689594420394e-05
 232    4.1818221986916e-06
 233    -6.5944717170274e-06
 234    -1.2335888032316e-05
 235    -5.5699356076443e-06
 236    -2.3290924462673e-06
 237    7.986751207529e-05
 238    -5.082086159792e-06
 239    -4.1470244418771e-06
 240    2.6243623114061e-06
 241    -3.8993944819546e-05
 242    6.3318248901908e-05
 243    -1.8878549649634e-05
 244    -2.093140906993e-06
 245    -1.9674050820794e-06
 246    2.0732327467146e-06
 247    -1.6882201243368e-07
 248    -8.9682745557632e-07
 249    2.2771774726636e-05
 250    -1.0684275423157e-05
 251    3.824250741705e-06
 252    1.8731782762268e-07
 253    -6.4662897349021e-07
 254    3.3943136348945e-05
 255    -5.1679334250773e-05
 256    2.1749690819793e-07
 257    -2.9503367978234e-06
 258    8.1160749758835e-08
 259    2.5392856795154e-06
 260    1.8199793961352e-05
 261    -7.0678996190972e-05
 262    6.6685657036941e-06
 263    -1.1873816498654e-06