[Molden Format]
made by pyscf v[2.0.1]
[Atoms] (AU)
O   1   8     0.00000000000000     0.00000000000000     9.80791491072852
H   2   1     0.00000000000000     0.00000000000000     7.98451308882755
H   3   1    -0.05031916615174     1.78353065140343    10.18378660719519
O   4   8     0.00000000000000     0.00000000000000     2.31533471513237
C   5   6     0.00000000000000     0.00000000000000     0.00000000000000
C   6   6     2.01118073026938    -1.40227222164369    -1.50774939176400
C   7   6    -2.01249334291722     1.41331050329955    -1.50315905028694
H   8   1     3.32037363730244    -2.26721897153159    -0.13599698591495
C   9   6     3.45899267434009     0.28739631745591    -3.37437943254505
H   10   1     1.07662969841332    -2.94725144642667    -2.56541439481080
H   11   1    -2.67503415753480     0.18421555839588    -3.06194479365997
H   12   1    -1.07974048864772     3.03851734677796    -2.43674295017013
C   13   6    -4.21607110578555     2.32938802552922     0.11994162256091
H   14   1     4.24440173074564     1.93368664142019    -2.34976285512790
H   15   1     2.15020713235517     1.04714335134846    -4.81494497423699
C   16   6     5.60746363007797    -1.12419643481196    -4.70268606082550
H   17   1    -3.46838323670267     3.50951302338067     1.66946842715333
H   18   1    -5.11873485366228     0.68575958301209     1.04047743976495
C   19   6    -6.18314754751344     3.80909592987882    -1.39656589068747
H   20   1     6.93011263717176    -1.87550812453645    -3.26656317360070
C   21   6     7.06356622236532     0.52877932406334    -6.57829775293605
H   22   1     4.82318879258361    -2.78573437948532    -5.70504560381835
H   23   1    -6.91582688743803     2.61304780074712    -2.95074552451969
H   24   1    -5.26532430573853     5.45420349051338    -2.31005832200284
C   25   6    -8.39941882261433     4.73263980500213     0.21800571437956
H   26   1     7.83338371486801     2.19084139882824    -5.57093109900697
H   27   1     5.73544244039420     1.27376866537418    -8.01071492370229
C   28   6     9.21124858443101    -0.89699110072176    -7.88926949186242
H   29   1    -7.66272760055236     5.92277078003992     1.77035591474408
H   30   1    -9.31497248082589     3.08753015622020     1.12614408368786
C   31   6   -10.35481709231879     6.21833079391143    -1.30905206253246
H   32   1    10.58815905329501    -1.61074586756696    -6.49512691622620
H   33   1    10.23506248045667     0.32468009384095    -9.23072870921204
H   34   1     8.47665842847139    -2.53598436989925    -8.94921964622535
H   35   1    -9.48948872868064     7.90013588951020    -2.18823918416067
H   36   1   -11.93332513000955     6.86460487874102    -0.11255798845995
H   37   1   -11.15126291841033     5.04495968327630    -2.83849898862534
[GTO]
1 0
 s    8 1.00
                 11720  0.00070964594651845
                  1759  0.0054672722921914
                 400.8   0.027823118610189
                 113.7    0.10474773971146
                 37.03    0.28292084635691
                 13.27    0.44849523869833
                 5.025    0.27081688521277
                 1.013    0.01545029160744
 s    8 1.00
                 11720  -0.00031444341168873
                  1759  -0.0024821376810179
                 400.8  -0.012316355381583
                 113.7  -0.050538917343672
                 37.03   -0.13938490331632
                 13.27   -0.32507749481778
                 5.025   -0.22984830758785
                 1.013     1.0953793467883
 s    1 1.00
                0.3023                   1
 p    3 1.00
                  17.7   0.062679166281506
                 3.854    0.33353656587936
                 1.046    0.74123964163973
 p    1 1.00
                0.2753                   1
 d    1 1.00
                 1.185                   1

2 0
 s    3 1.00
                 13.01   0.033498726389998
                 1.962    0.23480080117413
                0.4446     0.8136829578829
 s    1 1.00
                 0.122                   1
 p    1 1.00
                 0.727                   1

3 0
 s    3 1.00
                 13.01   0.033498726389998
                 1.962    0.23480080117413
                0.4446     0.8136829578829
 s    1 1.00
                 0.122                   1
 p    1 1.00
                 0.727                   1

4 0
 s    8 1.00
                 11720  0.00070964594651845
                  1759  0.0054672722921914
                 400.8   0.027823118610189
                 113.7    0.10474773971146
                 37.03    0.28292084635691
                 13.27    0.44849523869833
                 5.025    0.27081688521277
                 1.013    0.01545029160744
 s    8 1.00
                 11720  -0.00031444341168873
                  1759  -0.0024821376810179
                 400.8  -0.012316355381583
                 113.7  -0.050538917343672
                 37.03   -0.13938490331632
                 13.27   -0.32507749481778
                 5.025   -0.22984830758785
                 1.013     1.0953793467883
 s    1 1.00
                0.3023                   1
 p    3 1.00
                  17.7   0.062679166281506
                 3.854    0.33353656587936
                 1.046    0.74123964163973
 p    1 1.00
                0.2753                   1
 d    1 1.00
                 1.185                   1

5 0
 s    8 1.00
                  6665  0.00069158396281299
                  1000  0.0053257961529341
                   228   0.027060721042034
                 64.71    0.10165684614077
                 21.06     0.2745748236174
                 7.495    0.44829431892377
                 2.797    0.28490261071525
                0.5215   0.015194859206082
 s    8 1.00
                  6665  -0.00029326965268655
                  1000  -0.0023180354739745
                   228  -0.011499786038565
                 64.71  -0.046826727009787
                 21.06   -0.12846616875047
                 7.495   -0.30126627246289
                 2.797   -0.25563070233011
                0.5215      1.093793361012
 s    1 1.00
                0.1596                   1
 p    3 1.00
                 9.439   0.056979251590039
                 2.002    0.31320721150073
                0.5456    0.76037674173753
 p    1 1.00
                0.1517                   1
 d    1 1.00
                  0.55                   1

6 0
 s    8 1.00
                  6665  0.00069158396281299
                  1000  0.0053257961529341
                   228   0.027060721042034
                 64.71    0.10165684614077
                 21.06     0.2745748236174
                 7.495    0.44829431892377
                 2.797    0.28490261071525
                0.5215   0.015194859206082
 s    8 1.00
                  6665  -0.00029326965268655
                  1000  -0.0023180354739745
                   228  -0.011499786038565
                 64.71  -0.046826727009787
                 21.06   -0.12846616875047
                 7.495   -0.30126627246289
                 2.797   -0.25563070233011
                0.5215      1.093793361012
 s    1 1.00
                0.1596                   1
 p    3 1.00
                 9.439   0.056979251590039
                 2.002    0.31320721150073
                0.5456    0.76037674173753
 p    1 1.00
                0.1517                   1
 d    1 1.00
                  0.55                   1

7 0
 s    8 1.00
                  6665  0.00069158396281299
                  1000  0.0053257961529341
                   228   0.027060721042034
                 64.71    0.10165684614077
                 21.06     0.2745748236174
                 7.495    0.44829431892377
                 2.797    0.28490261071525
                0.5215   0.015194859206082
 s    8 1.00
                  6665  -0.00029326965268655
                  1000  -0.0023180354739745
                   228  -0.011499786038565
                 64.71  -0.046826727009787
                 21.06   -0.12846616875047
                 7.495   -0.30126627246289
                 2.797   -0.25563070233011
                0.5215      1.093793361012
 s    1 1.00
                0.1596                   1
 p    3 1.00
                 9.439   0.056979251590039
                 2.002    0.31320721150073
                0.5456    0.76037674173753
 p    1 1.00
                0.1517                   1
 d    1 1.00
                  0.55                   1

8 0
 s    3 1.00
                 13.01   0.033498726389998
                 1.962    0.23480080117413
                0.4446     0.8136829578829
 s    1 1.00
                 0.122                   1
 p    1 1.00
                 0.727                   1

9 0
 s    8 1.00
                  6665  0.00069158396281299
                  1000  0.0053257961529341
                   228   0.027060721042034
                 64.71    0.10165684614077
                 21.06     0.2745748236174
                 7.495    0.44829431892377
                 2.797    0.28490261071525
                0.5215   0.015194859206082
 s    8 1.00
                  6665  -0.00029326965268655
                  1000  -0.0023180354739745
                   228  -0.011499786038565
                 64.71  -0.046826727009787
                 21.06   -0.12846616875047
                 7.495   -0.30126627246289
                 2.797   -0.25563070233011
                0.5215      1.093793361012
 s    1 1.00
                0.1596                   1
 p    3 1.00
                 9.439   0.056979251590039
                 2.002    0.31320721150073
                0.5456    0.76037674173753
 p    1 1.00
                0.1517                   1
 d    1 1.00
                  0.55                   1

10 0
 s    3 1.00
                 13.01   0.033498726389998
                 1.962    0.23480080117413
                0.4446     0.8136829578829
 s    1 1.00
                 0.122                   1
 p    1 1.00
                 0.727                   1

11 0
 s    3 1.00
                 13.01   0.033498726389998
                 1.962    0.23480080117413
                0.4446     0.8136829578829
 s    1 1.00
                 0.122                   1
 p    1 1.00
                 0.727                   1

12 0
 s    3 1.00
                 13.01   0.033498726389998
                 1.962    0.23480080117413
                0.4446     0.8136829578829
 s    1 1.00
                 0.122                   1
 p    1 1.00
                 0.727                   1

13 0
 s    8 1.00
                  6665  0.00069158396281299
                  1000  0.0053257961529341
                   228   0.027060721042034
                 64.71    0.10165684614077
                 21.06     0.2745748236174
                 7.495    0.44829431892377
                 2.797    0.28490261071525
                0.5215   0.015194859206082
 s    8 1.00
                  6665  -0.00029326965268655
                  1000  -0.0023180354739745
                   228  -0.011499786038565
                 64.71  -0.046826727009787
                 21.06   -0.12846616875047
                 7.495   -0.30126627246289
                 2.797   -0.25563070233011
                0.5215      1.093793361012
 s    1 1.00
                0.1596                   1
 p    3 1.00
                 9.439   0.056979251590039
                 2.002    0.31320721150073
                0.5456    0.76037674173753
 p    1 1.00
                0.1517                   1
 d    1 1.00
                  0.55                   1

14 0
 s    3 1.00
                 13.01   0.033498726389998
                 1.962    0.23480080117413
                0.4446     0.8136829578829
 s    1 1.00
                 0.122                   1
 p    1 1.00
                 0.727                   1

15 0
 s    3 1.00
                 13.01   0.033498726389998
                 1.962    0.23480080117413
                0.4446     0.8136829578829
 s    1 1.00
                 0.122                   1
 p    1 1.00
                 0.727                   1

16 0
 s    8 1.00
                  6665  0.00069158396281299
                  1000  0.0053257961529341
                   228   0.027060721042034
                 64.71    0.10165684614077
                 21.06     0.2745748236174
                 7.495    0.44829431892377
                 2.797    0.28490261071525
                0.5215   0.015194859206082
 s    8 1.00
                  6665  -0.00029326965268655
                  1000  -0.0023180354739745
                   228  -0.011499786038565
                 64.71  -0.046826727009787
                 21.06   -0.12846616875047
                 7.495   -0.30126627246289
                 2.797   -0.25563070233011
                0.5215      1.093793361012
 s    1 1.00
                0.1596                   1
 p    3 1.00
                 9.439   0.056979251590039
                 2.002    0.31320721150073
                0.5456    0.76037674173753
 p    1 1.00
                0.1517                   1
 d    1 1.00
                  0.55                   1

17 0
 s    3 1.00
                 13.01   0.033498726389998
                 1.962    0.23480080117413
                0.4446     0.8136829578829
 s    1 1.00
                 0.122                   1
 p    1 1.00
                 0.727                   1

18 0
 s    3 1.00
                 13.01   0.033498726389998
                 1.962    0.23480080117413
                0.4446     0.8136829578829
 s    1 1.00
                 0.122                   1
 p    1 1.00
                 0.727                   1

19 0
 s    8 1.00
                  6665  0.00069158396281299
                  1000  0.0053257961529341
                   228   0.027060721042034
                 64.71    0.10165684614077
                 21.06     0.2745748236174
                 7.495    0.44829431892377
                 2.797    0.28490261071525
                0.5215   0.015194859206082
 s    8 1.00
                  6665  -0.00029326965268655
                  1000  -0.0023180354739745
                   228  -0.011499786038565
                 64.71  -0.046826727009787
                 21.06   -0.12846616875047
                 7.495   -0.30126627246289
                 2.797   -0.25563070233011
                0.5215      1.093793361012
 s    1 1.00
                0.1596                   1
 p    3 1.00
                 9.439   0.056979251590039
                 2.002    0.31320721150073
                0.5456    0.76037674173753
 p    1 1.00
                0.1517                   1
 d    1 1.00
                  0.55                   1

20 0
 s    3 1.00
                 13.01   0.033498726389998
                 1.962    0.23480080117413
                0.4446     0.8136829578829
 s    1 1.00
                 0.122                   1
 p    1 1.00
                 0.727                   1

21 0
 s    8 1.00
                  6665  0.00069158396281299
                  1000  0.0053257961529341
                   228   0.027060721042034
                 64.71    0.10165684614077
                 21.06     0.2745748236174
                 7.495    0.44829431892377
                 2.797    0.28490261071525
                0.5215   0.015194859206082
 s    8 1.00
                  6665  -0.00029326965268655
                  1000  -0.0023180354739745
                   228  -0.011499786038565
                 64.71  -0.046826727009787
                 21.06   -0.12846616875047
                 7.495   -0.30126627246289
                 2.797   -0.25563070233011
                0.5215      1.093793361012
 s    1 1.00
                0.1596                   1
 p    3 1.00
                 9.439   0.056979251590039
                 2.002    0.31320721150073
                0.5456    0.76037674173753
 p    1 1.00
                0.1517                   1
 d    1 1.00
                  0.55                   1

22 0
 s    3 1.00
                 13.01   0.033498726389998
                 1.962    0.23480080117413
                0.4446     0.8136829578829
 s    1 1.00
                 0.122                   1
 p    1 1.00
                 0.727                   1

23 0
 s    3 1.00
                 13.01   0.033498726389998
                 1.962    0.23480080117413
                0.4446     0.8136829578829
 s    1 1.00
                 0.122                   1
 p    1 1.00
                 0.727                   1

24 0
 s    3 1.00
                 13.01   0.033498726389998
                 1.962    0.23480080117413
                0.4446     0.8136829578829
 s    1 1.00
                 0.122                   1
 p    1 1.00
                 0.727                   1

25 0
 s    8 1.00
                  6665  0.00069158396281299
                  1000  0.0053257961529341
                   228   0.027060721042034
                 64.71    0.10165684614077
                 21.06     0.2745748236174
                 7.495    0.44829431892377
                 2.797    0.28490261071525
                0.5215   0.015194859206082
 s    8 1.00
                  6665  -0.00029326965268655
                  1000  -0.0023180354739745
                   228  -0.011499786038565
                 64.71  -0.046826727009787
                 21.06   -0.12846616875047
                 7.495   -0.30126627246289
                 2.797   -0.25563070233011
                0.5215      1.093793361012
 s    1 1.00
                0.1596                   1
 p    3 1.00
                 9.439   0.056979251590039
                 2.002    0.31320721150073
                0.5456    0.76037674173753
 p    1 1.00
                0.1517                   1
 d    1 1.00
                  0.55                   1

26 0
 s    3 1.00
                 13.01   0.033498726389998
                 1.962    0.23480080117413
                0.4446     0.8136829578829
 s    1 1.00
                 0.122                   1
 p    1 1.00
                 0.727                   1

27 0
 s    3 1.00
                 13.01   0.033498726389998
                 1.962    0.23480080117413
                0.4446     0.8136829578829
 s    1 1.00
                 0.122                   1
 p    1 1.00
                 0.727                   1

28 0
 s    8 1.00
                  6665  0.00069158396281299
                  1000  0.0053257961529341
                   228   0.027060721042034
                 64.71    0.10165684614077
                 21.06     0.2745748236174
                 7.495    0.44829431892377
                 2.797    0.28490261071525
                0.5215   0.015194859206082
 s    8 1.00
                  6665  -0.00029326965268655
                  1000  -0.0023180354739745
                   228  -0.011499786038565
                 64.71  -0.046826727009787
                 21.06   -0.12846616875047
                 7.495   -0.30126627246289
                 2.797   -0.25563070233011
                0.5215      1.093793361012
 s    1 1.00
                0.1596                   1
 p    3 1.00
                 9.439   0.056979251590039
                 2.002    0.31320721150073
                0.5456    0.76037674173753
 p    1 1.00
                0.1517                   1
 d    1 1.00
                  0.55                   1

29 0
 s    3 1.00
                 13.01   0.033498726389998
                 1.962    0.23480080117413
                0.4446     0.8136829578829
 s    1 1.00
                 0.122                   1
 p    1 1.00
                 0.727                   1

30 0
 s    3 1.00
                 13.01   0.033498726389998
                 1.962    0.23480080117413
                0.4446     0.8136829578829
 s    1 1.00
                 0.122                   1
 p    1 1.00
                 0.727                   1

31 0
 s    8 1.00
                  6665  0.00069158396281299
                  1000  0.0053257961529341
                   228   0.027060721042034
                 64.71    0.10165684614077
                 21.06     0.2745748236174
                 7.495    0.44829431892377
                 2.797    0.28490261071525
                0.5215   0.015194859206082
 s    8 1.00
                  6665  -0.00029326965268655
                  1000  -0.0023180354739745
                   228  -0.011499786038565
                 64.71  -0.046826727009787
                 21.06   -0.12846616875047
                 7.495   -0.30126627246289
                 2.797   -0.25563070233011
                0.5215      1.093793361012
 s    1 1.00
                0.1596                   1
 p    3 1.00
                 9.439   0.056979251590039
                 2.002    0.31320721150073
                0.5456    0.76037674173753
 p    1 1.00
                0.1517                   1
 d    1 1.00
                  0.55                   1

32 0
 s    3 1.00
                 13.01   0.033498726389998
                 1.962    0.23480080117413
                0.4446     0.8136829578829
 s    1 1.00
                 0.122                   1
 p    1 1.00
                 0.727                   1

33 0
 s    3 1.00
                 13.01   0.033498726389998
                 1.962    0.23480080117413
                0.4446     0.8136829578829
 s    1 1.00
                 0.122                   1
 p    1 1.00
                 0.727                   1

34 0
 s    3 1.00
                 13.01   0.033498726389998
                 1.962    0.23480080117413
                0.4446     0.8136829578829
 s    1 1.00
                 0.122                   1
 p    1 1.00
                 0.727                   1

35 0
 s    3 1.00
                 13.01   0.033498726389998
                 1.962    0.23480080117413
                0.4446     0.8136829578829
 s    1 1.00
                 0.122                   1
 p    1 1.00
                 0.727                   1

36 0
 s    3 1.00
                 13.01   0.033498726389998
                 1.962    0.23480080117413
                0.4446     0.8136829578829
 s    1 1.00
                 0.122                   1
 p    1 1.00
                 0.727                   1

37 0
 s    3 1.00
                 13.01   0.033498726389998
                 1.962    0.23480080117413
                0.4446     0.8136829578829
 s    1 1.00
                 0.122                   1
 p    1 1.00
                 0.727                   1

[5d]
[7f]
[9g]

[MO]
 Sym= A
 Ene=               0
 Spin= Alpha
 Occup=    1.00000
   1    -5.162774141287e-05
   2    -3.5690971856741e-05
   3    0.00011892111627769
   4    -8.9795390184758e-08
   5    4.7773376210882e-06
   6    3.982766961893e-06
   7    5.8573447001007e-07
   8    -2.3307453993674e-05
   9    -8.157260493873e-05
  10    1.2763280361499e-05
  11    -1.3733469890068e-09
  12    -7.8546809962652e-07
  13    4.1391937511879e-07
  14    1.7303223557696e-08
  15    -1.5473521337926e-05
  16    -0.00017300138194875
  17    -1.3054321144243e-07
  18    1.5327605248919e-06
  19    -3.2974637150433e-05
  20    -7.5187753053927e-06
  21    6.4620780508969e-05
  22    1.8200696737057e-07
  23    -5.7186407762353e-06
  24    2.5420298719691e-06
  25       1.0013660751647
  26    0.0019605361770872
  27    -0.0068260863011791
  28    -4.780683906882e-06
  29    8.6705573751071e-06
  30    -0.0016524731504594
  31    -2.8449704752947e-07
  32    -1.650361361803e-06
  33    0.0018543369283609
  34    0.00012284194991068
  35    -2.9463890700712e-06
  36    1.384621042456e-06
  37    6.733733974832e-05
  38    -0.0001753330511199
  39    0.00027721536007382
  40    0.00037992560195029
  41    0.0014412086371104
  42    1.5295240469606e-05
  43    -9.9616074871403e-06
  44    -1.7879304419357e-06
  45    8.1518101374534e-05
  46    -6.3834835560542e-05
  47     0.003577576103203
  48    -0.00052830876523613
  49    -8.3934953481831e-06
  50    2.4811808419806e-06
  51    2.9047406215026e-05
  52    -0.00010811388445299
  53    -8.4907462760954e-05
  54    -0.00016609637690195
  55    0.0013739937691233
  56    7.8225289633174e-05
  57    -7.4183165221239e-06
  58    -3.562783193067e-05
  59    -0.00042415024223991
  60    0.00047789853161598
  61    -0.00093736117436245
  62    -0.0001172361412949
  63    0.00015003307939024
  64    -0.00014296434059809
  65    5.4895590484989e-05
  66    -0.00012936085444424
  67    -3.9868839076765e-05
  68    -9.7680653034502e-05
  69    0.00051296655985894
  70    -6.115085636793e-05
  71    4.0185854580632e-05
  72    -6.2455474767328e-05
  73    0.0010041227006784
  74    -0.0007725690004261
  75    -0.00064267784614241
  76    -0.00014065600842813
  77    -0.00012087047385167
  78    8.9710669670538e-05
  79    5.8827886705388e-05
  80    -0.00015139904636144
  81    -6.3375807437665e-05
  82    0.00020895026708687
  83    6.6231095529203e-05
  84    -4.8668133623631e-05
  85    4.8604412879339e-05
  86    2.5037219770678e-05
  87     4.90231128129e-05
  88    -0.00060931241813797
  89    -1.5794309905414e-05
  90    -1.7127396765325e-05
  91    1.1881593332982e-05
  92    0.00025771604761326
  93    0.00063056534330034
  94    -1.7053696744816e-05
  95    1.8257438439262e-05
  96    1.126555465631e-05
  97    7.4427333235304e-06
  98    -2.036596653945e-05
  99    -4.6269826573821e-05
 100    -3.8077304352967e-05
 101    -0.00015966375164141
 102    8.6301101204431e-06
 103    -1.0012693816039e-05
 104    7.5049377187738e-05
 105    -1.8300249082658e-05
 106    -0.00020207773177881
 107    -6.4277215700787e-05
 108    1.0461090235662e-05
 109    7.4957871172682e-05
 110    7.7404202584602e-05
 111    -6.0689893601473e-05
 112    -4.5176153273551e-05
 113    1.8838476959123e-05
 114    6.9974659015836e-05
 115    -4.9312965373688e-05
 116    -0.00010040621050349
 117    0.00084345354258056
 118    -2.565640664939e-05
 119    -1.0307753819818e-05
 120    3.2506608478005e-05
 121    0.00029169275151963
 122    3.185255802699e-05
 123    -0.00014204880996495
 124    -6.3836976712335e-06
 125    1.2110917973258e-05
 126    1.5389060765615e-05
 127    -3.2097366392181e-05
 128    4.9971800508232e-05
 129    -1.9222220904649e-05
 130    -0.00032526050402294
 131    7.6449096428374e-06
 132    5.8993836583506e-06
 133    2.9287618703039e-05
 134    2.5881329484594e-05
 135    -0.00011800126814494
 136    -1.3529034971631e-05
 137    -2.4357555758603e-05
 138    -2.677211676678e-05
 139    -2.1342125547303e-05
 140    -3.8886210302145e-05
 141    0.00029110957717306
 142    7.8852329887885e-06
 143    -2.5844981913761e-06
 144    -6.1361948750189e-06
 145    -0.00023025933614856
 146    5.3631754797372e-05
 147    6.3088094488822e-05
 148    -2.4343776206836e-06
 149    3.0893300075035e-06
 150    -3.7150552830776e-06
 151    1.2103236748901e-05
 152    -4.9290061155778e-06
 153    -9.679662531771e-05
 154    -0.0001074876111944
 155    -2.6138258537946e-05
 156    2.9236379214568e-05
 157    1.988926296939e-05
 158    -2.5738143705661e-05
 159    -8.8797740164026e-05
 160    -5.9244096594263e-05
 161    -7.1570700410332e-06
 162    6.3813829118603e-06
 163    -1.8437193353538e-06
 164    -5.3284209347114e-06
 165    -0.00024586494970807
 166    -1.7767219407495e-05
 167    1.4193751240181e-05
 168    6.768903983787e-06
 169    0.00023643093648889
 170    -0.00021176884735243
 171    -0.00013419702169048
 172    -2.7778985939142e-06
 173    9.9736632896192e-06
 174    -1.3509830216406e-05
 175    3.2444243071076e-06
 176    -1.8125777897213e-05
 177    -1.6078777390491e-05
 178    8.4288820797803e-05
 179    -8.7484204212629e-07
 180    1.9052795644622e-06
 181    -4.9133163395126e-06
 182    1.537321432689e-05
 183    2.7295408430233e-05
 184    -6.8525216605773e-05
 185    -4.7844535200045e-06
 186    3.5779248569491e-06
 187    5.5375124360166e-06
 188    0.00012757696570517
 189    -0.00010210832725957
 190    -8.6020509959704e-05
 191    1.2722687289085e-06
 192    2.0840893494687e-06
 193    -7.6685977628272e-06
 194    -3.0746658433819e-06
 195    -5.2054371661558e-06
 196    -1.3680718431313e-05
 197    -1.875595007993e-05
 198    5.6501199504404e-06
 199    1.9508337641026e-06
 200    -3.4835144966391e-06
 201    -1.3183650726448e-05
 202    3.328674391301e-06
 203    -1.3083866563508e-05
 204    9.9625580648901e-06
 205    1.177703359702e-05
 206    8.5009456954047e-06
 207    6.8065066011565e-05
 208    -1.6124284799997e-05
 209    3.9084538638539e-06
 210    1.5639762000304e-05
 211    -1.8020820630424e-05
 212    -3.1195168936527e-05
 213    0.00025793872392442
 214    5.0746656893075e-06
 215    -2.1266392009463e-06
 216    -6.2042821421894e-06
 217    0.00019532016744607
 218    -5.3442573211737e-05
 219    -7.7356377204334e-05
 220    -2.0206442387278e-06
 221    -1.6501117990094e-05
 222    5.4992011381069e-06
 223    9.2723797035999e-06
 224    -1.8042242939703e-06
 225    2.5564647449618e-05
 226    5.4624473903111e-05
 227    -1.2315454640917e-05
 228    -1.9429700012429e-06
 229    -9.8081297820364e-07
 230    9.799438382255e-06
 231    5.4332961391778e-05
 232    -3.9892632581058e-06
 233    6.3363716937416e-06
 234    1.1998195676891e-05
 235    4.1959908202104e-07
 236    6.9606497576903e-07
 237    -7.8519529361904e-05
 238    2.3145307573127e-06
 239    2.0205691543396e-06
 240    -3.7946565528005e-06
 241    3.5505356693135e-05
 242    -6.2826150812362e-05
 243    1.7875680626855e-05
 244    1.9134343699517e-06
 245    1.8276462230358e-06
 246    -1.9148117257793e-06
 247    1.6819285886485e-07
 248    9.3240746919191e-07
 249    -1.7918176094764e-05
 250    1.2335648761044e-05
 251    -4.5523908563104e-06
 252    -9.0438840742114e-07
 253    -1.2968610082278e-07
 254    -1.6030226621679e-05
 255    5.5887724029186e-05
 256    -1.6996392660854e-08
 257    4.3852603484905e-06
 258    -8.9242089518629e-07
 259    -1.0945518305885e-05
 260    -1.9511698440339e-05
 261    7.8267642895822e-05
 262    -3.3187928981969e-06