[Molden Format]
made by pyscf v[2.0.1]
[Atoms] (AU)
O   1   8     0.00000000000000     0.00000000000000    11.31969581038057
H   2   1     0.00000000000000     0.00000000000000     9.49629398847960
H   3   1    -0.05031916615174     1.78353065140343    11.69556750684724
O   4   8     0.00000000000000     0.00000000000000     2.31533471513237
C   5   6     0.00000000000000     0.00000000000000     0.00000000000000
C   6   6     2.01118073026938    -1.40227222164369    -1.50774939176400
C   7   6    -2.01249334291722     1.41331050329955    -1.50315905028694
H   8   1     3.32037363730244    -2.26721897153159    -0.13599698591495
C   9   6     3.45899267434009     0.28739631745591    -3.37437943254505
H   10   1     1.07662969841332    -2.94725144642667    -2.56541439481080
H   11   1    -2.67503415753480     0.18421555839588    -3.06194479365997
H   12   1    -1.07974048864772     3.03851734677796    -2.43674295017013
C   13   6    -4.21607110578555     2.32938802552922     0.11994162256091
H   14   1     4.24440173074564     1.93368664142019    -2.34976285512790
H   15   1     2.15020713235517     1.04714335134846    -4.81494497423699
C   16   6     5.60746363007797    -1.12419643481196    -4.70268606082550
H   17   1    -3.46838323670267     3.50951302338067     1.66946842715333
H   18   1    -5.11873485366228     0.68575958301209     1.04047743976495
C   19   6    -6.18314754751344     3.80909592987882    -1.39656589068747
H   20   1     6.93011263717176    -1.87550812453645    -3.26656317360070
C   21   6     7.06356622236532     0.52877932406334    -6.57829775293605
H   22   1     4.82318879258361    -2.78573437948532    -5.70504560381835
H   23   1    -6.91582688743803     2.61304780074712    -2.95074552451969
H   24   1    -5.26532430573853     5.45420349051338    -2.31005832200284
C   25   6    -8.39941882261433     4.73263980500213     0.21800571437956
H   26   1     7.83338371486801     2.19084139882824    -5.57093109900697
H   27   1     5.73544244039420     1.27376866537418    -8.01071492370229
C   28   6     9.21124858443101    -0.89699110072176    -7.88926949186242
H   29   1    -7.66272760055236     5.92277078003992     1.77035591474408
H   30   1    -9.31497248082589     3.08753015622020     1.12614408368786
C   31   6   -10.35481709231879     6.21833079391143    -1.30905206253246
H   32   1    10.58815905329501    -1.61074586756696    -6.49512691622620
H   33   1    10.23506248045667     0.32468009384095    -9.23072870921204
H   34   1     8.47665842847139    -2.53598436989925    -8.94921964622535
H   35   1    -9.48948872868064     7.90013588951020    -2.18823918416067
H   36   1   -11.93332513000955     6.86460487874102    -0.11255798845995
H   37   1   -11.15126291841033     5.04495968327630    -2.83849898862534
[GTO]
1 0
 s    8 1.00
                 11720  0.00070964594651845
                  1759  0.0054672722921914
                 400.8   0.027823118610189
                 113.7    0.10474773971146
                 37.03    0.28292084635691
                 13.27    0.44849523869833
                 5.025    0.27081688521277
                 1.013    0.01545029160744
 s    8 1.00
                 11720  -0.00031444341168873
                  1759  -0.0024821376810179
                 400.8  -0.012316355381583
                 113.7  -0.050538917343672
                 37.03   -0.13938490331632
                 13.27   -0.32507749481778
                 5.025   -0.22984830758785
                 1.013     1.0953793467883
 s    1 1.00
                0.3023                   1
 p    3 1.00
                  17.7   0.062679166281506
                 3.854    0.33353656587936
                 1.046    0.74123964163973
 p    1 1.00
                0.2753                   1
 d    1 1.00
                 1.185                   1

2 0
 s    3 1.00
                 13.01   0.033498726389998
                 1.962    0.23480080117413
                0.4446     0.8136829578829
 s    1 1.00
                 0.122                   1
 p    1 1.00
                 0.727                   1

3 0
 s    3 1.00
                 13.01   0.033498726389998
                 1.962    0.23480080117413
                0.4446     0.8136829578829
 s    1 1.00
                 0.122                   1
 p    1 1.00
                 0.727                   1

4 0
 s    8 1.00
                 11720  0.00070964594651845
                  1759  0.0054672722921914
                 400.8   0.027823118610189
                 113.7    0.10474773971146
                 37.03    0.28292084635691
                 13.27    0.44849523869833
                 5.025    0.27081688521277
                 1.013    0.01545029160744
 s    8 1.00
                 11720  -0.00031444341168873
                  1759  -0.0024821376810179
                 400.8  -0.012316355381583
                 113.7  -0.050538917343672
                 37.03   -0.13938490331632
                 13.27   -0.32507749481778
                 5.025   -0.22984830758785
                 1.013     1.0953793467883
 s    1 1.00
                0.3023                   1
 p    3 1.00
                  17.7   0.062679166281506
                 3.854    0.33353656587936
                 1.046    0.74123964163973
 p    1 1.00
                0.2753                   1
 d    1 1.00
                 1.185                   1

5 0
 s    8 1.00
                  6665  0.00069158396281299
                  1000  0.0053257961529341
                   228   0.027060721042034
                 64.71    0.10165684614077
                 21.06     0.2745748236174
                 7.495    0.44829431892377
                 2.797    0.28490261071525
                0.5215   0.015194859206082
 s    8 1.00
                  6665  -0.00029326965268655
                  1000  -0.0023180354739745
                   228  -0.011499786038565
                 64.71  -0.046826727009787
                 21.06   -0.12846616875047
                 7.495   -0.30126627246289
                 2.797   -0.25563070233011
                0.5215      1.093793361012
 s    1 1.00
                0.1596                   1
 p    3 1.00
                 9.439   0.056979251590039
                 2.002    0.31320721150073
                0.5456    0.76037674173753
 p    1 1.00
                0.1517                   1
 d    1 1.00
                  0.55                   1

6 0
 s    8 1.00
                  6665  0.00069158396281299
                  1000  0.0053257961529341
                   228   0.027060721042034
                 64.71    0.10165684614077
                 21.06     0.2745748236174
                 7.495    0.44829431892377
                 2.797    0.28490261071525
                0.5215   0.015194859206082
 s    8 1.00
                  6665  -0.00029326965268655
                  1000  -0.0023180354739745
                   228  -0.011499786038565
                 64.71  -0.046826727009787
                 21.06   -0.12846616875047
                 7.495   -0.30126627246289
                 2.797   -0.25563070233011
                0.5215      1.093793361012
 s    1 1.00
                0.1596                   1
 p    3 1.00
                 9.439   0.056979251590039
                 2.002    0.31320721150073
                0.5456    0.76037674173753
 p    1 1.00
                0.1517                   1
 d    1 1.00
                  0.55                   1

7 0
 s    8 1.00
                  6665  0.00069158396281299
                  1000  0.0053257961529341
                   228   0.027060721042034
                 64.71    0.10165684614077
                 21.06     0.2745748236174
                 7.495    0.44829431892377
                 2.797    0.28490261071525
                0.5215   0.015194859206082
 s    8 1.00
                  6665  -0.00029326965268655
                  1000  -0.0023180354739745
                   228  -0.011499786038565
                 64.71  -0.046826727009787
                 21.06   -0.12846616875047
                 7.495   -0.30126627246289
                 2.797   -0.25563070233011
                0.5215      1.093793361012
 s    1 1.00
                0.1596                   1
 p    3 1.00
                 9.439   0.056979251590039
                 2.002    0.31320721150073
                0.5456    0.76037674173753
 p    1 1.00
                0.1517                   1
 d    1 1.00
                  0.55                   1

8 0
 s    3 1.00
                 13.01   0.033498726389998
                 1.962    0.23480080117413
                0.4446     0.8136829578829
 s    1 1.00
                 0.122                   1
 p    1 1.00
                 0.727                   1

9 0
 s    8 1.00
                  6665  0.00069158396281299
                  1000  0.0053257961529341
                   228   0.027060721042034
                 64.71    0.10165684614077
                 21.06     0.2745748236174
                 7.495    0.44829431892377
                 2.797    0.28490261071525
                0.5215   0.015194859206082
 s    8 1.00
                  6665  -0.00029326965268655
                  1000  -0.0023180354739745
                   228  -0.011499786038565
                 64.71  -0.046826727009787
                 21.06   -0.12846616875047
                 7.495   -0.30126627246289
                 2.797   -0.25563070233011
                0.5215      1.093793361012
 s    1 1.00
                0.1596                   1
 p    3 1.00
                 9.439   0.056979251590039
                 2.002    0.31320721150073
                0.5456    0.76037674173753
 p    1 1.00
                0.1517                   1
 d    1 1.00
                  0.55                   1

10 0
 s    3 1.00
                 13.01   0.033498726389998
                 1.962    0.23480080117413
                0.4446     0.8136829578829
 s    1 1.00
                 0.122                   1
 p    1 1.00
                 0.727                   1

11 0
 s    3 1.00
                 13.01   0.033498726389998
                 1.962    0.23480080117413
                0.4446     0.8136829578829
 s    1 1.00
                 0.122                   1
 p    1 1.00
                 0.727                   1

12 0
 s    3 1.00
                 13.01   0.033498726389998
                 1.962    0.23480080117413
                0.4446     0.8136829578829
 s    1 1.00
                 0.122                   1
 p    1 1.00
                 0.727                   1

13 0
 s    8 1.00
                  6665  0.00069158396281299
                  1000  0.0053257961529341
                   228   0.027060721042034
                 64.71    0.10165684614077
                 21.06     0.2745748236174
                 7.495    0.44829431892377
                 2.797    0.28490261071525
                0.5215   0.015194859206082
 s    8 1.00
                  6665  -0.00029326965268655
                  1000  -0.0023180354739745
                   228  -0.011499786038565
                 64.71  -0.046826727009787
                 21.06   -0.12846616875047
                 7.495   -0.30126627246289
                 2.797   -0.25563070233011
                0.5215      1.093793361012
 s    1 1.00
                0.1596                   1
 p    3 1.00
                 9.439   0.056979251590039
                 2.002    0.31320721150073
                0.5456    0.76037674173753
 p    1 1.00
                0.1517                   1
 d    1 1.00
                  0.55                   1

14 0
 s    3 1.00
                 13.01   0.033498726389998
                 1.962    0.23480080117413
                0.4446     0.8136829578829
 s    1 1.00
                 0.122                   1
 p    1 1.00
                 0.727                   1

15 0
 s    3 1.00
                 13.01   0.033498726389998
                 1.962    0.23480080117413
                0.4446     0.8136829578829
 s    1 1.00
                 0.122                   1
 p    1 1.00
                 0.727                   1

16 0
 s    8 1.00
                  6665  0.00069158396281299
                  1000  0.0053257961529341
                   228   0.027060721042034
                 64.71    0.10165684614077
                 21.06     0.2745748236174
                 7.495    0.44829431892377
                 2.797    0.28490261071525
                0.5215   0.015194859206082
 s    8 1.00
                  6665  -0.00029326965268655
                  1000  -0.0023180354739745
                   228  -0.011499786038565
                 64.71  -0.046826727009787
                 21.06   -0.12846616875047
                 7.495   -0.30126627246289
                 2.797   -0.25563070233011
                0.5215      1.093793361012
 s    1 1.00
                0.1596                   1
 p    3 1.00
                 9.439   0.056979251590039
                 2.002    0.31320721150073
                0.5456    0.76037674173753
 p    1 1.00
                0.1517                   1
 d    1 1.00
                  0.55                   1

17 0
 s    3 1.00
                 13.01   0.033498726389998
                 1.962    0.23480080117413
                0.4446     0.8136829578829
 s    1 1.00
                 0.122                   1
 p    1 1.00
                 0.727                   1

18 0
 s    3 1.00
                 13.01   0.033498726389998
                 1.962    0.23480080117413
                0.4446     0.8136829578829
 s    1 1.00
                 0.122                   1
 p    1 1.00
                 0.727                   1

19 0
 s    8 1.00
                  6665  0.00069158396281299
                  1000  0.0053257961529341
                   228   0.027060721042034
                 64.71    0.10165684614077
                 21.06     0.2745748236174
                 7.495    0.44829431892377
                 2.797    0.28490261071525
                0.5215   0.015194859206082
 s    8 1.00
                  6665  -0.00029326965268655
                  1000  -0.0023180354739745
                   228  -0.011499786038565
                 64.71  -0.046826727009787
                 21.06   -0.12846616875047
                 7.495   -0.30126627246289
                 2.797   -0.25563070233011
                0.5215      1.093793361012
 s    1 1.00
                0.1596                   1
 p    3 1.00
                 9.439   0.056979251590039
                 2.002    0.31320721150073
                0.5456    0.76037674173753
 p    1 1.00
                0.1517                   1
 d    1 1.00
                  0.55                   1

20 0
 s    3 1.00
                 13.01   0.033498726389998
                 1.962    0.23480080117413
                0.4446     0.8136829578829
 s    1 1.00
                 0.122                   1
 p    1 1.00
                 0.727                   1

21 0
 s    8 1.00
                  6665  0.00069158396281299
                  1000  0.0053257961529341
                   228   0.027060721042034
                 64.71    0.10165684614077
                 21.06     0.2745748236174
                 7.495    0.44829431892377
                 2.797    0.28490261071525
                0.5215   0.015194859206082
 s    8 1.00
                  6665  -0.00029326965268655
                  1000  -0.0023180354739745
                   228  -0.011499786038565
                 64.71  -0.046826727009787
                 21.06   -0.12846616875047
                 7.495   -0.30126627246289
                 2.797   -0.25563070233011
                0.5215      1.093793361012
 s    1 1.00
                0.1596                   1
 p    3 1.00
                 9.439   0.056979251590039
                 2.002    0.31320721150073
                0.5456    0.76037674173753
 p    1 1.00
                0.1517                   1
 d    1 1.00
                  0.55                   1

22 0
 s    3 1.00
                 13.01   0.033498726389998
                 1.962    0.23480080117413
                0.4446     0.8136829578829
 s    1 1.00
                 0.122                   1
 p    1 1.00
                 0.727                   1

23 0
 s    3 1.00
                 13.01   0.033498726389998
                 1.962    0.23480080117413
                0.4446     0.8136829578829
 s    1 1.00
                 0.122                   1
 p    1 1.00
                 0.727                   1

24 0
 s    3 1.00
                 13.01   0.033498726389998
                 1.962    0.23480080117413
                0.4446     0.8136829578829
 s    1 1.00
                 0.122                   1
 p    1 1.00
                 0.727                   1

25 0
 s    8 1.00
                  6665  0.00069158396281299
                  1000  0.0053257961529341
                   228   0.027060721042034
                 64.71    0.10165684614077
                 21.06     0.2745748236174
                 7.495    0.44829431892377
                 2.797    0.28490261071525
                0.5215   0.015194859206082
 s    8 1.00
                  6665  -0.00029326965268655
                  1000  -0.0023180354739745
                   228  -0.011499786038565
                 64.71  -0.046826727009787
                 21.06   -0.12846616875047
                 7.495   -0.30126627246289
                 2.797   -0.25563070233011
                0.5215      1.093793361012
 s    1 1.00
                0.1596                   1
 p    3 1.00
                 9.439   0.056979251590039
                 2.002    0.31320721150073
                0.5456    0.76037674173753
 p    1 1.00
                0.1517                   1
 d    1 1.00
                  0.55                   1

26 0
 s    3 1.00
                 13.01   0.033498726389998
                 1.962    0.23480080117413
                0.4446     0.8136829578829
 s    1 1.00
                 0.122                   1
 p    1 1.00
                 0.727                   1

27 0
 s    3 1.00
                 13.01   0.033498726389998
                 1.962    0.23480080117413
                0.4446     0.8136829578829
 s    1 1.00
                 0.122                   1
 p    1 1.00
                 0.727                   1

28 0
 s    8 1.00
                  6665  0.00069158396281299
                  1000  0.0053257961529341
                   228   0.027060721042034
                 64.71    0.10165684614077
                 21.06     0.2745748236174
                 7.495    0.44829431892377
                 2.797    0.28490261071525
                0.5215   0.015194859206082
 s    8 1.00
                  6665  -0.00029326965268655
                  1000  -0.0023180354739745
                   228  -0.011499786038565
                 64.71  -0.046826727009787
                 21.06   -0.12846616875047
                 7.495   -0.30126627246289
                 2.797   -0.25563070233011
                0.5215      1.093793361012
 s    1 1.00
                0.1596                   1
 p    3 1.00
                 9.439   0.056979251590039
                 2.002    0.31320721150073
                0.5456    0.76037674173753
 p    1 1.00
                0.1517                   1
 d    1 1.00
                  0.55                   1

29 0
 s    3 1.00
                 13.01   0.033498726389998
                 1.962    0.23480080117413
                0.4446     0.8136829578829
 s    1 1.00
                 0.122                   1
 p    1 1.00
                 0.727                   1

30 0
 s    3 1.00
                 13.01   0.033498726389998
                 1.962    0.23480080117413
                0.4446     0.8136829578829
 s    1 1.00
                 0.122                   1
 p    1 1.00
                 0.727                   1

31 0
 s    8 1.00
                  6665  0.00069158396281299
                  1000  0.0053257961529341
                   228   0.027060721042034
                 64.71    0.10165684614077
                 21.06     0.2745748236174
                 7.495    0.44829431892377
                 2.797    0.28490261071525
                0.5215   0.015194859206082
 s    8 1.00
                  6665  -0.00029326965268655
                  1000  -0.0023180354739745
                   228  -0.011499786038565
                 64.71  -0.046826727009787
                 21.06   -0.12846616875047
                 7.495   -0.30126627246289
                 2.797   -0.25563070233011
                0.5215      1.093793361012
 s    1 1.00
                0.1596                   1
 p    3 1.00
                 9.439   0.056979251590039
                 2.002    0.31320721150073
                0.5456    0.76037674173753
 p    1 1.00
                0.1517                   1
 d    1 1.00
                  0.55                   1

32 0
 s    3 1.00
                 13.01   0.033498726389998
                 1.962    0.23480080117413
                0.4446     0.8136829578829
 s    1 1.00
                 0.122                   1
 p    1 1.00
                 0.727                   1

33 0
 s    3 1.00
                 13.01   0.033498726389998
                 1.962    0.23480080117413
                0.4446     0.8136829578829
 s    1 1.00
                 0.122                   1
 p    1 1.00
                 0.727                   1

34 0
 s    3 1.00
                 13.01   0.033498726389998
                 1.962    0.23480080117413
                0.4446     0.8136829578829
 s    1 1.00
                 0.122                   1
 p    1 1.00
                 0.727                   1

35 0
 s    3 1.00
                 13.01   0.033498726389998
                 1.962    0.23480080117413
                0.4446     0.8136829578829
 s    1 1.00
                 0.122                   1
 p    1 1.00
                 0.727                   1

36 0
 s    3 1.00
                 13.01   0.033498726389998
                 1.962    0.23480080117413
                0.4446     0.8136829578829
 s    1 1.00
                 0.122                   1
 p    1 1.00
                 0.727                   1

37 0
 s    3 1.00
                 13.01   0.033498726389998
                 1.962    0.23480080117413
                0.4446     0.8136829578829
 s    1 1.00
                 0.122                   1
 p    1 1.00
                 0.727                   1

[5d]
[7f]
[9g]

[MO]
 Sym= A
 Ene=               0
 Spin= Alpha
 Occup=    1.00000
   1    -2.3145928398407e-05
   2    -1.1548238704982e-05
   3    4.6072795121585e-05
   4    -4.4499054545647e-08
   5    1.7394532060847e-06
   6    -4.1855925915319e-07
   7    3.0215820725951e-07
   8    -1.0969258624342e-05
   9    -3.5205723679623e-05
  10    6.6798431107739e-06
  11    1.2001379985266e-08
  12    -5.1235379205086e-07
  13    5.1023080771499e-07
  14    2.8137523371957e-08
  15    -5.3555474421877e-06
  16    -6.932702985068e-05
  17    -2.7890292710853e-08
  18    6.8635331068914e-07
  19    -2.1340750470216e-05
  20    -2.5048800945622e-06
  21    2.9056983649808e-05
  22    1.0716783945914e-07
  23    -3.7152223275865e-06
  24    9.6994614102767e-07
  25       1.0013579470811
  26    0.0019432875053348
  27    -0.0067547206568191
  28    -4.5103479289501e-06
  29    7.374307510391e-06
  30    -0.001661001863116
  31    -3.6609954463013e-07
  32    -1.077105125538e-06
  33    0.0018056261696976
  34    0.00013106249531583
  35    -3.041186912434e-06
  36    1.308695742134e-06
  37    6.7751874677438e-05
  38    -0.00017649080483174
  39    0.00027103155071908
  40    0.00036630864835232
  41    0.0013891793494642
  42    1.4810739388244e-05
  43    -9.9371639742444e-06
  44    -1.6294536783716e-05
  45    8.2357307730481e-05
  46    -6.3095549795755e-05
  47    0.0035264523958071
  48    -0.00054169807701985
  49    -8.6060379029601e-06
  50    2.4805451471764e-06
  51    2.841501043657e-05
  52    -0.00010660121027062
  53    -8.5102920988666e-05
  54    -0.00016647086747228
  55    0.0013653518199764
  56    7.808410150207e-05
  57    -7.5111594591811e-06
  58    -3.640413122498e-05
  59    -0.00042323315627623
  60    0.0004755350353084
  61    -0.00091813725382176
  62    -0.00011806337189296
  63    0.00015028328030201
  64    -0.00014283097533575
  65    5.5327766423065e-05
  66    -0.00013081217258068
  67    -4.067706811768e-05
  68    -9.9115467685094e-05
  69    0.00051047081233016
  70    -6.0639292240923e-05
  71    3.9664213535776e-05
  72    -6.2822299570075e-05
  73    0.00099741326106307
  74    -0.0007688880634363
  75    -0.00063235719365669
  76    -0.00014161690476001
  77    -0.0001205910089839
  78    8.9648289609858e-05
  79    5.9273816668316e-05
  80    -0.00015256492018296
  81    -6.5611921624174e-05
  82    0.00020590963190244
  83    6.5807203489096e-05
  84    -4.8323474360413e-05
  85    4.927476008422e-05
  86    2.4972733121182e-05
  87    4.8945625438929e-05
  88    -0.00060114564972144
  89    -1.5929652228181e-05
  90    -1.7080828870448e-05
  91    1.2273569057538e-05
  92    0.00025545970753611
  93    0.00062043950701896
  94    -1.9905609561193e-05
  95    1.7909660355785e-05
  96    1.1098953183303e-05
  97    7.0560054405735e-06
  98    -2.087235424908e-05
  99    -4.5177287538056e-05
 100    -3.6496072370859e-05
 101    -0.00015696448409609
 102    9.7863929601953e-06
 103    -9.6582815211888e-06
 104    7.3958114820345e-05
 105    -1.7643563302731e-05
 106    -0.00019967244172115
 107    -6.4566611183774e-05
 108    1.1748831849763e-05
 109    7.4336028177843e-05
 110    7.7193942673548e-05
 111    -5.7369925386481e-05
 112    -4.5771337880822e-05
 113    1.8148260403598e-05
 114    6.9311888285314e-05
 115    -5.0037878907304e-05
 116    -0.00010179410683872
 117    0.0008383114304259
 118    -2.6436889666169e-05
 119    -9.7567593138429e-06
 120    3.2655261768176e-05
 121    0.00029906358202354
 122    2.8859761011283e-05
 123    -0.00013140116875939
 124    -6.4592064548464e-06
 125    1.2722759787861e-05
 126    1.6046558322608e-05
 127    -3.2190221817746e-05
 128    4.9800989350942e-05
 129    -1.8822761793341e-05
 130    -0.00031938801069603
 131    7.4044320942341e-06
 132    5.838419993476e-06
 133    2.9094271002308e-05
 134    2.5938992285611e-05
 135    -0.00011875347365469
 136    -1.3407271032685e-05
 137    -2.3864828760077e-05
 138    -2.6466604054364e-05
 139    -2.101061560655e-05
 140    -3.8295740598034e-05
 141    0.00028385970356405
 142    7.9761856322957e-06
 143    -2.4084488119295e-06
 144    -6.1976439049926e-06
 145    -0.000229336353368
 146    5.0536743443739e-05
 147    6.485677609061e-05
 148    -2.3471750316187e-06
 149    3.0190548491769e-06
 150    -3.3295282223524e-06
 151    1.1808046911943e-05
 152    -4.9904486639885e-06
 153    -9.7055302036557e-05
 154    -0.00011601253905592
 155    -2.5665434484088e-05
 156    3.0264950225263e-05
 157    2.0718498117639e-05
 158    -2.581101001025e-05
 159    -8.9869049536297e-05
 160    -5.95446448932e-05
 161    -7.1139253517019e-06
 162    5.9908954437742e-06
 163    -2.638227617691e-06
 164    -6.7297547667991e-06
 165    -0.0002338678169934
 166    -1.7545267812518e-05
 167    1.4156359520622e-05
 168    6.6951852355539e-06
 169    0.00023932041370151
 170    -0.00021497219242626
 171    -0.00013024987757071
 172    -3.0350340358341e-06
 173    1.0046730105036e-05
 174    -1.362667665742e-05
 175    3.3153878899908e-06
 176    -1.8455713768039e-05
 177    -1.5876679623075e-05
 178    8.2943438287533e-05
 179    -6.8514022061063e-07
 180    2.0352962793563e-06
 181    -5.0069282148426e-06
 182    1.4971177176807e-05
 183    2.6607743130914e-05
 184    -6.3688289429911e-05
 185    -4.8736537359855e-06
 186    3.4521276166733e-06
 187    5.6071458212602e-06
 188    0.00012574264998451
 189    -0.00010225321345897
 190    -8.3461752788174e-05
 191    1.3003961295811e-06
 192    1.9525488730573e-06
 193    -7.7079175970136e-06
 194    -3.0946898384926e-06
 195    -4.9922395656646e-06
 196    -1.3904475689605e-05
 197    -1.8421842711023e-05
 198    5.6401382179687e-06
 199    1.9718814332765e-06
 200    -3.6301977897059e-06
 201    -1.350636178593e-05
 202    4.1215614562137e-06
 203    -1.2925351904152e-05
 204    1.0106075095359e-05
 205    1.1809319404834e-05
 206    8.3088026545935e-06
 207    6.8316245855806e-05
 208    -1.625980051763e-05
 209    3.9545319405484e-06
 210    1.5528758736117e-05
 211    -1.7699463606367e-05
 212    -3.0673232972796e-05
 213    0.00025250394702373
 214    4.7575986894434e-06
 215    -2.0373997271848e-06
 216    -6.1771951928307e-06
 217    0.00019605833001543
 218    -5.3858430462269e-05
 219    -7.637770264051e-05
 220    -1.999996100318e-06
 221    -1.6583572270945e-05
 222    5.4860994267435e-06
 223    9.2286781442415e-06
 224    -1.7478727803683e-06
 225    2.5082299076169e-05
 226    5.3706047082596e-05
 227    -1.2183132278173e-05
 228    -1.8483724362954e-06
 229    -9.9375632746092e-07
 230    9.5954644707973e-06
 231    5.4413057553207e-05
 232    -3.9298273649132e-06
 233    6.2563183224773e-06
 234    1.1928209364799e-05
 235    3.8352524695728e-07
 236    6.2210458923544e-07
 237    -7.8103554548441e-05
 238    2.3479350724875e-06
 239    1.991000820629e-06
 240    -3.8039801383714e-06
 241    3.503159361464e-05
 242    -6.2311498064032e-05
 243    1.7665846699265e-05
 244    1.8749239521059e-06
 245    1.7912670058789e-06
 246    -1.9260580093532e-06
 247    1.7568808435041e-07
 248    9.2569164411834e-07
 249    -1.7986141330514e-05
 250    1.3879635344183e-05
 251    -4.6246368235627e-06
 252    -1.0159463805571e-06
 253    -2.8421998079002e-07
 254    -1.5743635187644e-05
 255    5.6045233642717e-05
 256    -1.4750882856695e-07
 257    4.4544630538715e-06
 258    -9.3117338864099e-07
 259    -1.1215537262977e-05
 260    -1.9962849442574e-05
 261    8.1584462017544e-05
 262    -3.2368048406636e-06