[Molden Format]
made by pyscf v[2.0.1]
[Atoms] (AU)
O   1   8     0.00000000000000     0.00000000000000     9.42996968581551
H   2   1     0.00000000000000     0.00000000000000     7.60656786391454
H   3   1    -0.05031916615174     1.78353065140343     9.80584138228218
O   4   8     0.00000000000000     0.00000000000000     2.31533471513237
C   5   6     0.00000000000000     0.00000000000000     0.00000000000000
C   6   6     2.01118073026938    -1.40227222164369    -1.50774939176400
C   7   6    -2.01249334291722     1.41331050329955    -1.50315905028694
H   8   1     3.32037363730244    -2.26721897153159    -0.13599698591495
C   9   6     3.45899267434009     0.28739631745591    -3.37437943254505
H   10   1     1.07662969841332    -2.94725144642667    -2.56541439481080
H   11   1    -2.67503415753480     0.18421555839588    -3.06194479365997
H   12   1    -1.07974048864772     3.03851734677796    -2.43674295017013
C   13   6    -4.21607110578555     2.32938802552922     0.11994162256091
H   14   1     4.24440173074564     1.93368664142019    -2.34976285512790
H   15   1     2.15020713235517     1.04714335134846    -4.81494497423699
C   16   6     5.60746363007797    -1.12419643481196    -4.70268606082550
H   17   1    -3.46838323670267     3.50951302338067     1.66946842715333
H   18   1    -5.11873485366228     0.68575958301209     1.04047743976495
C   19   6    -6.18314754751344     3.80909592987882    -1.39656589068747
H   20   1     6.93011263717176    -1.87550812453645    -3.26656317360070
C   21   6     7.06356622236532     0.52877932406334    -6.57829775293605
H   22   1     4.82318879258361    -2.78573437948532    -5.70504560381835
H   23   1    -6.91582688743803     2.61304780074712    -2.95074552451969
H   24   1    -5.26532430573853     5.45420349051338    -2.31005832200284
C   25   6    -8.39941882261433     4.73263980500213     0.21800571437956
H   26   1     7.83338371486801     2.19084139882824    -5.57093109900697
H   27   1     5.73544244039420     1.27376866537418    -8.01071492370229
C   28   6     9.21124858443101    -0.89699110072176    -7.88926949186242
H   29   1    -7.66272760055236     5.92277078003992     1.77035591474408
H   30   1    -9.31497248082589     3.08753015622020     1.12614408368786
C   31   6   -10.35481709231879     6.21833079391143    -1.30905206253246
H   32   1    10.58815905329501    -1.61074586756696    -6.49512691622620
H   33   1    10.23506248045667     0.32468009384095    -9.23072870921204
H   34   1     8.47665842847139    -2.53598436989925    -8.94921964622535
H   35   1    -9.48948872868064     7.90013588951020    -2.18823918416067
H   36   1   -11.93332513000955     6.86460487874102    -0.11255798845995
H   37   1   -11.15126291841033     5.04495968327630    -2.83849898862534
[GTO]
1 0
 s    8 1.00
                 11720  0.00070964594651845
                  1759  0.0054672722921914
                 400.8   0.027823118610189
                 113.7    0.10474773971146
                 37.03    0.28292084635691
                 13.27    0.44849523869833
                 5.025    0.27081688521277
                 1.013    0.01545029160744
 s    8 1.00
                 11720  -0.00031444341168873
                  1759  -0.0024821376810179
                 400.8  -0.012316355381583
                 113.7  -0.050538917343672
                 37.03   -0.13938490331632
                 13.27   -0.32507749481778
                 5.025   -0.22984830758785
                 1.013     1.0953793467883
 s    1 1.00
                0.3023                   1
 p    3 1.00
                  17.7   0.062679166281506
                 3.854    0.33353656587936
                 1.046    0.74123964163973
 p    1 1.00
                0.2753                   1
 d    1 1.00
                 1.185                   1

2 0
 s    3 1.00
                 13.01   0.033498726389998
                 1.962    0.23480080117413
                0.4446     0.8136829578829
 s    1 1.00
                 0.122                   1
 p    1 1.00
                 0.727                   1

3 0
 s    3 1.00
                 13.01   0.033498726389998
                 1.962    0.23480080117413
                0.4446     0.8136829578829
 s    1 1.00
                 0.122                   1
 p    1 1.00
                 0.727                   1

4 0
 s    8 1.00
                 11720  0.00070964594651845
                  1759  0.0054672722921914
                 400.8   0.027823118610189
                 113.7    0.10474773971146
                 37.03    0.28292084635691
                 13.27    0.44849523869833
                 5.025    0.27081688521277
                 1.013    0.01545029160744
 s    8 1.00
                 11720  -0.00031444341168873
                  1759  -0.0024821376810179
                 400.8  -0.012316355381583
                 113.7  -0.050538917343672
                 37.03   -0.13938490331632
                 13.27   -0.32507749481778
                 5.025   -0.22984830758785
                 1.013     1.0953793467883
 s    1 1.00
                0.3023                   1
 p    3 1.00
                  17.7   0.062679166281506
                 3.854    0.33353656587936
                 1.046    0.74123964163973
 p    1 1.00
                0.2753                   1
 d    1 1.00
                 1.185                   1

5 0
 s    8 1.00
                  6665  0.00069158396281299
                  1000  0.0053257961529341
                   228   0.027060721042034
                 64.71    0.10165684614077
                 21.06     0.2745748236174
                 7.495    0.44829431892377
                 2.797    0.28490261071525
                0.5215   0.015194859206082
 s    8 1.00
                  6665  -0.00029326965268655
                  1000  -0.0023180354739745
                   228  -0.011499786038565
                 64.71  -0.046826727009787
                 21.06   -0.12846616875047
                 7.495   -0.30126627246289
                 2.797   -0.25563070233011
                0.5215      1.093793361012
 s    1 1.00
                0.1596                   1
 p    3 1.00
                 9.439   0.056979251590039
                 2.002    0.31320721150073
                0.5456    0.76037674173753
 p    1 1.00
                0.1517                   1
 d    1 1.00
                  0.55                   1

6 0
 s    8 1.00
                  6665  0.00069158396281299
                  1000  0.0053257961529341
                   228   0.027060721042034
                 64.71    0.10165684614077
                 21.06     0.2745748236174
                 7.495    0.44829431892377
                 2.797    0.28490261071525
                0.5215   0.015194859206082
 s    8 1.00
                  6665  -0.00029326965268655
                  1000  -0.0023180354739745
                   228  -0.011499786038565
                 64.71  -0.046826727009787
                 21.06   -0.12846616875047
                 7.495   -0.30126627246289
                 2.797   -0.25563070233011
                0.5215      1.093793361012
 s    1 1.00
                0.1596                   1
 p    3 1.00
                 9.439   0.056979251590039
                 2.002    0.31320721150073
                0.5456    0.76037674173753
 p    1 1.00
                0.1517                   1
 d    1 1.00
                  0.55                   1

7 0
 s    8 1.00
                  6665  0.00069158396281299
                  1000  0.0053257961529341
                   228   0.027060721042034
                 64.71    0.10165684614077
                 21.06     0.2745748236174
                 7.495    0.44829431892377
                 2.797    0.28490261071525
                0.5215   0.015194859206082
 s    8 1.00
                  6665  -0.00029326965268655
                  1000  -0.0023180354739745
                   228  -0.011499786038565
                 64.71  -0.046826727009787
                 21.06   -0.12846616875047
                 7.495   -0.30126627246289
                 2.797   -0.25563070233011
                0.5215      1.093793361012
 s    1 1.00
                0.1596                   1
 p    3 1.00
                 9.439   0.056979251590039
                 2.002    0.31320721150073
                0.5456    0.76037674173753
 p    1 1.00
                0.1517                   1
 d    1 1.00
                  0.55                   1

8 0
 s    3 1.00
                 13.01   0.033498726389998
                 1.962    0.23480080117413
                0.4446     0.8136829578829
 s    1 1.00
                 0.122                   1
 p    1 1.00
                 0.727                   1

9 0
 s    8 1.00
                  6665  0.00069158396281299
                  1000  0.0053257961529341
                   228   0.027060721042034
                 64.71    0.10165684614077
                 21.06     0.2745748236174
                 7.495    0.44829431892377
                 2.797    0.28490261071525
                0.5215   0.015194859206082
 s    8 1.00
                  6665  -0.00029326965268655
                  1000  -0.0023180354739745
                   228  -0.011499786038565
                 64.71  -0.046826727009787
                 21.06   -0.12846616875047
                 7.495   -0.30126627246289
                 2.797   -0.25563070233011
                0.5215      1.093793361012
 s    1 1.00
                0.1596                   1
 p    3 1.00
                 9.439   0.056979251590039
                 2.002    0.31320721150073
                0.5456    0.76037674173753
 p    1 1.00
                0.1517                   1
 d    1 1.00
                  0.55                   1

10 0
 s    3 1.00
                 13.01   0.033498726389998
                 1.962    0.23480080117413
                0.4446     0.8136829578829
 s    1 1.00
                 0.122                   1
 p    1 1.00
                 0.727                   1

11 0
 s    3 1.00
                 13.01   0.033498726389998
                 1.962    0.23480080117413
                0.4446     0.8136829578829
 s    1 1.00
                 0.122                   1
 p    1 1.00
                 0.727                   1

12 0
 s    3 1.00
                 13.01   0.033498726389998
                 1.962    0.23480080117413
                0.4446     0.8136829578829
 s    1 1.00
                 0.122                   1
 p    1 1.00
                 0.727                   1

13 0
 s    8 1.00
                  6665  0.00069158396281299
                  1000  0.0053257961529341
                   228   0.027060721042034
                 64.71    0.10165684614077
                 21.06     0.2745748236174
                 7.495    0.44829431892377
                 2.797    0.28490261071525
                0.5215   0.015194859206082
 s    8 1.00
                  6665  -0.00029326965268655
                  1000  -0.0023180354739745
                   228  -0.011499786038565
                 64.71  -0.046826727009787
                 21.06   -0.12846616875047
                 7.495   -0.30126627246289
                 2.797   -0.25563070233011
                0.5215      1.093793361012
 s    1 1.00
                0.1596                   1
 p    3 1.00
                 9.439   0.056979251590039
                 2.002    0.31320721150073
                0.5456    0.76037674173753
 p    1 1.00
                0.1517                   1
 d    1 1.00
                  0.55                   1

14 0
 s    3 1.00
                 13.01   0.033498726389998
                 1.962    0.23480080117413
                0.4446     0.8136829578829
 s    1 1.00
                 0.122                   1
 p    1 1.00
                 0.727                   1

15 0
 s    3 1.00
                 13.01   0.033498726389998
                 1.962    0.23480080117413
                0.4446     0.8136829578829
 s    1 1.00
                 0.122                   1
 p    1 1.00
                 0.727                   1

16 0
 s    8 1.00
                  6665  0.00069158396281299
                  1000  0.0053257961529341
                   228   0.027060721042034
                 64.71    0.10165684614077
                 21.06     0.2745748236174
                 7.495    0.44829431892377
                 2.797    0.28490261071525
                0.5215   0.015194859206082
 s    8 1.00
                  6665  -0.00029326965268655
                  1000  -0.0023180354739745
                   228  -0.011499786038565
                 64.71  -0.046826727009787
                 21.06   -0.12846616875047
                 7.495   -0.30126627246289
                 2.797   -0.25563070233011
                0.5215      1.093793361012
 s    1 1.00
                0.1596                   1
 p    3 1.00
                 9.439   0.056979251590039
                 2.002    0.31320721150073
                0.5456    0.76037674173753
 p    1 1.00
                0.1517                   1
 d    1 1.00
                  0.55                   1

17 0
 s    3 1.00
                 13.01   0.033498726389998
                 1.962    0.23480080117413
                0.4446     0.8136829578829
 s    1 1.00
                 0.122                   1
 p    1 1.00
                 0.727                   1

18 0
 s    3 1.00
                 13.01   0.033498726389998
                 1.962    0.23480080117413
                0.4446     0.8136829578829
 s    1 1.00
                 0.122                   1
 p    1 1.00
                 0.727                   1

19 0
 s    8 1.00
                  6665  0.00069158396281299
                  1000  0.0053257961529341
                   228   0.027060721042034
                 64.71    0.10165684614077
                 21.06     0.2745748236174
                 7.495    0.44829431892377
                 2.797    0.28490261071525
                0.5215   0.015194859206082
 s    8 1.00
                  6665  -0.00029326965268655
                  1000  -0.0023180354739745
                   228  -0.011499786038565
                 64.71  -0.046826727009787
                 21.06   -0.12846616875047
                 7.495   -0.30126627246289
                 2.797   -0.25563070233011
                0.5215      1.093793361012
 s    1 1.00
                0.1596                   1
 p    3 1.00
                 9.439   0.056979251590039
                 2.002    0.31320721150073
                0.5456    0.76037674173753
 p    1 1.00
                0.1517                   1
 d    1 1.00
                  0.55                   1

20 0
 s    3 1.00
                 13.01   0.033498726389998
                 1.962    0.23480080117413
                0.4446     0.8136829578829
 s    1 1.00
                 0.122                   1
 p    1 1.00
                 0.727                   1

21 0
 s    8 1.00
                  6665  0.00069158396281299
                  1000  0.0053257961529341
                   228   0.027060721042034
                 64.71    0.10165684614077
                 21.06     0.2745748236174
                 7.495    0.44829431892377
                 2.797    0.28490261071525
                0.5215   0.015194859206082
 s    8 1.00
                  6665  -0.00029326965268655
                  1000  -0.0023180354739745
                   228  -0.011499786038565
                 64.71  -0.046826727009787
                 21.06   -0.12846616875047
                 7.495   -0.30126627246289
                 2.797   -0.25563070233011
                0.5215      1.093793361012
 s    1 1.00
                0.1596                   1
 p    3 1.00
                 9.439   0.056979251590039
                 2.002    0.31320721150073
                0.5456    0.76037674173753
 p    1 1.00
                0.1517                   1
 d    1 1.00
                  0.55                   1

22 0
 s    3 1.00
                 13.01   0.033498726389998
                 1.962    0.23480080117413
                0.4446     0.8136829578829
 s    1 1.00
                 0.122                   1
 p    1 1.00
                 0.727                   1

23 0
 s    3 1.00
                 13.01   0.033498726389998
                 1.962    0.23480080117413
                0.4446     0.8136829578829
 s    1 1.00
                 0.122                   1
 p    1 1.00
                 0.727                   1

24 0
 s    3 1.00
                 13.01   0.033498726389998
                 1.962    0.23480080117413
                0.4446     0.8136829578829
 s    1 1.00
                 0.122                   1
 p    1 1.00
                 0.727                   1

25 0
 s    8 1.00
                  6665  0.00069158396281299
                  1000  0.0053257961529341
                   228   0.027060721042034
                 64.71    0.10165684614077
                 21.06     0.2745748236174
                 7.495    0.44829431892377
                 2.797    0.28490261071525
                0.5215   0.015194859206082
 s    8 1.00
                  6665  -0.00029326965268655
                  1000  -0.0023180354739745
                   228  -0.011499786038565
                 64.71  -0.046826727009787
                 21.06   -0.12846616875047
                 7.495   -0.30126627246289
                 2.797   -0.25563070233011
                0.5215      1.093793361012
 s    1 1.00
                0.1596                   1
 p    3 1.00
                 9.439   0.056979251590039
                 2.002    0.31320721150073
                0.5456    0.76037674173753
 p    1 1.00
                0.1517                   1
 d    1 1.00
                  0.55                   1

26 0
 s    3 1.00
                 13.01   0.033498726389998
                 1.962    0.23480080117413
                0.4446     0.8136829578829
 s    1 1.00
                 0.122                   1
 p    1 1.00
                 0.727                   1

27 0
 s    3 1.00
                 13.01   0.033498726389998
                 1.962    0.23480080117413
                0.4446     0.8136829578829
 s    1 1.00
                 0.122                   1
 p    1 1.00
                 0.727                   1

28 0
 s    8 1.00
                  6665  0.00069158396281299
                  1000  0.0053257961529341
                   228   0.027060721042034
                 64.71    0.10165684614077
                 21.06     0.2745748236174
                 7.495    0.44829431892377
                 2.797    0.28490261071525
                0.5215   0.015194859206082
 s    8 1.00
                  6665  -0.00029326965268655
                  1000  -0.0023180354739745
                   228  -0.011499786038565
                 64.71  -0.046826727009787
                 21.06   -0.12846616875047
                 7.495   -0.30126627246289
                 2.797   -0.25563070233011
                0.5215      1.093793361012
 s    1 1.00
                0.1596                   1
 p    3 1.00
                 9.439   0.056979251590039
                 2.002    0.31320721150073
                0.5456    0.76037674173753
 p    1 1.00
                0.1517                   1
 d    1 1.00
                  0.55                   1

29 0
 s    3 1.00
                 13.01   0.033498726389998
                 1.962    0.23480080117413
                0.4446     0.8136829578829
 s    1 1.00
                 0.122                   1
 p    1 1.00
                 0.727                   1

30 0
 s    3 1.00
                 13.01   0.033498726389998
                 1.962    0.23480080117413
                0.4446     0.8136829578829
 s    1 1.00
                 0.122                   1
 p    1 1.00
                 0.727                   1

31 0
 s    8 1.00
                  6665  0.00069158396281299
                  1000  0.0053257961529341
                   228   0.027060721042034
                 64.71    0.10165684614077
                 21.06     0.2745748236174
                 7.495    0.44829431892377
                 2.797    0.28490261071525
                0.5215   0.015194859206082
 s    8 1.00
                  6665  -0.00029326965268655
                  1000  -0.0023180354739745
                   228  -0.011499786038565
                 64.71  -0.046826727009787
                 21.06   -0.12846616875047
                 7.495   -0.30126627246289
                 2.797   -0.25563070233011
                0.5215      1.093793361012
 s    1 1.00
                0.1596                   1
 p    3 1.00
                 9.439   0.056979251590039
                 2.002    0.31320721150073
                0.5456    0.76037674173753
 p    1 1.00
                0.1517                   1
 d    1 1.00
                  0.55                   1

32 0
 s    3 1.00
                 13.01   0.033498726389998
                 1.962    0.23480080117413
                0.4446     0.8136829578829
 s    1 1.00
                 0.122                   1
 p    1 1.00
                 0.727                   1

33 0
 s    3 1.00
                 13.01   0.033498726389998
                 1.962    0.23480080117413
                0.4446     0.8136829578829
 s    1 1.00
                 0.122                   1
 p    1 1.00
                 0.727                   1

34 0
 s    3 1.00
                 13.01   0.033498726389998
                 1.962    0.23480080117413
                0.4446     0.8136829578829
 s    1 1.00
                 0.122                   1
 p    1 1.00
                 0.727                   1

35 0
 s    3 1.00
                 13.01   0.033498726389998
                 1.962    0.23480080117413
                0.4446     0.8136829578829
 s    1 1.00
                 0.122                   1
 p    1 1.00
                 0.727                   1

36 0
 s    3 1.00
                 13.01   0.033498726389998
                 1.962    0.23480080117413
                0.4446     0.8136829578829
 s    1 1.00
                 0.122                   1
 p    1 1.00
                 0.727                   1

37 0
 s    3 1.00
                 13.01   0.033498726389998
                 1.962    0.23480080117413
                0.4446     0.8136829578829
 s    1 1.00
                 0.122                   1
 p    1 1.00
                 0.727                   1

[5d]
[7f]
[9g]

[MO]
 Sym= A
 Ene=               0
 Spin= Alpha
 Occup=    1.00000
   1    -6.0113809553165e-05
   2    -4.3189271554299e-05
   3    0.00013066561614061
   4    -8.0004986980789e-08
   5    5.4711257797687e-06
   6    8.0068724810091e-06
   7    5.9027536401046e-07
   8    -2.5171732191607e-05
   9    -8.5728823239428e-05
  10    1.1191787254603e-05
  11    -2.0945768897949e-08
  12    -6.0131887158288e-07
  13    3.3723826616269e-07
  14    9.3254517443779e-09
  15    -1.6589245214443e-05
  16    -0.00019446008757528
  17    -1.9305754294233e-07
  18    1.7543381421171e-06
  19    -2.231409248511e-05
  20    -8.0718781025946e-06
  21    6.9478151169506e-05
  22    1.7814845017284e-07
  23    -5.1398317383188e-06
  24    2.3703665207713e-06
  25       1.0013693622831
  26    0.0019677268674813
  27    -0.0068555979369879
  28    -4.8762440400077e-06
  29    9.1612777231956e-06
  30    -0.001649521409053
  31    -2.9262374093444e-07
  32    -1.9167939607703e-06
  33    0.0018775785680353
  34    0.00011964027452875
  35    -2.9133898326888e-06
  36    1.4177518274082e-06
  37    6.716531906232e-05
  38    -0.00017485894446892
  39    0.00028014262558869
  40    0.00038619160056104
  41    0.0014635730986643
  42    1.5476823867956e-05
  43    -9.9684477355947e-06
  44    4.4336247524994e-06
  45    8.1779368820221e-05
  46    -6.441276056722e-05
  47    0.0036006499039071
  48    -0.00052282658376751
  49    -8.3422783760493e-06
  50    2.5168068281442e-06
  51    2.9301314624715e-05
  52    -0.0001087534600932
  53    -8.4802897228803e-05
  54    -0.00016590203316635
  55    0.0013774591389779
  56    7.8319232312515e-05
  57    -7.378060069755e-06
  58    -3.5298915345184e-05
  59    -0.00042493611691452
  60    0.00047903634498666
  61    -0.00094615643988836
  62    -0.00011692529826718
  63    0.00014995345958208
  64    -0.00014304630131087
  65    5.4722338184556e-05
  66    -0.00012877317672291
  67    -3.9563136595699e-05
  68    -9.7135241456089e-05
  69    0.00051492105256191
  70    -6.1368231241779e-05
  71    4.0413731281185e-05
  72    -6.2291573663536e-05
  73    0.0010072266243744
  74    -0.00077457596263235
  75    -0.00064713248421272
  76    -0.00014031852689914
  77    -0.00012099565208616
  78    8.974249309878e-05
  79    5.8683856010234e-05
  80    -0.00015098312286602
  81    -6.2387229390401e-05
  82    0.00021074048852513
  83    6.640528042327e-05
  84    -4.8799663621742e-05
  85    4.828518720356e-05
  86    2.5061926647922e-05
  87    4.9054398347491e-05
  88    -0.00061281754453622
  89    -1.5748209250982e-05
  90    -1.7157478594966e-05
  91    1.1716686060532e-05
  92    0.00025881832920302
  93    0.00063504404202287
  94    -1.5741293590704e-05
  95    1.8423625031893e-05
  96    1.1340468696564e-05
  97    7.5958510587243e-06
  98    -2.015965546965e-05
  99    -4.6759112259174e-05
 100    -3.8771221827141e-05
 101    -0.00016095268345068
 102    8.1491531684965e-06
 103    -1.0180415942215e-05
 104    7.5550265457804e-05
 105    -1.8614916620343e-05
 106    -0.00020321090314486
 107    -6.4183133808162e-05
 108    9.9282616221525e-06
 109    7.5252297942782e-05
 110    7.7523365137063e-05
 111    -6.2043545369367e-05
 112    -4.4937108428624e-05
 113    1.9134080799434e-05
 114    7.0288097720631e-05
 115    -4.897330772821e-05
 116    -9.9769487814982e-05
 117    0.0008449850155698
 118    -2.5350804833475e-05
 119    -1.053392339105e-05
 120    3.2416921996023e-05
 121    0.00028933529758102
 122    3.305361165263e-05
 123    -0.00014568326431171
 124    -6.3407865741191e-06
 125    1.1837082546943e-05
 126    1.5195840904594e-05
 127    -3.2103490592051e-05
 128    5.0135748992035e-05
 129    -1.9415605797035e-05
 130    -0.00032788984713809
 131    7.7464445900722e-06
 132    5.9267864556769e-06
 133    2.9371330631767e-05
 134    2.5867607358215e-05
 135    -0.00011771857674204
 136    -1.3585790643837e-05
 137    -2.4569662381491e-05
 138    -2.6923433130821e-05
 139    -2.1494300000289e-05
 140    -3.9157734020823e-05
 141    0.00029429134391806
 142    7.8512071232936e-06
 143    -2.6605870689123e-06
 144    -6.1088176066847e-06
 145    -0.00023070821145925
 146    5.4907430783048e-05
 147    6.2334175946421e-05
 148    -2.4713906553112e-06
 149    3.1264245708216e-06
 150    -3.8875655175565e-06
 151    1.223425150505e-05
 152    -4.9055710314073e-06
 153    -9.6857547845189e-05
 154    -0.00010429193110409
 155    -2.6322460044107e-05
 156    2.8872190902658e-05
 157    1.9602930771562e-05
 158    -2.5767059063556e-05
 159    -8.8185191388932e-05
 160    -5.9170071072728e-05
 161    -7.1707008221378e-06
 162    6.486074200334e-06
 163    -1.5825076148379e-06
 164    -4.8601498804752e-06
 165    -0.00024980407842853
 166    -1.7843076969578e-05
 167    1.4206576671279e-05
 168    6.8290672965682e-06
 169    0.00023569633026154
 170    -0.00021101211897198
 171    -0.00013560206249871
 172    -2.6933088067925e-06
 173    9.9754205153773e-06
 174    -1.3495609723829e-05
 175    3.2226186055767e-06
 176    -1.8051293258778e-05
 177    -1.6164616872409e-05
 178    8.4804328358436e-05
 179    -9.431600149983e-07
 180    1.8495691606505e-06
 181    -4.8691781545206e-06
 182    1.5547255759025e-05
 183    2.7592763349468e-05
 184    -7.0609834857391e-05
 185    -4.7463526849725e-06
 186    3.6330065059187e-06
 187    5.5068863094357e-06
 188    0.00012838106176136
 189    -0.00010207015960427
 190    -8.7087899303382e-05
 191    1.2625529250848e-06
 192    2.1397100474195e-06
 193    -7.6553491048661e-06
 194    -3.0667879890263e-06
 195    -5.2970724411589e-06
 196    -1.359945147516e-05
 197    -1.8921358114916e-05
 198    5.6550499857873e-06
 199    1.9435040042615e-06
 200    -3.4234001293947e-06
 201    -1.3109336711989e-05
 202    2.9873787015356e-06
 203    -1.31584911733e-05
 204    9.9225861827539e-06
 205    1.1768284369385e-05
 206    8.5735191989088e-06
 207    6.8059613924733e-05
 208    -1.6093008699277e-05
 209    3.9008017815807e-06
 210    1.5693502545064e-05
 211    -1.8147455734016e-05
 212    -3.1400703494009e-05
 213    0.00026016202782474
 214    5.2088723314325e-06
 215    -2.1730908581747e-06
 216    -6.2119333108903e-06
 217    0.00019498420153938
 218    -5.314934480821e-05
 219    -7.7788236811491e-05
 220    -2.0320538990509e-06
 221    -1.6468494174125e-05
 222    5.4978212748581e-06
 223    9.2934576165243e-06
 224    -1.8236798294584e-06
 225    2.5773098156847e-05
 226    5.5026965629553e-05
 227    -1.2374116329421e-05
 228    -1.9841005292011e-06
 229    -9.774502266106e-07
 230    9.8905131622319e-06
 231    5.4340656518051e-05
 232    -4.0142526506609e-06
 233    6.369744377206e-06
 234    1.2033124221613e-05
 235    4.3561342865395e-07
 236    7.2869980941098e-07
 237    -7.8711748448402e-05
 238    2.3000234703664e-06
 239    2.033822180251e-06
 240    -3.7916992520247e-06
 241    3.5701186700103e-05
 242    -6.3048495254471e-05
 243    1.7963942747985e-05
 244    1.9287396823929e-06
 245    1.843845669369e-06
 246    -1.9099569696776e-06
 247    1.6561991914455e-07
 248    9.3319303644909e-07
 249    -1.7892212783307e-05
 250    1.1710653356554e-05
 251    -4.5183390589027e-06
 252    -8.7069156343244e-07
 253    -6.3001973037071e-08
 254    -1.6123462770435e-05
 255    5.5829955300802e-05
 256    3.7390500969027e-08
 257    4.3532360805714e-06
 258    -8.706788113837e-07
 259    -1.085216177977e-05
 260    -1.9358424670252e-05
 261    7.6932754097015e-05
 262    -3.3633870862229e-06