[Molden Format]
made by pyscf v[2.0.1]
[Atoms] (AU)
O   1   8     0.00000000000000     0.00000000000000    10.94175058546756
H   2   1     0.00000000000000     0.00000000000000     9.11834876356659
H   3   1    -0.05031916615174     1.78353065140343    11.31762228193423
O   4   8     0.00000000000000     0.00000000000000     2.31533471513237
C   5   6     0.00000000000000     0.00000000000000     0.00000000000000
C   6   6     2.01118073026938    -1.40227222164369    -1.50774939176400
C   7   6    -2.01249334291722     1.41331050329955    -1.50315905028694
H   8   1     3.32037363730244    -2.26721897153159    -0.13599698591495
C   9   6     3.45899267434009     0.28739631745591    -3.37437943254505
H   10   1     1.07662969841332    -2.94725144642667    -2.56541439481080
H   11   1    -2.67503415753480     0.18421555839588    -3.06194479365997
H   12   1    -1.07974048864772     3.03851734677796    -2.43674295017013
C   13   6    -4.21607110578555     2.32938802552922     0.11994162256091
H   14   1     4.24440173074564     1.93368664142019    -2.34976285512790
H   15   1     2.15020713235517     1.04714335134846    -4.81494497423699
C   16   6     5.60746363007797    -1.12419643481196    -4.70268606082550
H   17   1    -3.46838323670267     3.50951302338067     1.66946842715333
H   18   1    -5.11873485366228     0.68575958301209     1.04047743976495
C   19   6    -6.18314754751344     3.80909592987882    -1.39656589068747
H   20   1     6.93011263717176    -1.87550812453645    -3.26656317360070
C   21   6     7.06356622236532     0.52877932406334    -6.57829775293605
H   22   1     4.82318879258361    -2.78573437948532    -5.70504560381835
H   23   1    -6.91582688743803     2.61304780074712    -2.95074552451969
H   24   1    -5.26532430573853     5.45420349051338    -2.31005832200284
C   25   6    -8.39941882261433     4.73263980500213     0.21800571437956
H   26   1     7.83338371486801     2.19084139882824    -5.57093109900697
H   27   1     5.73544244039420     1.27376866537418    -8.01071492370229
C   28   6     9.21124858443101    -0.89699110072176    -7.88926949186242
H   29   1    -7.66272760055236     5.92277078003992     1.77035591474408
H   30   1    -9.31497248082589     3.08753015622020     1.12614408368786
C   31   6   -10.35481709231879     6.21833079391143    -1.30905206253246
H   32   1    10.58815905329501    -1.61074586756696    -6.49512691622620
H   33   1    10.23506248045667     0.32468009384095    -9.23072870921204
H   34   1     8.47665842847139    -2.53598436989925    -8.94921964622535
H   35   1    -9.48948872868064     7.90013588951020    -2.18823918416067
H   36   1   -11.93332513000955     6.86460487874102    -0.11255798845995
H   37   1   -11.15126291841033     5.04495968327630    -2.83849898862534
[GTO]
1 0
 s    8 1.00
                 11720  0.00070964594651845
                  1759  0.0054672722921914
                 400.8   0.027823118610189
                 113.7    0.10474773971146
                 37.03    0.28292084635691
                 13.27    0.44849523869833
                 5.025    0.27081688521277
                 1.013    0.01545029160744
 s    8 1.00
                 11720  -0.00031444341168873
                  1759  -0.0024821376810179
                 400.8  -0.012316355381583
                 113.7  -0.050538917343672
                 37.03   -0.13938490331632
                 13.27   -0.32507749481778
                 5.025   -0.22984830758785
                 1.013     1.0953793467883
 s    1 1.00
                0.3023                   1
 p    3 1.00
                  17.7   0.062679166281506
                 3.854    0.33353656587936
                 1.046    0.74123964163973
 p    1 1.00
                0.2753                   1
 d    1 1.00
                 1.185                   1

2 0
 s    3 1.00
                 13.01   0.033498726389998
                 1.962    0.23480080117413
                0.4446     0.8136829578829
 s    1 1.00
                 0.122                   1
 p    1 1.00
                 0.727                   1

3 0
 s    3 1.00
                 13.01   0.033498726389998
                 1.962    0.23480080117413
                0.4446     0.8136829578829
 s    1 1.00
                 0.122                   1
 p    1 1.00
                 0.727                   1

4 0
 s    8 1.00
                 11720  0.00070964594651845
                  1759  0.0054672722921914
                 400.8   0.027823118610189
                 113.7    0.10474773971146
                 37.03    0.28292084635691
                 13.27    0.44849523869833
                 5.025    0.27081688521277
                 1.013    0.01545029160744
 s    8 1.00
                 11720  -0.00031444341168873
                  1759  -0.0024821376810179
                 400.8  -0.012316355381583
                 113.7  -0.050538917343672
                 37.03   -0.13938490331632
                 13.27   -0.32507749481778
                 5.025   -0.22984830758785
                 1.013     1.0953793467883
 s    1 1.00
                0.3023                   1
 p    3 1.00
                  17.7   0.062679166281506
                 3.854    0.33353656587936
                 1.046    0.74123964163973
 p    1 1.00
                0.2753                   1
 d    1 1.00
                 1.185                   1

5 0
 s    8 1.00
                  6665  0.00069158396281299
                  1000  0.0053257961529341
                   228   0.027060721042034
                 64.71    0.10165684614077
                 21.06     0.2745748236174
                 7.495    0.44829431892377
                 2.797    0.28490261071525
                0.5215   0.015194859206082
 s    8 1.00
                  6665  -0.00029326965268655
                  1000  -0.0023180354739745
                   228  -0.011499786038565
                 64.71  -0.046826727009787
                 21.06   -0.12846616875047
                 7.495   -0.30126627246289
                 2.797   -0.25563070233011
                0.5215      1.093793361012
 s    1 1.00
                0.1596                   1
 p    3 1.00
                 9.439   0.056979251590039
                 2.002    0.31320721150073
                0.5456    0.76037674173753
 p    1 1.00
                0.1517                   1
 d    1 1.00
                  0.55                   1

6 0
 s    8 1.00
                  6665  0.00069158396281299
                  1000  0.0053257961529341
                   228   0.027060721042034
                 64.71    0.10165684614077
                 21.06     0.2745748236174
                 7.495    0.44829431892377
                 2.797    0.28490261071525
                0.5215   0.015194859206082
 s    8 1.00
                  6665  -0.00029326965268655
                  1000  -0.0023180354739745
                   228  -0.011499786038565
                 64.71  -0.046826727009787
                 21.06   -0.12846616875047
                 7.495   -0.30126627246289
                 2.797   -0.25563070233011
                0.5215      1.093793361012
 s    1 1.00
                0.1596                   1
 p    3 1.00
                 9.439   0.056979251590039
                 2.002    0.31320721150073
                0.5456    0.76037674173753
 p    1 1.00
                0.1517                   1
 d    1 1.00
                  0.55                   1

7 0
 s    8 1.00
                  6665  0.00069158396281299
                  1000  0.0053257961529341
                   228   0.027060721042034
                 64.71    0.10165684614077
                 21.06     0.2745748236174
                 7.495    0.44829431892377
                 2.797    0.28490261071525
                0.5215   0.015194859206082
 s    8 1.00
                  6665  -0.00029326965268655
                  1000  -0.0023180354739745
                   228  -0.011499786038565
                 64.71  -0.046826727009787
                 21.06   -0.12846616875047
                 7.495   -0.30126627246289
                 2.797   -0.25563070233011
                0.5215      1.093793361012
 s    1 1.00
                0.1596                   1
 p    3 1.00
                 9.439   0.056979251590039
                 2.002    0.31320721150073
                0.5456    0.76037674173753
 p    1 1.00
                0.1517                   1
 d    1 1.00
                  0.55                   1

8 0
 s    3 1.00
                 13.01   0.033498726389998
                 1.962    0.23480080117413
                0.4446     0.8136829578829
 s    1 1.00
                 0.122                   1
 p    1 1.00
                 0.727                   1

9 0
 s    8 1.00
                  6665  0.00069158396281299
                  1000  0.0053257961529341
                   228   0.027060721042034
                 64.71    0.10165684614077
                 21.06     0.2745748236174
                 7.495    0.44829431892377
                 2.797    0.28490261071525
                0.5215   0.015194859206082
 s    8 1.00
                  6665  -0.00029326965268655
                  1000  -0.0023180354739745
                   228  -0.011499786038565
                 64.71  -0.046826727009787
                 21.06   -0.12846616875047
                 7.495   -0.30126627246289
                 2.797   -0.25563070233011
                0.5215      1.093793361012
 s    1 1.00
                0.1596                   1
 p    3 1.00
                 9.439   0.056979251590039
                 2.002    0.31320721150073
                0.5456    0.76037674173753
 p    1 1.00
                0.1517                   1
 d    1 1.00
                  0.55                   1

10 0
 s    3 1.00
                 13.01   0.033498726389998
                 1.962    0.23480080117413
                0.4446     0.8136829578829
 s    1 1.00
                 0.122                   1
 p    1 1.00
                 0.727                   1

11 0
 s    3 1.00
                 13.01   0.033498726389998
                 1.962    0.23480080117413
                0.4446     0.8136829578829
 s    1 1.00
                 0.122                   1
 p    1 1.00
                 0.727                   1

12 0
 s    3 1.00
                 13.01   0.033498726389998
                 1.962    0.23480080117413
                0.4446     0.8136829578829
 s    1 1.00
                 0.122                   1
 p    1 1.00
                 0.727                   1

13 0
 s    8 1.00
                  6665  0.00069158396281299
                  1000  0.0053257961529341
                   228   0.027060721042034
                 64.71    0.10165684614077
                 21.06     0.2745748236174
                 7.495    0.44829431892377
                 2.797    0.28490261071525
                0.5215   0.015194859206082
 s    8 1.00
                  6665  -0.00029326965268655
                  1000  -0.0023180354739745
                   228  -0.011499786038565
                 64.71  -0.046826727009787
                 21.06   -0.12846616875047
                 7.495   -0.30126627246289
                 2.797   -0.25563070233011
                0.5215      1.093793361012
 s    1 1.00
                0.1596                   1
 p    3 1.00
                 9.439   0.056979251590039
                 2.002    0.31320721150073
                0.5456    0.76037674173753
 p    1 1.00
                0.1517                   1
 d    1 1.00
                  0.55                   1

14 0
 s    3 1.00
                 13.01   0.033498726389998
                 1.962    0.23480080117413
                0.4446     0.8136829578829
 s    1 1.00
                 0.122                   1
 p    1 1.00
                 0.727                   1

15 0
 s    3 1.00
                 13.01   0.033498726389998
                 1.962    0.23480080117413
                0.4446     0.8136829578829
 s    1 1.00
                 0.122                   1
 p    1 1.00
                 0.727                   1

16 0
 s    8 1.00
                  6665  0.00069158396281299
                  1000  0.0053257961529341
                   228   0.027060721042034
                 64.71    0.10165684614077
                 21.06     0.2745748236174
                 7.495    0.44829431892377
                 2.797    0.28490261071525
                0.5215   0.015194859206082
 s    8 1.00
                  6665  -0.00029326965268655
                  1000  -0.0023180354739745
                   228  -0.011499786038565
                 64.71  -0.046826727009787
                 21.06   -0.12846616875047
                 7.495   -0.30126627246289
                 2.797   -0.25563070233011
                0.5215      1.093793361012
 s    1 1.00
                0.1596                   1
 p    3 1.00
                 9.439   0.056979251590039
                 2.002    0.31320721150073
                0.5456    0.76037674173753
 p    1 1.00
                0.1517                   1
 d    1 1.00
                  0.55                   1

17 0
 s    3 1.00
                 13.01   0.033498726389998
                 1.962    0.23480080117413
                0.4446     0.8136829578829
 s    1 1.00
                 0.122                   1
 p    1 1.00
                 0.727                   1

18 0
 s    3 1.00
                 13.01   0.033498726389998
                 1.962    0.23480080117413
                0.4446     0.8136829578829
 s    1 1.00
                 0.122                   1
 p    1 1.00
                 0.727                   1

19 0
 s    8 1.00
                  6665  0.00069158396281299
                  1000  0.0053257961529341
                   228   0.027060721042034
                 64.71    0.10165684614077
                 21.06     0.2745748236174
                 7.495    0.44829431892377
                 2.797    0.28490261071525
                0.5215   0.015194859206082
 s    8 1.00
                  6665  -0.00029326965268655
                  1000  -0.0023180354739745
                   228  -0.011499786038565
                 64.71  -0.046826727009787
                 21.06   -0.12846616875047
                 7.495   -0.30126627246289
                 2.797   -0.25563070233011
                0.5215      1.093793361012
 s    1 1.00
                0.1596                   1
 p    3 1.00
                 9.439   0.056979251590039
                 2.002    0.31320721150073
                0.5456    0.76037674173753
 p    1 1.00
                0.1517                   1
 d    1 1.00
                  0.55                   1

20 0
 s    3 1.00
                 13.01   0.033498726389998
                 1.962    0.23480080117413
                0.4446     0.8136829578829
 s    1 1.00
                 0.122                   1
 p    1 1.00
                 0.727                   1

21 0
 s    8 1.00
                  6665  0.00069158396281299
                  1000  0.0053257961529341
                   228   0.027060721042034
                 64.71    0.10165684614077
                 21.06     0.2745748236174
                 7.495    0.44829431892377
                 2.797    0.28490261071525
                0.5215   0.015194859206082
 s    8 1.00
                  6665  -0.00029326965268655
                  1000  -0.0023180354739745
                   228  -0.011499786038565
                 64.71  -0.046826727009787
                 21.06   -0.12846616875047
                 7.495   -0.30126627246289
                 2.797   -0.25563070233011
                0.5215      1.093793361012
 s    1 1.00
                0.1596                   1
 p    3 1.00
                 9.439   0.056979251590039
                 2.002    0.31320721150073
                0.5456    0.76037674173753
 p    1 1.00
                0.1517                   1
 d    1 1.00
                  0.55                   1

22 0
 s    3 1.00
                 13.01   0.033498726389998
                 1.962    0.23480080117413
                0.4446     0.8136829578829
 s    1 1.00
                 0.122                   1
 p    1 1.00
                 0.727                   1

23 0
 s    3 1.00
                 13.01   0.033498726389998
                 1.962    0.23480080117413
                0.4446     0.8136829578829
 s    1 1.00
                 0.122                   1
 p    1 1.00
                 0.727                   1

24 0
 s    3 1.00
                 13.01   0.033498726389998
                 1.962    0.23480080117413
                0.4446     0.8136829578829
 s    1 1.00
                 0.122                   1
 p    1 1.00
                 0.727                   1

25 0
 s    8 1.00
                  6665  0.00069158396281299
                  1000  0.0053257961529341
                   228   0.027060721042034
                 64.71    0.10165684614077
                 21.06     0.2745748236174
                 7.495    0.44829431892377
                 2.797    0.28490261071525
                0.5215   0.015194859206082
 s    8 1.00
                  6665  -0.00029326965268655
                  1000  -0.0023180354739745
                   228  -0.011499786038565
                 64.71  -0.046826727009787
                 21.06   -0.12846616875047
                 7.495   -0.30126627246289
                 2.797   -0.25563070233011
                0.5215      1.093793361012
 s    1 1.00
                0.1596                   1
 p    3 1.00
                 9.439   0.056979251590039
                 2.002    0.31320721150073
                0.5456    0.76037674173753
 p    1 1.00
                0.1517                   1
 d    1 1.00
                  0.55                   1

26 0
 s    3 1.00
                 13.01   0.033498726389998
                 1.962    0.23480080117413
                0.4446     0.8136829578829
 s    1 1.00
                 0.122                   1
 p    1 1.00
                 0.727                   1

27 0
 s    3 1.00
                 13.01   0.033498726389998
                 1.962    0.23480080117413
                0.4446     0.8136829578829
 s    1 1.00
                 0.122                   1
 p    1 1.00
                 0.727                   1

28 0
 s    8 1.00
                  6665  0.00069158396281299
                  1000  0.0053257961529341
                   228   0.027060721042034
                 64.71    0.10165684614077
                 21.06     0.2745748236174
                 7.495    0.44829431892377
                 2.797    0.28490261071525
                0.5215   0.015194859206082
 s    8 1.00
                  6665  -0.00029326965268655
                  1000  -0.0023180354739745
                   228  -0.011499786038565
                 64.71  -0.046826727009787
                 21.06   -0.12846616875047
                 7.495   -0.30126627246289
                 2.797   -0.25563070233011
                0.5215      1.093793361012
 s    1 1.00
                0.1596                   1
 p    3 1.00
                 9.439   0.056979251590039
                 2.002    0.31320721150073
                0.5456    0.76037674173753
 p    1 1.00
                0.1517                   1
 d    1 1.00
                  0.55                   1

29 0
 s    3 1.00
                 13.01   0.033498726389998
                 1.962    0.23480080117413
                0.4446     0.8136829578829
 s    1 1.00
                 0.122                   1
 p    1 1.00
                 0.727                   1

30 0
 s    3 1.00
                 13.01   0.033498726389998
                 1.962    0.23480080117413
                0.4446     0.8136829578829
 s    1 1.00
                 0.122                   1
 p    1 1.00
                 0.727                   1

31 0
 s    8 1.00
                  6665  0.00069158396281299
                  1000  0.0053257961529341
                   228   0.027060721042034
                 64.71    0.10165684614077
                 21.06     0.2745748236174
                 7.495    0.44829431892377
                 2.797    0.28490261071525
                0.5215   0.015194859206082
 s    8 1.00
                  6665  -0.00029326965268655
                  1000  -0.0023180354739745
                   228  -0.011499786038565
                 64.71  -0.046826727009787
                 21.06   -0.12846616875047
                 7.495   -0.30126627246289
                 2.797   -0.25563070233011
                0.5215      1.093793361012
 s    1 1.00
                0.1596                   1
 p    3 1.00
                 9.439   0.056979251590039
                 2.002    0.31320721150073
                0.5456    0.76037674173753
 p    1 1.00
                0.1517                   1
 d    1 1.00
                  0.55                   1

32 0
 s    3 1.00
                 13.01   0.033498726389998
                 1.962    0.23480080117413
                0.4446     0.8136829578829
 s    1 1.00
                 0.122                   1
 p    1 1.00
                 0.727                   1

33 0
 s    3 1.00
                 13.01   0.033498726389998
                 1.962    0.23480080117413
                0.4446     0.8136829578829
 s    1 1.00
                 0.122                   1
 p    1 1.00
                 0.727                   1

34 0
 s    3 1.00
                 13.01   0.033498726389998
                 1.962    0.23480080117413
                0.4446     0.8136829578829
 s    1 1.00
                 0.122                   1
 p    1 1.00
                 0.727                   1

35 0
 s    3 1.00
                 13.01   0.033498726389998
                 1.962    0.23480080117413
                0.4446     0.8136829578829
 s    1 1.00
                 0.122                   1
 p    1 1.00
                 0.727                   1

36 0
 s    3 1.00
                 13.01   0.033498726389998
                 1.962    0.23480080117413
                0.4446     0.8136829578829
 s    1 1.00
                 0.122                   1
 p    1 1.00
                 0.727                   1

37 0
 s    3 1.00
                 13.01   0.033498726389998
                 1.962    0.23480080117413
                0.4446     0.8136829578829
 s    1 1.00
                 0.122                   1
 p    1 1.00
                 0.727                   1

[5d]
[7f]
[9g]

[MO]
 Sym= A
 Ene=               0
 Spin= Alpha
 Occup=    1.00000
   1    -2.8734980439769e-05
   2    -1.6002850300149e-05
   3    6.255078765135e-05
   4    -5.8480964772786e-08
   5    2.372221512706e-06
   6    -3.289306473174e-07
   7    3.8559529286258e-07
   8    -1.4142609716213e-05
   9    -4.6788263895962e-05
  10    8.7667053322569e-06
  11    1.3552645769842e-08
  12    -6.4161917446259e-07
  13    5.6927110485519e-07
  14    3.092436728979e-08
  15    -7.6369532588122e-06
  16    -9.2553046353144e-05
  17    -4.1022120057877e-08
  18    8.8551177007326e-07
  19    -2.748061858848e-05
  20    -3.5635964304188e-06
  21    3.7927220620453e-05
  22    1.333011268651e-07
  23    -4.575169865034e-06
  24    1.3626131613431e-06
  25       1.0013591208277
  26    0.0019458219635023
  27    -0.0067647293170874
  28    -4.5724127402397e-06
  29    7.6209956691102e-06
  30    -0.0016592123533408
  31    -3.259927275329e-07
  32    -1.2004380283785e-06
  33    0.0018114702587332
  34    0.00012982473443445
  35    -3.0242856442293e-06
  36    1.321310771912e-06
  37    6.7673945683546e-05
  38    -0.00017627605581371
  39    0.0002717875467171
  40    0.00036800199031675
  41    0.0013960208944288
  42    1.4903019243766e-05
  43    -9.9411969057454e-06
  44    -1.4300558753963e-05
  45    8.1927518255736e-05
  46    -6.3010853467137e-05
  47    0.0035334197434423
  48    -0.00053971012328184
  49    -8.564863339448e-06
  50    2.4685147824736e-06
  51    2.8503144974493e-05
  52    -0.00010680086241536
  53    -8.5069602781902e-05
  54    -0.00016638104472042
  55    0.0013668620557484
  56    7.8070161060199e-05
  57    -7.4578430896284e-06
  58    -3.6290756559239e-05
  59    -0.00042327451931319
  60    0.00047589862200082
  61    -0.00092054391602874
  62    -0.00011793405563854
  63    0.00015022030840998
  64    -0.00014282705709944
  65    5.5256420444063e-05
  66    -0.00013058924168325
  67    -4.0495530571049e-05
  68    -9.8715443906525e-05
  69    0.0005097496057051
  70    -6.0742637145577e-05
  71    3.9747561572566e-05
  72    -6.2693466564345e-05
  73    0.00099884733932679
  74    -0.00076959466400741
  75    -0.00063413268193769
  76    -0.00014144580019063
  77    -0.00012057563268259
  78    8.9635323661571e-05
  79    5.9168572889328e-05
  80    -0.00015232845218406
  81    -6.5316311988933e-05
  82    0.00020614183192276
  83    6.5865107921741e-05
  84    -4.837351426374e-05
  85    4.9181328651745e-05
  86    2.498521834209e-05
  87    4.8932260712516e-05
  88    -0.00060226826380559
  89    -1.5947803435048e-05
  90    -1.7056288266926e-05
  91    1.2240802584439e-05
  92    0.00025576418071874
  93    0.00062184305401478
  94    -1.9576943868231e-05
  95    1.7956430266574e-05
  96    1.1108268462361e-05
  97    7.1148213401821e-06
  98    -2.0785633902553e-05
  99    -4.5318957689132e-05
 100    -3.6706266320945e-05
 101    -0.00015724201751834
 102    9.6186042595229e-06
 103    -9.6980100037527e-06
 104    7.4098118466559e-05
 105    -1.7722455148576e-05
 106    -0.00020013445595923
 107    -6.4539175476878e-05
 108    1.156186105217e-05
 109    7.441563457925e-05
 110    7.7253086101283e-05
 111    -5.7879925035463e-05
 112    -4.5686937489872e-05
 113    1.8254561250841e-05
 114    6.9408050415185e-05
 115    -5.0058168204505e-05
 116    -0.00010176617497128
 117    0.0008409524797674
 118    -2.6370766256979e-05
 119    -9.8650594130797e-06
 120    3.2650249770689e-05
 121    0.00029814727140142
 122    2.9066545390324e-05
 123    -0.00013391080540732
 124    -6.4745792642667e-06
 125     1.25966303552e-05
 126    1.5988250984302e-05
 127    -3.2124808772936e-05
 128    4.9740296217317e-05
 129    -1.8883152523814e-05
 130    -0.000320143922114
 131    7.4289612834677e-06
 132    5.8438305256674e-06
 133    2.9124140643682e-05
 134    2.592346541209e-05
 135    -0.00011871460847638
 136    -1.3420219425079e-05
 137    -2.3932120171679e-05
 138    -2.6508677281854e-05
 139    -2.1089051994709e-05
 140    -3.8330743487262e-05
 141    0.00028510189149991
 142    7.9974404310083e-06
 143    -2.3395892141697e-06
 144    -6.2766679665873e-06
 145    -0.0002294343490257
 146    5.1006705874033e-05
 147    6.4413216131855e-05
 148    -2.353596950223e-06
 149    3.0437206305442e-06
 150    -3.385146380618e-06
 151    1.1855110783218e-05
 152    -4.9825291218791e-06
 153    -9.7041012901925e-05
 154    -0.00011465019096545
 155    -2.5769708605423e-05
 156    3.0108783586149e-05
 157    2.0600272841907e-05
 158    -2.5940941935001e-05
 159    -9.0008901564965e-05
 160    -5.9489080452954e-05
 161    -7.1137229503159e-06
 162    6.0753762896792e-06
 163    -2.9253629053784e-06
 164    -6.3806988024735e-06
 165    -0.00023624867234618
 166    -1.7800761535663e-05
 167    1.4323631903934e-05
 168    6.942588859247e-06
 169    0.00023792956599085
 170    -0.00021372489256016
 171    -0.00013085970180927
 172    -2.9115109504811e-06
 173    1.0538215203213e-05
 174    -1.3515891492008e-05
 175    2.9315417392328e-06
 176    -1.8414004031367e-05
 177    -1.5896808268813e-05
 178    8.3221337015591e-05
 179    -7.0807383588793e-07
 180     2.02243193623e-06
 181    -5.000344489085e-06
 182    1.5017437474529e-05
 183    2.6602888376163e-05
 184    -6.435309766899e-05
 185    -4.8403971468258e-06
 186    3.5394656753466e-06
 187    5.5224828120601e-06
 188    0.0001260484702513
 189    -0.00010225069192706
 190    -8.3877939296508e-05
 191    1.2739814807163e-06
 192    1.8969357308627e-06
 193    -7.8095790047703e-06
 194    -2.9024834718309e-06
 195    -5.0197566514314e-06
 196    -1.3927300143905e-05
 197    -1.8581204968792e-05
 198    5.6383502361744e-06
 199    1.9674222716719e-06
 200    -3.6095799133619e-06
 201    -1.3207850782016e-05
 202    4.5712851073818e-06
 203    -1.3047283366952e-05
 204    1.0045235247623e-05
 205    1.1841895339482e-05
 206    7.5531043407239e-06
 207    6.6954625711692e-05
 208    -1.6238677284849e-05
 209    3.9708414428128e-06
 210    1.5579532770655e-05
 211    -1.2257579953943e-05
 212    -4.8170935708713e-05
 213    0.00024222703377515
 214    1.4962584668054e-05
 215    2.1278257821239e-06
 216    -1.1390306412181e-05
 217    0.00020108018774386
 218    -5.2092562827877e-05
 219    -7.8582738391354e-05
 220    -1.5501487355826e-06
 221    -1.6524483081076e-05
 222    6.0872643404817e-06
 223    9.5053510670381e-06
 224    -1.7862243748186e-06
 225    2.4801601871315e-05
 226    5.3337120550911e-05
 227    -1.2226989803569e-05
 228    -1.858937725741e-06
 229    -9.8792999423566e-07
 230    9.7368423583448e-06
 231    5.4619998110827e-05
 232    -3.9453685953087e-06
 233    6.2605886340206e-06
 234    1.1938549610531e-05
 235    5.6420712256915e-06
 236    2.1913027640829e-06
 237    -7.7335750636791e-05
 238    5.7424189207013e-06
 239    5.1788484842568e-06
 240    -3.4377895042593e-06
 241    3.6753435141614e-05
 242    -6.0907327149128e-05
 243    1.7834649153461e-05
 244    1.9414628531415e-06
 245    1.7244998392114e-06
 246    -2.2078558294839e-06
 247    2.5075205725515e-07
 248    9.0164323182804e-07
 249    -2.3794395677333e-05
 250    1.4558011404799e-05
 251    -4.017289974631e-06
 252    -2.516905267696e-07
 253    2.7713012976381e-07
 254    -3.3592733664188e-05
 255    5.0899316801907e-05
 256    -7.4815232011642e-07
 257    3.041189357235e-06
 258    -2.1457212476782e-07
 259    -2.5697746589288e-06
 260    -1.9815167062902e-05
 261    8.1166940709463e-05
 262    -7.7900095716145e-06