[Molden Format]
made by pyscf v[2.0.1]
[Atoms] (AU)
O   1   8     0.00000000000000     0.00000000000000     9.05202446090250
H   2   1     0.00000000000000     0.00000000000000     7.22862263900153
H   3   1    -0.05031916615174     1.78353065140343     9.42789615736916
O   4   8     0.00000000000000     0.00000000000000     2.31533471513237
C   5   6     0.00000000000000     0.00000000000000     0.00000000000000
C   6   6     2.01118073026938    -1.40227222164369    -1.50774939176400
C   7   6    -2.01249334291722     1.41331050329955    -1.50315905028694
H   8   1     3.32037363730244    -2.26721897153159    -0.13599698591495
C   9   6     3.45899267434009     0.28739631745591    -3.37437943254505
H   10   1     1.07662969841332    -2.94725144642667    -2.56541439481080
H   11   1    -2.67503415753480     0.18421555839588    -3.06194479365997
H   12   1    -1.07974048864772     3.03851734677796    -2.43674295017013
C   13   6    -4.21607110578555     2.32938802552922     0.11994162256091
H   14   1     4.24440173074564     1.93368664142019    -2.34976285512790
H   15   1     2.15020713235517     1.04714335134846    -4.81494497423699
C   16   6     5.60746363007797    -1.12419643481196    -4.70268606082550
H   17   1    -3.46838323670267     3.50951302338067     1.66946842715333
H   18   1    -5.11873485366228     0.68575958301209     1.04047743976495
C   19   6    -6.18314754751344     3.80909592987882    -1.39656589068747
H   20   1     6.93011263717176    -1.87550812453645    -3.26656317360070
C   21   6     7.06356622236532     0.52877932406334    -6.57829775293605
H   22   1     4.82318879258361    -2.78573437948532    -5.70504560381835
H   23   1    -6.91582688743803     2.61304780074712    -2.95074552451969
H   24   1    -5.26532430573853     5.45420349051338    -2.31005832200284
C   25   6    -8.39941882261433     4.73263980500213     0.21800571437956
H   26   1     7.83338371486801     2.19084139882824    -5.57093109900697
H   27   1     5.73544244039420     1.27376866537418    -8.01071492370229
C   28   6     9.21124858443101    -0.89699110072176    -7.88926949186242
H   29   1    -7.66272760055236     5.92277078003992     1.77035591474408
H   30   1    -9.31497248082589     3.08753015622020     1.12614408368786
C   31   6   -10.35481709231879     6.21833079391143    -1.30905206253246
H   32   1    10.58815905329501    -1.61074586756696    -6.49512691622620
H   33   1    10.23506248045667     0.32468009384095    -9.23072870921204
H   34   1     8.47665842847139    -2.53598436989925    -8.94921964622535
H   35   1    -9.48948872868064     7.90013588951020    -2.18823918416067
H   36   1   -11.93332513000955     6.86460487874102    -0.11255798845995
H   37   1   -11.15126291841033     5.04495968327630    -2.83849898862534
[GTO]
1 0
 s    8 1.00
                 11720  0.00070964594651845
                  1759  0.0054672722921914
                 400.8   0.027823118610189
                 113.7    0.10474773971146
                 37.03    0.28292084635691
                 13.27    0.44849523869833
                 5.025    0.27081688521277
                 1.013    0.01545029160744
 s    8 1.00
                 11720  -0.00031444341168873
                  1759  -0.0024821376810179
                 400.8  -0.012316355381583
                 113.7  -0.050538917343672
                 37.03   -0.13938490331632
                 13.27   -0.32507749481778
                 5.025   -0.22984830758785
                 1.013     1.0953793467883
 s    1 1.00
                0.3023                   1
 p    3 1.00
                  17.7   0.062679166281506
                 3.854    0.33353656587936
                 1.046    0.74123964163973
 p    1 1.00
                0.2753                   1
 d    1 1.00
                 1.185                   1

2 0
 s    3 1.00
                 13.01   0.033498726389998
                 1.962    0.23480080117413
                0.4446     0.8136829578829
 s    1 1.00
                 0.122                   1
 p    1 1.00
                 0.727                   1

3 0
 s    3 1.00
                 13.01   0.033498726389998
                 1.962    0.23480080117413
                0.4446     0.8136829578829
 s    1 1.00
                 0.122                   1
 p    1 1.00
                 0.727                   1

4 0
 s    8 1.00
                 11720  0.00070964594651845
                  1759  0.0054672722921914
                 400.8   0.027823118610189
                 113.7    0.10474773971146
                 37.03    0.28292084635691
                 13.27    0.44849523869833
                 5.025    0.27081688521277
                 1.013    0.01545029160744
 s    8 1.00
                 11720  -0.00031444341168873
                  1759  -0.0024821376810179
                 400.8  -0.012316355381583
                 113.7  -0.050538917343672
                 37.03   -0.13938490331632
                 13.27   -0.32507749481778
                 5.025   -0.22984830758785
                 1.013     1.0953793467883
 s    1 1.00
                0.3023                   1
 p    3 1.00
                  17.7   0.062679166281506
                 3.854    0.33353656587936
                 1.046    0.74123964163973
 p    1 1.00
                0.2753                   1
 d    1 1.00
                 1.185                   1

5 0
 s    8 1.00
                  6665  0.00069158396281299
                  1000  0.0053257961529341
                   228   0.027060721042034
                 64.71    0.10165684614077
                 21.06     0.2745748236174
                 7.495    0.44829431892377
                 2.797    0.28490261071525
                0.5215   0.015194859206082
 s    8 1.00
                  6665  -0.00029326965268655
                  1000  -0.0023180354739745
                   228  -0.011499786038565
                 64.71  -0.046826727009787
                 21.06   -0.12846616875047
                 7.495   -0.30126627246289
                 2.797   -0.25563070233011
                0.5215      1.093793361012
 s    1 1.00
                0.1596                   1
 p    3 1.00
                 9.439   0.056979251590039
                 2.002    0.31320721150073
                0.5456    0.76037674173753
 p    1 1.00
                0.1517                   1
 d    1 1.00
                  0.55                   1

6 0
 s    8 1.00
                  6665  0.00069158396281299
                  1000  0.0053257961529341
                   228   0.027060721042034
                 64.71    0.10165684614077
                 21.06     0.2745748236174
                 7.495    0.44829431892377
                 2.797    0.28490261071525
                0.5215   0.015194859206082
 s    8 1.00
                  6665  -0.00029326965268655
                  1000  -0.0023180354739745
                   228  -0.011499786038565
                 64.71  -0.046826727009787
                 21.06   -0.12846616875047
                 7.495   -0.30126627246289
                 2.797   -0.25563070233011
                0.5215      1.093793361012
 s    1 1.00
                0.1596                   1
 p    3 1.00
                 9.439   0.056979251590039
                 2.002    0.31320721150073
                0.5456    0.76037674173753
 p    1 1.00
                0.1517                   1
 d    1 1.00
                  0.55                   1

7 0
 s    8 1.00
                  6665  0.00069158396281299
                  1000  0.0053257961529341
                   228   0.027060721042034
                 64.71    0.10165684614077
                 21.06     0.2745748236174
                 7.495    0.44829431892377
                 2.797    0.28490261071525
                0.5215   0.015194859206082
 s    8 1.00
                  6665  -0.00029326965268655
                  1000  -0.0023180354739745
                   228  -0.011499786038565
                 64.71  -0.046826727009787
                 21.06   -0.12846616875047
                 7.495   -0.30126627246289
                 2.797   -0.25563070233011
                0.5215      1.093793361012
 s    1 1.00
                0.1596                   1
 p    3 1.00
                 9.439   0.056979251590039
                 2.002    0.31320721150073
                0.5456    0.76037674173753
 p    1 1.00
                0.1517                   1
 d    1 1.00
                  0.55                   1

8 0
 s    3 1.00
                 13.01   0.033498726389998
                 1.962    0.23480080117413
                0.4446     0.8136829578829
 s    1 1.00
                 0.122                   1
 p    1 1.00
                 0.727                   1

9 0
 s    8 1.00
                  6665  0.00069158396281299
                  1000  0.0053257961529341
                   228   0.027060721042034
                 64.71    0.10165684614077
                 21.06     0.2745748236174
                 7.495    0.44829431892377
                 2.797    0.28490261071525
                0.5215   0.015194859206082
 s    8 1.00
                  6665  -0.00029326965268655
                  1000  -0.0023180354739745
                   228  -0.011499786038565
                 64.71  -0.046826727009787
                 21.06   -0.12846616875047
                 7.495   -0.30126627246289
                 2.797   -0.25563070233011
                0.5215      1.093793361012
 s    1 1.00
                0.1596                   1
 p    3 1.00
                 9.439   0.056979251590039
                 2.002    0.31320721150073
                0.5456    0.76037674173753
 p    1 1.00
                0.1517                   1
 d    1 1.00
                  0.55                   1

10 0
 s    3 1.00
                 13.01   0.033498726389998
                 1.962    0.23480080117413
                0.4446     0.8136829578829
 s    1 1.00
                 0.122                   1
 p    1 1.00
                 0.727                   1

11 0
 s    3 1.00
                 13.01   0.033498726389998
                 1.962    0.23480080117413
                0.4446     0.8136829578829
 s    1 1.00
                 0.122                   1
 p    1 1.00
                 0.727                   1

12 0
 s    3 1.00
                 13.01   0.033498726389998
                 1.962    0.23480080117413
                0.4446     0.8136829578829
 s    1 1.00
                 0.122                   1
 p    1 1.00
                 0.727                   1

13 0
 s    8 1.00
                  6665  0.00069158396281299
                  1000  0.0053257961529341
                   228   0.027060721042034
                 64.71    0.10165684614077
                 21.06     0.2745748236174
                 7.495    0.44829431892377
                 2.797    0.28490261071525
                0.5215   0.015194859206082
 s    8 1.00
                  6665  -0.00029326965268655
                  1000  -0.0023180354739745
                   228  -0.011499786038565
                 64.71  -0.046826727009787
                 21.06   -0.12846616875047
                 7.495   -0.30126627246289
                 2.797   -0.25563070233011
                0.5215      1.093793361012
 s    1 1.00
                0.1596                   1
 p    3 1.00
                 9.439   0.056979251590039
                 2.002    0.31320721150073
                0.5456    0.76037674173753
 p    1 1.00
                0.1517                   1
 d    1 1.00
                  0.55                   1

14 0
 s    3 1.00
                 13.01   0.033498726389998
                 1.962    0.23480080117413
                0.4446     0.8136829578829
 s    1 1.00
                 0.122                   1
 p    1 1.00
                 0.727                   1

15 0
 s    3 1.00
                 13.01   0.033498726389998
                 1.962    0.23480080117413
                0.4446     0.8136829578829
 s    1 1.00
                 0.122                   1
 p    1 1.00
                 0.727                   1

16 0
 s    8 1.00
                  6665  0.00069158396281299
                  1000  0.0053257961529341
                   228   0.027060721042034
                 64.71    0.10165684614077
                 21.06     0.2745748236174
                 7.495    0.44829431892377
                 2.797    0.28490261071525
                0.5215   0.015194859206082
 s    8 1.00
                  6665  -0.00029326965268655
                  1000  -0.0023180354739745
                   228  -0.011499786038565
                 64.71  -0.046826727009787
                 21.06   -0.12846616875047
                 7.495   -0.30126627246289
                 2.797   -0.25563070233011
                0.5215      1.093793361012
 s    1 1.00
                0.1596                   1
 p    3 1.00
                 9.439   0.056979251590039
                 2.002    0.31320721150073
                0.5456    0.76037674173753
 p    1 1.00
                0.1517                   1
 d    1 1.00
                  0.55                   1

17 0
 s    3 1.00
                 13.01   0.033498726389998
                 1.962    0.23480080117413
                0.4446     0.8136829578829
 s    1 1.00
                 0.122                   1
 p    1 1.00
                 0.727                   1

18 0
 s    3 1.00
                 13.01   0.033498726389998
                 1.962    0.23480080117413
                0.4446     0.8136829578829
 s    1 1.00
                 0.122                   1
 p    1 1.00
                 0.727                   1

19 0
 s    8 1.00
                  6665  0.00069158396281299
                  1000  0.0053257961529341
                   228   0.027060721042034
                 64.71    0.10165684614077
                 21.06     0.2745748236174
                 7.495    0.44829431892377
                 2.797    0.28490261071525
                0.5215   0.015194859206082
 s    8 1.00
                  6665  -0.00029326965268655
                  1000  -0.0023180354739745
                   228  -0.011499786038565
                 64.71  -0.046826727009787
                 21.06   -0.12846616875047
                 7.495   -0.30126627246289
                 2.797   -0.25563070233011
                0.5215      1.093793361012
 s    1 1.00
                0.1596                   1
 p    3 1.00
                 9.439   0.056979251590039
                 2.002    0.31320721150073
                0.5456    0.76037674173753
 p    1 1.00
                0.1517                   1
 d    1 1.00
                  0.55                   1

20 0
 s    3 1.00
                 13.01   0.033498726389998
                 1.962    0.23480080117413
                0.4446     0.8136829578829
 s    1 1.00
                 0.122                   1
 p    1 1.00
                 0.727                   1

21 0
 s    8 1.00
                  6665  0.00069158396281299
                  1000  0.0053257961529341
                   228   0.027060721042034
                 64.71    0.10165684614077
                 21.06     0.2745748236174
                 7.495    0.44829431892377
                 2.797    0.28490261071525
                0.5215   0.015194859206082
 s    8 1.00
                  6665  -0.00029326965268655
                  1000  -0.0023180354739745
                   228  -0.011499786038565
                 64.71  -0.046826727009787
                 21.06   -0.12846616875047
                 7.495   -0.30126627246289
                 2.797   -0.25563070233011
                0.5215      1.093793361012
 s    1 1.00
                0.1596                   1
 p    3 1.00
                 9.439   0.056979251590039
                 2.002    0.31320721150073
                0.5456    0.76037674173753
 p    1 1.00
                0.1517                   1
 d    1 1.00
                  0.55                   1

22 0
 s    3 1.00
                 13.01   0.033498726389998
                 1.962    0.23480080117413
                0.4446     0.8136829578829
 s    1 1.00
                 0.122                   1
 p    1 1.00
                 0.727                   1

23 0
 s    3 1.00
                 13.01   0.033498726389998
                 1.962    0.23480080117413
                0.4446     0.8136829578829
 s    1 1.00
                 0.122                   1
 p    1 1.00
                 0.727                   1

24 0
 s    3 1.00
                 13.01   0.033498726389998
                 1.962    0.23480080117413
                0.4446     0.8136829578829
 s    1 1.00
                 0.122                   1
 p    1 1.00
                 0.727                   1

25 0
 s    8 1.00
                  6665  0.00069158396281299
                  1000  0.0053257961529341
                   228   0.027060721042034
                 64.71    0.10165684614077
                 21.06     0.2745748236174
                 7.495    0.44829431892377
                 2.797    0.28490261071525
                0.5215   0.015194859206082
 s    8 1.00
                  6665  -0.00029326965268655
                  1000  -0.0023180354739745
                   228  -0.011499786038565
                 64.71  -0.046826727009787
                 21.06   -0.12846616875047
                 7.495   -0.30126627246289
                 2.797   -0.25563070233011
                0.5215      1.093793361012
 s    1 1.00
                0.1596                   1
 p    3 1.00
                 9.439   0.056979251590039
                 2.002    0.31320721150073
                0.5456    0.76037674173753
 p    1 1.00
                0.1517                   1
 d    1 1.00
                  0.55                   1

26 0
 s    3 1.00
                 13.01   0.033498726389998
                 1.962    0.23480080117413
                0.4446     0.8136829578829
 s    1 1.00
                 0.122                   1
 p    1 1.00
                 0.727                   1

27 0
 s    3 1.00
                 13.01   0.033498726389998
                 1.962    0.23480080117413
                0.4446     0.8136829578829
 s    1 1.00
                 0.122                   1
 p    1 1.00
                 0.727                   1

28 0
 s    8 1.00
                  6665  0.00069158396281299
                  1000  0.0053257961529341
                   228   0.027060721042034
                 64.71    0.10165684614077
                 21.06     0.2745748236174
                 7.495    0.44829431892377
                 2.797    0.28490261071525
                0.5215   0.015194859206082
 s    8 1.00
                  6665  -0.00029326965268655
                  1000  -0.0023180354739745
                   228  -0.011499786038565
                 64.71  -0.046826727009787
                 21.06   -0.12846616875047
                 7.495   -0.30126627246289
                 2.797   -0.25563070233011
                0.5215      1.093793361012
 s    1 1.00
                0.1596                   1
 p    3 1.00
                 9.439   0.056979251590039
                 2.002    0.31320721150073
                0.5456    0.76037674173753
 p    1 1.00
                0.1517                   1
 d    1 1.00
                  0.55                   1

29 0
 s    3 1.00
                 13.01   0.033498726389998
                 1.962    0.23480080117413
                0.4446     0.8136829578829
 s    1 1.00
                 0.122                   1
 p    1 1.00
                 0.727                   1

30 0
 s    3 1.00
                 13.01   0.033498726389998
                 1.962    0.23480080117413
                0.4446     0.8136829578829
 s    1 1.00
                 0.122                   1
 p    1 1.00
                 0.727                   1

31 0
 s    8 1.00
                  6665  0.00069158396281299
                  1000  0.0053257961529341
                   228   0.027060721042034
                 64.71    0.10165684614077
                 21.06     0.2745748236174
                 7.495    0.44829431892377
                 2.797    0.28490261071525
                0.5215   0.015194859206082
 s    8 1.00
                  6665  -0.00029326965268655
                  1000  -0.0023180354739745
                   228  -0.011499786038565
                 64.71  -0.046826727009787
                 21.06   -0.12846616875047
                 7.495   -0.30126627246289
                 2.797   -0.25563070233011
                0.5215      1.093793361012
 s    1 1.00
                0.1596                   1
 p    3 1.00
                 9.439   0.056979251590039
                 2.002    0.31320721150073
                0.5456    0.76037674173753
 p    1 1.00
                0.1517                   1
 d    1 1.00
                  0.55                   1

32 0
 s    3 1.00
                 13.01   0.033498726389998
                 1.962    0.23480080117413
                0.4446     0.8136829578829
 s    1 1.00
                 0.122                   1
 p    1 1.00
                 0.727                   1

33 0
 s    3 1.00
                 13.01   0.033498726389998
                 1.962    0.23480080117413
                0.4446     0.8136829578829
 s    1 1.00
                 0.122                   1
 p    1 1.00
                 0.727                   1

34 0
 s    3 1.00
                 13.01   0.033498726389998
                 1.962    0.23480080117413
                0.4446     0.8136829578829
 s    1 1.00
                 0.122                   1
 p    1 1.00
                 0.727                   1

35 0
 s    3 1.00
                 13.01   0.033498726389998
                 1.962    0.23480080117413
                0.4446     0.8136829578829
 s    1 1.00
                 0.122                   1
 p    1 1.00
                 0.727                   1

36 0
 s    3 1.00
                 13.01   0.033498726389998
                 1.962    0.23480080117413
                0.4446     0.8136829578829
 s    1 1.00
                 0.122                   1
 p    1 1.00
                 0.727                   1

37 0
 s    3 1.00
                 13.01   0.033498726389998
                 1.962    0.23480080117413
                0.4446     0.8136829578829
 s    1 1.00
                 0.122                   1
 p    1 1.00
                 0.727                   1

[5d]
[7f]
[9g]

[MO]
 Sym= A
 Ene=               0
 Spin= Alpha
 Occup=    1.00000
   1    -6.6962830266088e-05
   2    -4.9373512756161e-05
   3    0.00013428788657688
   4    -4.6255113623357e-08
   5    5.8854898727841e-06
   6    1.2740406261674e-05
   7    5.3826888786137e-07
   8    -2.6026996601774e-05
   9    -8.2506503494022e-05
  10    7.7854839947174e-06
  11    -5.2734818513792e-08
  12    -2.192220908361e-07
  13    3.7549286828946e-07
  14    6.1473888131898e-09
  15    -1.7391951208192e-05
  16    -0.00020845135564075
  17    -2.8467794984008e-07
  18    1.9895283112343e-06
  19    -4.1785019083124e-06
  20    -7.4634149606641e-06
  21    7.0187971667881e-05
  22    1.6531317003645e-07
  23    -4.0263181586697e-06
  24    1.4631915221902e-06
  25       1.0013730873777
  26     0.001976194839005
  27    -0.0068883534268432
  28    -4.9856887517743e-06
  29    9.7573644134224e-06
  30    -0.0016457614031845
  31    -3.085657534876e-07
  32    -2.2594542529065e-06
  33     0.001904431847154
  34    0.00011611974170994
  35    -2.8765199676163e-06
  36    1.4528504414434e-06
  37    6.694095886711e-05
  38    -0.00017425229571865
  39    0.00028347355683471
  40    0.00039329132923525
  41    0.0014887398866589
  42    1.5674610137182e-05
  43    -9.9788877479774e-06
  44    1.141018890937e-05
  45    8.2240417760953e-05
  46    -6.5053513189663e-05
  47     0.003627477409218
  48    -0.00051659280319293
  49    -8.2914531867638e-06
  50    2.562029498403e-06
  51    2.9568431682273e-05
  52    -0.0001094518383253
  53    -8.4665537673135e-05
  54    -0.00016564607832213
  55    0.0013813716399091
  56    7.8422087586577e-05
  57    -7.3211312182012e-06
  58    -3.492066758696e-05
  59    -0.00042608717349159
  60    0.00048037927973711
  61    -0.00095621440279481
  62    -0.00011659753948158
  63    0.00014985769521758
  64    -0.00014313081954456
  65    5.4535026007895e-05
  66    -0.00012812669392631
  67    -3.9211202659702e-05
  68    -9.6507218994354e-05
  69    0.00051726954338858
  70    -6.1600329831571e-05
  71    4.0675034740245e-05
  72    -6.209988488356e-05
  73    0.0010109009462198
  74    -0.00077717895841321
  75    -0.00065226775161356
  76    -0.00013997772732988
  77    -0.00012111877187077
  78    8.9761094852728e-05
  79    5.8542609182154e-05
  80    -0.00015054315284063
  81    -6.1256054141658e-05
  82    0.00021295382577966
  83    6.6605869653509e-05
  84    -4.8942372020078e-05
  85    4.7904414245772e-05
  86    2.5076753809298e-05
  87    4.9068476873393e-05
  88    -0.00061664838723554
  89    -1.5702416341108e-05
  90    -1.7195176617262e-05
  91    1.1533101089033e-05
  92    0.00026005445184328
  93    0.00064013202329059
  94    -1.4212833715225e-05
  95    1.8616837352006e-05
  96    1.142164452905e-05
  97    7.760616628696e-06
  98    -1.9921962506322e-05
  99    -4.7320224691881e-05
 100    -3.9559066033627e-05
 101    -0.00016245199904798
 102    7.6065110937737e-06
 103    -1.0369566590269e-05
 104    7.6126484940406e-05
 105    -1.8978855640932e-05
 106    -0.00020451565983958
 107    -6.408448031946e-05
 108    9.3417333899266e-06
 109    7.5611250153353e-05
 110    7.7692290409585e-05
 111    -6.3463432088394e-05
 112    -4.4673532409557e-05
 113    1.9463985741261e-05
 114    7.0664571094784e-05
 115    -4.8642187033647e-05
 116    -9.9146382814249e-05
 117    0.00084716056383008
 118    -2.5014508978695e-05
 119    -1.0790610837847e-05
 120    3.2306846451721e-05
 121    0.00028716603959694
 122    3.4546200564791e-05
 123    -0.00014924475050175
 124    -6.2712569617625e-06
 125    1.1525819344128e-05
 126    1.5044402403253e-05
 127    -3.21392060818e-05
 128    5.0383749552378e-05
 129    -1.9642089188862e-05
 130    -0.0003308958870288
 131    7.8622254860502e-06
 132    5.9563583652503e-06
 133    2.9463831831013e-05
 134    2.5848640371469e-05
 135    -0.00011747428275753
 136    -1.3649046297131e-05
 137    -2.4805881640791e-05
 138    -2.7110004237239e-05
 139    -2.167043681723e-05
 140    -3.9472877461252e-05
 141    0.00029788449882845
 142    7.8169832881747e-06
 143    -2.7477399971993e-06
 144    -6.0799289758105e-06
 145    -0.00023125250352195
 146    5.6310845733505e-05
 147    6.1518869858504e-05
 148    -2.5120017880114e-06
 149    3.1710024287538e-06
 150    -4.0853161558243e-06
 151    1.2385126405969e-05
 152    -4.8797804023757e-06
 153    -9.7040910073887e-05
 154    -0.00010133517820301
 155    -2.6485582893762e-05
 156    2.8530163056157e-05
 157    1.9380043898241e-05
 158    -2.582959005151e-05
 159    -8.7506514221167e-05
 160    -5.9122041388475e-05
 161    -7.2111751788495e-06
 162    6.5801589887903e-06
 163    -1.3121279613677e-06
 164    -4.3734215038073e-06
 165    -0.00025392755079986
 166    -1.7922212880648e-05
 167    1.4225998064105e-05
 168    6.9057206627523e-06
 169    0.00023506577512327
 170    -0.0002104931860055
 171    -0.00013712406336682
 172    -2.6121582721104e-06
 173    9.9879881831635e-06
 174    -1.349858280664e-05
 175    3.1954566097407e-06
 176    -1.8000421705598e-05
 177    -1.6263937150255e-05
 178    8.5364978835543e-05
 179    -1.0153315606825e-06
 180    1.787969516627e-06
 181    -4.8187632112601e-06
 182    1.5741862939243e-05
 183    2.7924907659503e-05
 184    -7.2942253570915e-05
 185    -4.7021250091267e-06
 186    3.6949026068525e-06
 187    5.472114997272e-06
 188    0.00012926478792018
 189    -0.00010204533896252
 190    -8.8255683144855e-05
 191    1.2530345221104e-06
 192    2.2004846763672e-06
 193    -7.6431891084026e-06
 194    -3.0585184555033e-06
 195    -5.3984523623213e-06
 196    -1.3512890303397e-05
 197    -1.9113091307966e-05
 198    5.6626070117273e-06
 199    1.9371094450843e-06
 200    -3.3585301380425e-06
 201    -1.3050486230207e-05
 202    2.6046268264722e-06
 203    -1.3240340978216e-05
 204    9.8891305225044e-06
 205    1.1767191425593e-05
 206    8.6671101205351e-06
 207    6.8140144363315e-05
 208    -1.6072775898062e-05
 209    3.8980097632746e-06
 210    1.5761796795081e-05
 211    -1.8281756542826e-05
 212    -3.1618177878935e-05
 213    0.00026260734226326
 214    5.3557272629359e-06
 215    -2.2298352663396e-06
 216    -6.2216189075716e-06
 217    0.00019467450349914
 218    -5.2776070632092e-05
 219    -7.8340793565971e-05
 220    -2.0473756656909e-06
 221    -1.6444437012858e-05
 222    5.4943557244954e-06
 223    9.3220032800028e-06
 224    -1.844698101626e-06
 225    2.6007600077097e-05
 226    5.5487539385443e-05
 227    -1.2439712685887e-05
 228    -2.0311269170797e-06
 229    -9.7544073427539e-07
 230    9.9906551799729e-06
 231    5.4377901096489e-05
 232    -4.0408739873391e-06
 233    6.4063456482692e-06
 234    1.2075403718466e-05
 235    4.5212653372965e-07
 236    7.6283394708486e-07
 237    -7.8911670499127e-05
 238    2.2831708803881e-06
 239    2.0493120120126e-06
 240    -3.7888105873027e-06
 241    3.5915282369589e-05
 242    -6.3293663877995e-05
 243    1.8070021538898e-05
 244    1.9454753247826e-06
 245    1.8616723832545e-06
 246    -1.9043939411457e-06
 247    1.6274062147762e-07
 248    9.3276109642204e-07
 249    -1.7871788990621e-05
 250    1.1111641799021e-05
 251    -4.4799569395368e-06
 252    -8.5010157348198e-07
 253    5.4603471404158e-09
 254    -1.6210120944067e-05
 255    5.5815147151075e-05
 256    9.904213005072e-08
 257    4.3206491818114e-06
 258    -8.4403720585868e-07
 259    -1.0757205776402e-05
 260    -1.9203156455147e-05
 261    7.5501538397384e-05
 262    -3.4140621732264e-06