[Molden Format]
made by pyscf v[2.0.1]
[Atoms] (AU)
O   1   8     0.00000000000000     0.00000000000000     9.80791491072852
H   2   1     0.00000000000000     0.00000000000000     7.98451308882755
H   3   1    -0.05031916615174     1.78353065140343    10.18378660719519
O   4   8     0.00000000000000     0.00000000000000     2.31533471513237
C   5   6     0.00000000000000     0.00000000000000     0.00000000000000
C   6   6     2.01118073026938    -1.40227222164369    -1.50774939176400
C   7   6    -2.01249334291722     1.41331050329955    -1.50315905028694
H   8   1     3.32037363730244    -2.26721897153159    -0.13599698591495
C   9   6     3.45899267434009     0.28739631745591    -3.37437943254505
H   10   1     1.07662969841332    -2.94725144642667    -2.56541439481080
H   11   1    -2.67503415753480     0.18421555839588    -3.06194479365997
H   12   1    -1.07974048864772     3.03851734677796    -2.43674295017013
C   13   6    -4.21607110578555     2.32938802552922     0.11994162256091
H   14   1     4.24440173074564     1.93368664142019    -2.34976285512790
H   15   1     2.15020713235517     1.04714335134846    -4.81494497423699
C   16   6     5.60746363007797    -1.12419643481196    -4.70268606082550
H   17   1    -3.46838323670267     3.50951302338067     1.66946842715333
H   18   1    -5.11873485366228     0.68575958301209     1.04047743976495
C   19   6    -6.18314754751344     3.80909592987882    -1.39656589068747
H   20   1     6.93011263717176    -1.87550812453645    -3.26656317360070
C   21   6     7.06356622236532     0.52877932406334    -6.57829775293605
H   22   1     4.82318879258361    -2.78573437948532    -5.70504560381835
H   23   1    -6.91582688743803     2.61304780074712    -2.95074552451969
H   24   1    -5.26532430573853     5.45420349051338    -2.31005832200284
C   25   6    -8.39941882261433     4.73263980500213     0.21800571437956
H   26   1     7.83338371486801     2.19084139882824    -5.57093109900697
H   27   1     5.73544244039420     1.27376866537418    -8.01071492370229
C   28   6     9.21124858443101    -0.89699110072176    -7.88926949186242
H   29   1    -7.66272760055236     5.92277078003992     1.77035591474408
H   30   1    -9.31497248082589     3.08753015622020     1.12614408368786
C   31   6   -10.35481709231879     6.21833079391143    -1.30905206253246
H   32   1    10.58815905329501    -1.61074586756696    -6.49512691622620
H   33   1    10.23506248045667     0.32468009384095    -9.23072870921204
H   34   1     8.47665842847139    -2.53598436989925    -8.94921964622535
H   35   1    -9.48948872868064     7.90013588951020    -2.18823918416067
H   36   1   -11.93332513000955     6.86460487874102    -0.11255798845995
H   37   1   -11.15126291841033     5.04495968327630    -2.83849898862534
[GTO]
1 0
 s    8 1.00
                 11720  0.00070964594651845
                  1759  0.0054672722921914
                 400.8   0.027823118610189
                 113.7    0.10474773971146
                 37.03    0.28292084635691
                 13.27    0.44849523869833
                 5.025    0.27081688521277
                 1.013    0.01545029160744
 s    8 1.00
                 11720  -0.00031444341168873
                  1759  -0.0024821376810179
                 400.8  -0.012316355381583
                 113.7  -0.050538917343672
                 37.03   -0.13938490331632
                 13.27   -0.32507749481778
                 5.025   -0.22984830758785
                 1.013     1.0953793467883
 s    1 1.00
                0.3023                   1
 p    3 1.00
                  17.7   0.062679166281506
                 3.854    0.33353656587936
                 1.046    0.74123964163973
 p    1 1.00
                0.2753                   1
 d    1 1.00
                 1.185                   1

2 0
 s    3 1.00
                 13.01   0.033498726389998
                 1.962    0.23480080117413
                0.4446     0.8136829578829
 s    1 1.00
                 0.122                   1
 p    1 1.00
                 0.727                   1

3 0
 s    3 1.00
                 13.01   0.033498726389998
                 1.962    0.23480080117413
                0.4446     0.8136829578829
 s    1 1.00
                 0.122                   1
 p    1 1.00
                 0.727                   1

4 0
 s    8 1.00
                 11720  0.00070964594651845
                  1759  0.0054672722921914
                 400.8   0.027823118610189
                 113.7    0.10474773971146
                 37.03    0.28292084635691
                 13.27    0.44849523869833
                 5.025    0.27081688521277
                 1.013    0.01545029160744
 s    8 1.00
                 11720  -0.00031444341168873
                  1759  -0.0024821376810179
                 400.8  -0.012316355381583
                 113.7  -0.050538917343672
                 37.03   -0.13938490331632
                 13.27   -0.32507749481778
                 5.025   -0.22984830758785
                 1.013     1.0953793467883
 s    1 1.00
                0.3023                   1
 p    3 1.00
                  17.7   0.062679166281506
                 3.854    0.33353656587936
                 1.046    0.74123964163973
 p    1 1.00
                0.2753                   1
 d    1 1.00
                 1.185                   1

5 0
 s    8 1.00
                  6665  0.00069158396281299
                  1000  0.0053257961529341
                   228   0.027060721042034
                 64.71    0.10165684614077
                 21.06     0.2745748236174
                 7.495    0.44829431892377
                 2.797    0.28490261071525
                0.5215   0.015194859206082
 s    8 1.00
                  6665  -0.00029326965268655
                  1000  -0.0023180354739745
                   228  -0.011499786038565
                 64.71  -0.046826727009787
                 21.06   -0.12846616875047
                 7.495   -0.30126627246289
                 2.797   -0.25563070233011
                0.5215      1.093793361012
 s    1 1.00
                0.1596                   1
 p    3 1.00
                 9.439   0.056979251590039
                 2.002    0.31320721150073
                0.5456    0.76037674173753
 p    1 1.00
                0.1517                   1
 d    1 1.00
                  0.55                   1

6 0
 s    8 1.00
                  6665  0.00069158396281299
                  1000  0.0053257961529341
                   228   0.027060721042034
                 64.71    0.10165684614077
                 21.06     0.2745748236174
                 7.495    0.44829431892377
                 2.797    0.28490261071525
                0.5215   0.015194859206082
 s    8 1.00
                  6665  -0.00029326965268655
                  1000  -0.0023180354739745
                   228  -0.011499786038565
                 64.71  -0.046826727009787
                 21.06   -0.12846616875047
                 7.495   -0.30126627246289
                 2.797   -0.25563070233011
                0.5215      1.093793361012
 s    1 1.00
                0.1596                   1
 p    3 1.00
                 9.439   0.056979251590039
                 2.002    0.31320721150073
                0.5456    0.76037674173753
 p    1 1.00
                0.1517                   1
 d    1 1.00
                  0.55                   1

7 0
 s    8 1.00
                  6665  0.00069158396281299
                  1000  0.0053257961529341
                   228   0.027060721042034
                 64.71    0.10165684614077
                 21.06     0.2745748236174
                 7.495    0.44829431892377
                 2.797    0.28490261071525
                0.5215   0.015194859206082
 s    8 1.00
                  6665  -0.00029326965268655
                  1000  -0.0023180354739745
                   228  -0.011499786038565
                 64.71  -0.046826727009787
                 21.06   -0.12846616875047
                 7.495   -0.30126627246289
                 2.797   -0.25563070233011
                0.5215      1.093793361012
 s    1 1.00
                0.1596                   1
 p    3 1.00
                 9.439   0.056979251590039
                 2.002    0.31320721150073
                0.5456    0.76037674173753
 p    1 1.00
                0.1517                   1
 d    1 1.00
                  0.55                   1

8 0
 s    3 1.00
                 13.01   0.033498726389998
                 1.962    0.23480080117413
                0.4446     0.8136829578829
 s    1 1.00
                 0.122                   1
 p    1 1.00
                 0.727                   1

9 0
 s    8 1.00
                  6665  0.00069158396281299
                  1000  0.0053257961529341
                   228   0.027060721042034
                 64.71    0.10165684614077
                 21.06     0.2745748236174
                 7.495    0.44829431892377
                 2.797    0.28490261071525
                0.5215   0.015194859206082
 s    8 1.00
                  6665  -0.00029326965268655
                  1000  -0.0023180354739745
                   228  -0.011499786038565
                 64.71  -0.046826727009787
                 21.06   -0.12846616875047
                 7.495   -0.30126627246289
                 2.797   -0.25563070233011
                0.5215      1.093793361012
 s    1 1.00
                0.1596                   1
 p    3 1.00
                 9.439   0.056979251590039
                 2.002    0.31320721150073
                0.5456    0.76037674173753
 p    1 1.00
                0.1517                   1
 d    1 1.00
                  0.55                   1

10 0
 s    3 1.00
                 13.01   0.033498726389998
                 1.962    0.23480080117413
                0.4446     0.8136829578829
 s    1 1.00
                 0.122                   1
 p    1 1.00
                 0.727                   1

11 0
 s    3 1.00
                 13.01   0.033498726389998
                 1.962    0.23480080117413
                0.4446     0.8136829578829
 s    1 1.00
                 0.122                   1
 p    1 1.00
                 0.727                   1

12 0
 s    3 1.00
                 13.01   0.033498726389998
                 1.962    0.23480080117413
                0.4446     0.8136829578829
 s    1 1.00
                 0.122                   1
 p    1 1.00
                 0.727                   1

13 0
 s    8 1.00
                  6665  0.00069158396281299
                  1000  0.0053257961529341
                   228   0.027060721042034
                 64.71    0.10165684614077
                 21.06     0.2745748236174
                 7.495    0.44829431892377
                 2.797    0.28490261071525
                0.5215   0.015194859206082
 s    8 1.00
                  6665  -0.00029326965268655
                  1000  -0.0023180354739745
                   228  -0.011499786038565
                 64.71  -0.046826727009787
                 21.06   -0.12846616875047
                 7.495   -0.30126627246289
                 2.797   -0.25563070233011
                0.5215      1.093793361012
 s    1 1.00
                0.1596                   1
 p    3 1.00
                 9.439   0.056979251590039
                 2.002    0.31320721150073
                0.5456    0.76037674173753
 p    1 1.00
                0.1517                   1
 d    1 1.00
                  0.55                   1

14 0
 s    3 1.00
                 13.01   0.033498726389998
                 1.962    0.23480080117413
                0.4446     0.8136829578829
 s    1 1.00
                 0.122                   1
 p    1 1.00
                 0.727                   1

15 0
 s    3 1.00
                 13.01   0.033498726389998
                 1.962    0.23480080117413
                0.4446     0.8136829578829
 s    1 1.00
                 0.122                   1
 p    1 1.00
                 0.727                   1

16 0
 s    8 1.00
                  6665  0.00069158396281299
                  1000  0.0053257961529341
                   228   0.027060721042034
                 64.71    0.10165684614077
                 21.06     0.2745748236174
                 7.495    0.44829431892377
                 2.797    0.28490261071525
                0.5215   0.015194859206082
 s    8 1.00
                  6665  -0.00029326965268655
                  1000  -0.0023180354739745
                   228  -0.011499786038565
                 64.71  -0.046826727009787
                 21.06   -0.12846616875047
                 7.495   -0.30126627246289
                 2.797   -0.25563070233011
                0.5215      1.093793361012
 s    1 1.00
                0.1596                   1
 p    3 1.00
                 9.439   0.056979251590039
                 2.002    0.31320721150073
                0.5456    0.76037674173753
 p    1 1.00
                0.1517                   1
 d    1 1.00
                  0.55                   1

17 0
 s    3 1.00
                 13.01   0.033498726389998
                 1.962    0.23480080117413
                0.4446     0.8136829578829
 s    1 1.00
                 0.122                   1
 p    1 1.00
                 0.727                   1

18 0
 s    3 1.00
                 13.01   0.033498726389998
                 1.962    0.23480080117413
                0.4446     0.8136829578829
 s    1 1.00
                 0.122                   1
 p    1 1.00
                 0.727                   1

19 0
 s    8 1.00
                  6665  0.00069158396281299
                  1000  0.0053257961529341
                   228   0.027060721042034
                 64.71    0.10165684614077
                 21.06     0.2745748236174
                 7.495    0.44829431892377
                 2.797    0.28490261071525
                0.5215   0.015194859206082
 s    8 1.00
                  6665  -0.00029326965268655
                  1000  -0.0023180354739745
                   228  -0.011499786038565
                 64.71  -0.046826727009787
                 21.06   -0.12846616875047
                 7.495   -0.30126627246289
                 2.797   -0.25563070233011
                0.5215      1.093793361012
 s    1 1.00
                0.1596                   1
 p    3 1.00
                 9.439   0.056979251590039
                 2.002    0.31320721150073
                0.5456    0.76037674173753
 p    1 1.00
                0.1517                   1
 d    1 1.00
                  0.55                   1

20 0
 s    3 1.00
                 13.01   0.033498726389998
                 1.962    0.23480080117413
                0.4446     0.8136829578829
 s    1 1.00
                 0.122                   1
 p    1 1.00
                 0.727                   1

21 0
 s    8 1.00
                  6665  0.00069158396281299
                  1000  0.0053257961529341
                   228   0.027060721042034
                 64.71    0.10165684614077
                 21.06     0.2745748236174
                 7.495    0.44829431892377
                 2.797    0.28490261071525
                0.5215   0.015194859206082
 s    8 1.00
                  6665  -0.00029326965268655
                  1000  -0.0023180354739745
                   228  -0.011499786038565
                 64.71  -0.046826727009787
                 21.06   -0.12846616875047
                 7.495   -0.30126627246289
                 2.797   -0.25563070233011
                0.5215      1.093793361012
 s    1 1.00
                0.1596                   1
 p    3 1.00
                 9.439   0.056979251590039
                 2.002    0.31320721150073
                0.5456    0.76037674173753
 p    1 1.00
                0.1517                   1
 d    1 1.00
                  0.55                   1

22 0
 s    3 1.00
                 13.01   0.033498726389998
                 1.962    0.23480080117413
                0.4446     0.8136829578829
 s    1 1.00
                 0.122                   1
 p    1 1.00
                 0.727                   1

23 0
 s    3 1.00
                 13.01   0.033498726389998
                 1.962    0.23480080117413
                0.4446     0.8136829578829
 s    1 1.00
                 0.122                   1
 p    1 1.00
                 0.727                   1

24 0
 s    3 1.00
                 13.01   0.033498726389998
                 1.962    0.23480080117413
                0.4446     0.8136829578829
 s    1 1.00
                 0.122                   1
 p    1 1.00
                 0.727                   1

25 0
 s    8 1.00
                  6665  0.00069158396281299
                  1000  0.0053257961529341
                   228   0.027060721042034
                 64.71    0.10165684614077
                 21.06     0.2745748236174
                 7.495    0.44829431892377
                 2.797    0.28490261071525
                0.5215   0.015194859206082
 s    8 1.00
                  6665  -0.00029326965268655
                  1000  -0.0023180354739745
                   228  -0.011499786038565
                 64.71  -0.046826727009787
                 21.06   -0.12846616875047
                 7.495   -0.30126627246289
                 2.797   -0.25563070233011
                0.5215      1.093793361012
 s    1 1.00
                0.1596                   1
 p    3 1.00
                 9.439   0.056979251590039
                 2.002    0.31320721150073
                0.5456    0.76037674173753
 p    1 1.00
                0.1517                   1
 d    1 1.00
                  0.55                   1

26 0
 s    3 1.00
                 13.01   0.033498726389998
                 1.962    0.23480080117413
                0.4446     0.8136829578829
 s    1 1.00
                 0.122                   1
 p    1 1.00
                 0.727                   1

27 0
 s    3 1.00
                 13.01   0.033498726389998
                 1.962    0.23480080117413
                0.4446     0.8136829578829
 s    1 1.00
                 0.122                   1
 p    1 1.00
                 0.727                   1

28 0
 s    8 1.00
                  6665  0.00069158396281299
                  1000  0.0053257961529341
                   228   0.027060721042034
                 64.71    0.10165684614077
                 21.06     0.2745748236174
                 7.495    0.44829431892377
                 2.797    0.28490261071525
                0.5215   0.015194859206082
 s    8 1.00
                  6665  -0.00029326965268655
                  1000  -0.0023180354739745
                   228  -0.011499786038565
                 64.71  -0.046826727009787
                 21.06   -0.12846616875047
                 7.495   -0.30126627246289
                 2.797   -0.25563070233011
                0.5215      1.093793361012
 s    1 1.00
                0.1596                   1
 p    3 1.00
                 9.439   0.056979251590039
                 2.002    0.31320721150073
                0.5456    0.76037674173753
 p    1 1.00
                0.1517                   1
 d    1 1.00
                  0.55                   1

29 0
 s    3 1.00
                 13.01   0.033498726389998
                 1.962    0.23480080117413
                0.4446     0.8136829578829
 s    1 1.00
                 0.122                   1
 p    1 1.00
                 0.727                   1

30 0
 s    3 1.00
                 13.01   0.033498726389998
                 1.962    0.23480080117413
                0.4446     0.8136829578829
 s    1 1.00
                 0.122                   1
 p    1 1.00
                 0.727                   1

31 0
 s    8 1.00
                  6665  0.00069158396281299
                  1000  0.0053257961529341
                   228   0.027060721042034
                 64.71    0.10165684614077
                 21.06     0.2745748236174
                 7.495    0.44829431892377
                 2.797    0.28490261071525
                0.5215   0.015194859206082
 s    8 1.00
                  6665  -0.00029326965268655
                  1000  -0.0023180354739745
                   228  -0.011499786038565
                 64.71  -0.046826727009787
                 21.06   -0.12846616875047
                 7.495   -0.30126627246289
                 2.797   -0.25563070233011
                0.5215      1.093793361012
 s    1 1.00
                0.1596                   1
 p    3 1.00
                 9.439   0.056979251590039
                 2.002    0.31320721150073
                0.5456    0.76037674173753
 p    1 1.00
                0.1517                   1
 d    1 1.00
                  0.55                   1

32 0
 s    3 1.00
                 13.01   0.033498726389998
                 1.962    0.23480080117413
                0.4446     0.8136829578829
 s    1 1.00
                 0.122                   1
 p    1 1.00
                 0.727                   1

33 0
 s    3 1.00
                 13.01   0.033498726389998
                 1.962    0.23480080117413
                0.4446     0.8136829578829
 s    1 1.00
                 0.122                   1
 p    1 1.00
                 0.727                   1

34 0
 s    3 1.00
                 13.01   0.033498726389998
                 1.962    0.23480080117413
                0.4446     0.8136829578829
 s    1 1.00
                 0.122                   1
 p    1 1.00
                 0.727                   1

35 0
 s    3 1.00
                 13.01   0.033498726389998
                 1.962    0.23480080117413
                0.4446     0.8136829578829
 s    1 1.00
                 0.122                   1
 p    1 1.00
                 0.727                   1

36 0
 s    3 1.00
                 13.01   0.033498726389998
                 1.962    0.23480080117413
                0.4446     0.8136829578829
 s    1 1.00
                 0.122                   1
 p    1 1.00
                 0.727                   1

37 0
 s    3 1.00
                 13.01   0.033498726389998
                 1.962    0.23480080117413
                0.4446     0.8136829578829
 s    1 1.00
                 0.122                   1
 p    1 1.00
                 0.727                   1

[5d]
[7f]
[9g]

[MO]
 Sym= A
 Ene=               0
 Spin= Alpha
 Occup=    1.00000
   1    -5.1622080666143e-05
   2    -3.5691958779463e-05
   3    0.00011892500764453
   4    -8.9791264902849e-08
   5    4.7773077770611e-06
   6    3.9829692143356e-06
   7    5.8583708346351e-07
   8    -2.330813546969e-05
   9    -8.1574975698636e-05
  10    1.2763525319444e-05
  11    -1.3698053184314e-09
  12    -7.8547353613868e-07
  13    4.1391867664114e-07
  14    1.730591425098e-08
  15    -1.547392704409e-05
  16    -0.00017300870335604
  17    -1.3050031809128e-07
  18    1.5327498917366e-06
  19    -3.2975761944764e-05
  20    -7.5190202713043e-06
  21    6.4622690551313e-05
  22    1.8199443954768e-07
  23    -5.7186342739171e-06
  24    2.5421374658211e-06
  25       1.0013660794366
  26    0.0019605433823452
  27    -0.0068261568534957
  28    -4.7865262561431e-06
  29    8.6634480256434e-06
  30    -0.0016524764053658
  31    -2.8021082559419e-07
  32    -1.6710186950681e-06
  33    0.0018543493381984
  34    0.00012284229677473
  35    -2.9472953719904e-06
  36    1.3853506165423e-06
  37    6.7337799338315e-05
  38    -0.00017533374149952
  39    0.00027721753531602
  40    0.00037989487465928
  41    0.0014412330918676
  42    1.5312882736615e-05
  43    -9.961702267988e-06
  44    -1.761146859543e-06
  45    8.1386632260161e-05
  46    -6.3751053419785e-05
  47    0.0035776770824082
  48    -0.00052831591767866
  49    -8.3960960990383e-06
  50    2.4812485002945e-06
  51    2.9053798071382e-05
  52    -0.00010812801929453
  53    -8.4899203539638e-05
  54    -0.00016605950969994
  55    0.0013741450283655
  56    7.8213406216372e-05
  57    -7.3866712950364e-06
  58    -3.5635158092894e-05
  59    -0.00042406302064105
  60    0.00047792730497763
  61    -0.00093726584762529
  62    -0.00011723219599651
  63    0.00015003490464091
  64    -0.00014296655374234
  65    5.4887652195463e-05
  66    -0.00012935204708412
  67    -3.9814660206929e-05
  68    -9.7510368123568e-05
  69    0.00051206501727131
  70    -6.1191444486448e-05
  71    4.020158791212e-05
  72    -6.2387225316739e-05
  73    0.0010046383159673
  74    -0.00077281316174679
  75    -0.0006430389117504
  76    -0.00014063726290896
  77    -0.00012083637871238
  78    8.9702766128493e-05
  79    5.8799484282422e-05
  80    -0.00015134920509983
  81    -6.3400089811364e-05
  82    0.00020885419660457
  83    6.6230562955749e-05
  84    -4.866911934366e-05
  85    4.8607171058506e-05
  86    2.5041350910532e-05
  87    4.9001140122551e-05
  88    -0.00060929188537983
  89    -1.5833842158299e-05
  90    -1.7099269624362e-05
  91    1.1907999438462e-05
  92    0.00025775593065712
  93    0.00063057939171311
  94    -1.7137424485659e-05
  95    1.8260414507529e-05
  96    1.1252449189007e-05
  97    7.4442463313011e-06
  98    -2.0354948864402e-05
  99    -4.626684141309e-05
 100    -3.8060905309529e-05
 101    -0.00015960292511105
 102    8.6272214778926e-06
 103    -1.0006777470801e-05
 104    7.5046304644525e-05
 105    -1.8291560569816e-05
 106    -0.00020222472421067
 107    -6.4298820276893e-05
 108    1.0457610711529e-05
 109    7.4957741755353e-05
 110    7.7441807161021e-05
 111    -6.07408408837e-05
 112    -4.5179359357813e-05
 113    1.8848810356759e-05
 114    6.9984068866297e-05
 115    -4.9429792576547e-05
 116    -0.00010056208265807
 117    0.00084522772013188
 118    -2.5712435147774e-05
 119    -1.0332798138677e-05
 120    3.2515558296701e-05
 121    0.00029195501501217
 122    3.1626962992409e-05
 123    -0.00014287635732514
 124    -6.4088428442926e-06
 125    1.2075945954307e-05
 126    1.5439429978187e-05
 127    -3.2056385112632e-05
 128    4.9904882924511e-05
 129    -1.9224954144037e-05
 130    -0.00032522561878681
 131    7.6350984320628e-06
 132    5.8965056395025e-06
 133    2.9292800488181e-05
 134    2.5872307147877e-05
 135    -0.0001180649706097
 136    -1.3529724697441e-05
 137    -2.4356482858254e-05
 138    -2.6771021944307e-05
 139    -2.1372897906983e-05
 140    -3.8836400219007e-05
 141    0.00029132853520525
 142    7.9189557782516e-06
 143    -2.4922443054879e-06
 144    -6.2239012949978e-06
 145    -0.00023019655625378
 146    5.366798772591e-05
 147    6.2875286855996e-05
 148    -2.42801458065e-06
 149    3.1078870080842e-06
 150    -3.7191942540255e-06
 151    1.2108084629927e-05
 152    -4.9292132673272e-06
 153    -9.6858665708843e-05
 154    -0.00010739965452146
 155    -2.6175161914692e-05
 156    2.9241330124558e-05
 157    1.9897843271531e-05
 158    -2.5892991280165e-05
 159    -8.9054862040978e-05
 160    -5.9242529748329e-05
 161    -7.1479710330915e-06
 162    6.3959718429045e-06
 163    -2.257046779176e-06
 164    -5.2031350124461e-06
 165    -0.00024632372865656
 166    -1.7991297052851e-05
 167    1.4356662028663e-05
 168    7.0076085020009e-06
 169    0.00023553797023776
 170    -0.00021109274958796
 171    -0.00013419008219187
 172    -2.6988345830844e-06
 173    1.0483370380542e-05
 174    -1.3420537887341e-05
 175    2.8733843784246e-06
 176    -1.8147710784304e-05
 177    -1.6070878950034e-05
 178    8.436178820054e-05
 179    -8.6988074718105e-07
 180    1.9091342840782e-06
 181    -4.9177738134087e-06
 182    1.536555413572e-05
 183    2.7197436412549e-05
 184    -6.8531734140794e-05
 185    -4.7640660766422e-06
 186    3.6485228788735e-06
 187    5.4627441228245e-06
 188    0.00012763933932072
 189    -0.00010213240717117
 190    -8.6095409843871e-05
 191    1.2488429168239e-06
 192    2.0102596171579e-06
 193    -7.7761056167452e-06
 194    -2.8842574809618e-06
 195    -5.2045174332326e-06
 196    -1.3732334873018e-05
 197    -1.8869322305616e-05
 198    5.645508915062e-06
 199    1.9493660217783e-06
 200    -3.483215427953e-06
 201    -1.294364476399e-05
 202    3.8853973106148e-06
 203    -1.3184209014701e-05
 204    9.9255871251548e-06
 205    1.1814579692714e-05
 206    7.7091800699964e-06
 207    6.6748848982116e-05
 208    -1.6126634531907e-05
 209    3.932875815823e-06
 210    1.5675926536408e-05
 211    -1.2353133631346e-05
 212    -4.85625313413e-05
 213    0.00024690902705868
 214    1.5168353264161e-05
 215    2.1504693023866e-06
 216    -1.1511958183155e-05
 217    0.00020039667903358
 218    -5.1652968480965e-05
 219    -7.9475331688821e-05
 220    -1.5673495482816e-06
 221    -1.6446606485475e-05
 222    6.0931496489003e-06
 223    9.5462838485811e-06
 224    -1.8411946194035e-06
 225    2.5218313823811e-05
 226    5.4133078566649e-05
 227    -1.2342193701508e-05
 228    -1.9408043070534e-06
 229    -9.7678250334461e-07
 230    9.9150328649111e-06
 231    5.4555067572005e-05
 232    -3.9971517666681e-06
 233    6.3298222740768e-06
 234    1.2000125594958e-05
 235    5.6692310326396e-06
 236    2.2762220396211e-06
 237    -7.7701333642299e-05
 238    5.7308234472518e-06
 239    5.2047753210357e-06
 240    -3.4218629893777e-06
 241    3.7178019563228e-05
 242    -6.1350652006775e-05
 243    1.8012918505791e-05
 244    1.9748807186541e-06
 245    1.7571897920498e-06
 246    -2.1987771928717e-06
 247    2.4408742569685e-07
 248    9.0711572322843e-07
 249    -2.3745934322711e-05
 250    1.3224564981263e-05
 251    -3.9557545070544e-06
 252    -1.5592135623867e-07
 253    4.0811270440468e-07
 254    -3.3890877978598e-05
 255    5.0739087448869e-05
 256    -6.4002454996341e-07
 257    2.9799777102621e-06
 258    -1.79991468655e-07
 259    -2.4105334313941e-06
 260    -1.9411807927288e-05
 261    7.8348174824387e-05
 262    -7.735653682131e-06