[Molden Format]
made by pyscf v[2.0.1]
[Atoms] (AU)
O   1   8     0.00000000000000     0.00000000000000     9.05202446090250
H   2   1     0.00000000000000     0.00000000000000     7.22862263900153
H   3   1    -0.05031916615174     1.78353065140343     9.42789615736916
O   4   8     0.00000000000000     0.00000000000000     2.31533471513237
C   5   6     0.00000000000000     0.00000000000000     0.00000000000000
C   6   6     2.01118073026938    -1.40227222164369    -1.50774939176400
C   7   6    -2.01249334291722     1.41331050329955    -1.50315905028694
H   8   1     3.32037363730244    -2.26721897153159    -0.13599698591495
C   9   6     3.45899267434009     0.28739631745591    -3.37437943254505
H   10   1     1.07662969841332    -2.94725144642667    -2.56541439481080
H   11   1    -2.67503415753480     0.18421555839588    -3.06194479365997
H   12   1    -1.07974048864772     3.03851734677796    -2.43674295017013
C   13   6    -4.21607110578555     2.32938802552922     0.11994162256091
H   14   1     4.24440173074564     1.93368664142019    -2.34976285512790
H   15   1     2.15020713235517     1.04714335134846    -4.81494497423699
C   16   6     5.60746363007797    -1.12419643481196    -4.70268606082550
H   17   1    -3.46838323670267     3.50951302338067     1.66946842715333
H   18   1    -5.11873485366228     0.68575958301209     1.04047743976495
C   19   6    -6.18314754751344     3.80909592987882    -1.39656589068747
H   20   1     6.93011263717176    -1.87550812453645    -3.26656317360070
C   21   6     7.06356622236532     0.52877932406334    -6.57829775293605
H   22   1     4.82318879258361    -2.78573437948532    -5.70504560381835
H   23   1    -6.91582688743803     2.61304780074712    -2.95074552451969
H   24   1    -5.26532430573853     5.45420349051338    -2.31005832200284
C   25   6    -8.39941882261433     4.73263980500213     0.21800571437956
H   26   1     7.83338371486801     2.19084139882824    -5.57093109900697
H   27   1     5.73544244039420     1.27376866537418    -8.01071492370229
C   28   6     9.21124858443101    -0.89699110072176    -7.88926949186242
H   29   1    -7.66272760055236     5.92277078003992     1.77035591474408
H   30   1    -9.31497248082589     3.08753015622020     1.12614408368786
C   31   6   -10.35481709231879     6.21833079391143    -1.30905206253246
H   32   1    10.58815905329501    -1.61074586756696    -6.49512691622620
H   33   1    10.23506248045667     0.32468009384095    -9.23072870921204
H   34   1     8.47665842847139    -2.53598436989925    -8.94921964622535
H   35   1    -9.48948872868064     7.90013588951020    -2.18823918416067
H   36   1   -11.93332513000955     6.86460487874102    -0.11255798845995
H   37   1   -11.15126291841033     5.04495968327630    -2.83849898862534
[GTO]
1 0
 s    8 1.00
                 11720  0.00070964594651845
                  1759  0.0054672722921914
                 400.8   0.027823118610189
                 113.7    0.10474773971146
                 37.03    0.28292084635691
                 13.27    0.44849523869833
                 5.025    0.27081688521277
                 1.013    0.01545029160744
 s    8 1.00
                 11720  -0.00031444341168873
                  1759  -0.0024821376810179
                 400.8  -0.012316355381583
                 113.7  -0.050538917343672
                 37.03   -0.13938490331632
                 13.27   -0.32507749481778
                 5.025   -0.22984830758785
                 1.013     1.0953793467883
 s    1 1.00
                0.3023                   1
 p    3 1.00
                  17.7   0.062679166281506
                 3.854    0.33353656587936
                 1.046    0.74123964163973
 p    1 1.00
                0.2753                   1
 d    1 1.00
                 1.185                   1

2 0
 s    3 1.00
                 13.01   0.033498726389998
                 1.962    0.23480080117413
                0.4446     0.8136829578829
 s    1 1.00
                 0.122                   1
 p    1 1.00
                 0.727                   1

3 0
 s    3 1.00
                 13.01   0.033498726389998
                 1.962    0.23480080117413
                0.4446     0.8136829578829
 s    1 1.00
                 0.122                   1
 p    1 1.00
                 0.727                   1

4 0
 s    8 1.00
                 11720  0.00070964594651845
                  1759  0.0054672722921914
                 400.8   0.027823118610189
                 113.7    0.10474773971146
                 37.03    0.28292084635691
                 13.27    0.44849523869833
                 5.025    0.27081688521277
                 1.013    0.01545029160744
 s    8 1.00
                 11720  -0.00031444341168873
                  1759  -0.0024821376810179
                 400.8  -0.012316355381583
                 113.7  -0.050538917343672
                 37.03   -0.13938490331632
                 13.27   -0.32507749481778
                 5.025   -0.22984830758785
                 1.013     1.0953793467883
 s    1 1.00
                0.3023                   1
 p    3 1.00
                  17.7   0.062679166281506
                 3.854    0.33353656587936
                 1.046    0.74123964163973
 p    1 1.00
                0.2753                   1
 d    1 1.00
                 1.185                   1

5 0
 s    8 1.00
                  6665  0.00069158396281299
                  1000  0.0053257961529341
                   228   0.027060721042034
                 64.71    0.10165684614077
                 21.06     0.2745748236174
                 7.495    0.44829431892377
                 2.797    0.28490261071525
                0.5215   0.015194859206082
 s    8 1.00
                  6665  -0.00029326965268655
                  1000  -0.0023180354739745
                   228  -0.011499786038565
                 64.71  -0.046826727009787
                 21.06   -0.12846616875047
                 7.495   -0.30126627246289
                 2.797   -0.25563070233011
                0.5215      1.093793361012
 s    1 1.00
                0.1596                   1
 p    3 1.00
                 9.439   0.056979251590039
                 2.002    0.31320721150073
                0.5456    0.76037674173753
 p    1 1.00
                0.1517                   1
 d    1 1.00
                  0.55                   1

6 0
 s    8 1.00
                  6665  0.00069158396281299
                  1000  0.0053257961529341
                   228   0.027060721042034
                 64.71    0.10165684614077
                 21.06     0.2745748236174
                 7.495    0.44829431892377
                 2.797    0.28490261071525
                0.5215   0.015194859206082
 s    8 1.00
                  6665  -0.00029326965268655
                  1000  -0.0023180354739745
                   228  -0.011499786038565
                 64.71  -0.046826727009787
                 21.06   -0.12846616875047
                 7.495   -0.30126627246289
                 2.797   -0.25563070233011
                0.5215      1.093793361012
 s    1 1.00
                0.1596                   1
 p    3 1.00
                 9.439   0.056979251590039
                 2.002    0.31320721150073
                0.5456    0.76037674173753
 p    1 1.00
                0.1517                   1
 d    1 1.00
                  0.55                   1

7 0
 s    8 1.00
                  6665  0.00069158396281299
                  1000  0.0053257961529341
                   228   0.027060721042034
                 64.71    0.10165684614077
                 21.06     0.2745748236174
                 7.495    0.44829431892377
                 2.797    0.28490261071525
                0.5215   0.015194859206082
 s    8 1.00
                  6665  -0.00029326965268655
                  1000  -0.0023180354739745
                   228  -0.011499786038565
                 64.71  -0.046826727009787
                 21.06   -0.12846616875047
                 7.495   -0.30126627246289
                 2.797   -0.25563070233011
                0.5215      1.093793361012
 s    1 1.00
                0.1596                   1
 p    3 1.00
                 9.439   0.056979251590039
                 2.002    0.31320721150073
                0.5456    0.76037674173753
 p    1 1.00
                0.1517                   1
 d    1 1.00
                  0.55                   1

8 0
 s    3 1.00
                 13.01   0.033498726389998
                 1.962    0.23480080117413
                0.4446     0.8136829578829
 s    1 1.00
                 0.122                   1
 p    1 1.00
                 0.727                   1

9 0
 s    8 1.00
                  6665  0.00069158396281299
                  1000  0.0053257961529341
                   228   0.027060721042034
                 64.71    0.10165684614077
                 21.06     0.2745748236174
                 7.495    0.44829431892377
                 2.797    0.28490261071525
                0.5215   0.015194859206082
 s    8 1.00
                  6665  -0.00029326965268655
                  1000  -0.0023180354739745
                   228  -0.011499786038565
                 64.71  -0.046826727009787
                 21.06   -0.12846616875047
                 7.495   -0.30126627246289
                 2.797   -0.25563070233011
                0.5215      1.093793361012
 s    1 1.00
                0.1596                   1
 p    3 1.00
                 9.439   0.056979251590039
                 2.002    0.31320721150073
                0.5456    0.76037674173753
 p    1 1.00
                0.1517                   1
 d    1 1.00
                  0.55                   1

10 0
 s    3 1.00
                 13.01   0.033498726389998
                 1.962    0.23480080117413
                0.4446     0.8136829578829
 s    1 1.00
                 0.122                   1
 p    1 1.00
                 0.727                   1

11 0
 s    3 1.00
                 13.01   0.033498726389998
                 1.962    0.23480080117413
                0.4446     0.8136829578829
 s    1 1.00
                 0.122                   1
 p    1 1.00
                 0.727                   1

12 0
 s    3 1.00
                 13.01   0.033498726389998
                 1.962    0.23480080117413
                0.4446     0.8136829578829
 s    1 1.00
                 0.122                   1
 p    1 1.00
                 0.727                   1

13 0
 s    8 1.00
                  6665  0.00069158396281299
                  1000  0.0053257961529341
                   228   0.027060721042034
                 64.71    0.10165684614077
                 21.06     0.2745748236174
                 7.495    0.44829431892377
                 2.797    0.28490261071525
                0.5215   0.015194859206082
 s    8 1.00
                  6665  -0.00029326965268655
                  1000  -0.0023180354739745
                   228  -0.011499786038565
                 64.71  -0.046826727009787
                 21.06   -0.12846616875047
                 7.495   -0.30126627246289
                 2.797   -0.25563070233011
                0.5215      1.093793361012
 s    1 1.00
                0.1596                   1
 p    3 1.00
                 9.439   0.056979251590039
                 2.002    0.31320721150073
                0.5456    0.76037674173753
 p    1 1.00
                0.1517                   1
 d    1 1.00
                  0.55                   1

14 0
 s    3 1.00
                 13.01   0.033498726389998
                 1.962    0.23480080117413
                0.4446     0.8136829578829
 s    1 1.00
                 0.122                   1
 p    1 1.00
                 0.727                   1

15 0
 s    3 1.00
                 13.01   0.033498726389998
                 1.962    0.23480080117413
                0.4446     0.8136829578829
 s    1 1.00
                 0.122                   1
 p    1 1.00
                 0.727                   1

16 0
 s    8 1.00
                  6665  0.00069158396281299
                  1000  0.0053257961529341
                   228   0.027060721042034
                 64.71    0.10165684614077
                 21.06     0.2745748236174
                 7.495    0.44829431892377
                 2.797    0.28490261071525
                0.5215   0.015194859206082
 s    8 1.00
                  6665  -0.00029326965268655
                  1000  -0.0023180354739745
                   228  -0.011499786038565
                 64.71  -0.046826727009787
                 21.06   -0.12846616875047
                 7.495   -0.30126627246289
                 2.797   -0.25563070233011
                0.5215      1.093793361012
 s    1 1.00
                0.1596                   1
 p    3 1.00
                 9.439   0.056979251590039
                 2.002    0.31320721150073
                0.5456    0.76037674173753
 p    1 1.00
                0.1517                   1
 d    1 1.00
                  0.55                   1

17 0
 s    3 1.00
                 13.01   0.033498726389998
                 1.962    0.23480080117413
                0.4446     0.8136829578829
 s    1 1.00
                 0.122                   1
 p    1 1.00
                 0.727                   1

18 0
 s    3 1.00
                 13.01   0.033498726389998
                 1.962    0.23480080117413
                0.4446     0.8136829578829
 s    1 1.00
                 0.122                   1
 p    1 1.00
                 0.727                   1

19 0
 s    8 1.00
                  6665  0.00069158396281299
                  1000  0.0053257961529341
                   228   0.027060721042034
                 64.71    0.10165684614077
                 21.06     0.2745748236174
                 7.495    0.44829431892377
                 2.797    0.28490261071525
                0.5215   0.015194859206082
 s    8 1.00
                  6665  -0.00029326965268655
                  1000  -0.0023180354739745
                   228  -0.011499786038565
                 64.71  -0.046826727009787
                 21.06   -0.12846616875047
                 7.495   -0.30126627246289
                 2.797   -0.25563070233011
                0.5215      1.093793361012
 s    1 1.00
                0.1596                   1
 p    3 1.00
                 9.439   0.056979251590039
                 2.002    0.31320721150073
                0.5456    0.76037674173753
 p    1 1.00
                0.1517                   1
 d    1 1.00
                  0.55                   1

20 0
 s    3 1.00
                 13.01   0.033498726389998
                 1.962    0.23480080117413
                0.4446     0.8136829578829
 s    1 1.00
                 0.122                   1
 p    1 1.00
                 0.727                   1

21 0
 s    8 1.00
                  6665  0.00069158396281299
                  1000  0.0053257961529341
                   228   0.027060721042034
                 64.71    0.10165684614077
                 21.06     0.2745748236174
                 7.495    0.44829431892377
                 2.797    0.28490261071525
                0.5215   0.015194859206082
 s    8 1.00
                  6665  -0.00029326965268655
                  1000  -0.0023180354739745
                   228  -0.011499786038565
                 64.71  -0.046826727009787
                 21.06   -0.12846616875047
                 7.495   -0.30126627246289
                 2.797   -0.25563070233011
                0.5215      1.093793361012
 s    1 1.00
                0.1596                   1
 p    3 1.00
                 9.439   0.056979251590039
                 2.002    0.31320721150073
                0.5456    0.76037674173753
 p    1 1.00
                0.1517                   1
 d    1 1.00
                  0.55                   1

22 0
 s    3 1.00
                 13.01   0.033498726389998
                 1.962    0.23480080117413
                0.4446     0.8136829578829
 s    1 1.00
                 0.122                   1
 p    1 1.00
                 0.727                   1

23 0
 s    3 1.00
                 13.01   0.033498726389998
                 1.962    0.23480080117413
                0.4446     0.8136829578829
 s    1 1.00
                 0.122                   1
 p    1 1.00
                 0.727                   1

24 0
 s    3 1.00
                 13.01   0.033498726389998
                 1.962    0.23480080117413
                0.4446     0.8136829578829
 s    1 1.00
                 0.122                   1
 p    1 1.00
                 0.727                   1

25 0
 s    8 1.00
                  6665  0.00069158396281299
                  1000  0.0053257961529341
                   228   0.027060721042034
                 64.71    0.10165684614077
                 21.06     0.2745748236174
                 7.495    0.44829431892377
                 2.797    0.28490261071525
                0.5215   0.015194859206082
 s    8 1.00
                  6665  -0.00029326965268655
                  1000  -0.0023180354739745
                   228  -0.011499786038565
                 64.71  -0.046826727009787
                 21.06   -0.12846616875047
                 7.495   -0.30126627246289
                 2.797   -0.25563070233011
                0.5215      1.093793361012
 s    1 1.00
                0.1596                   1
 p    3 1.00
                 9.439   0.056979251590039
                 2.002    0.31320721150073
                0.5456    0.76037674173753
 p    1 1.00
                0.1517                   1
 d    1 1.00
                  0.55                   1

26 0
 s    3 1.00
                 13.01   0.033498726389998
                 1.962    0.23480080117413
                0.4446     0.8136829578829
 s    1 1.00
                 0.122                   1
 p    1 1.00
                 0.727                   1

27 0
 s    3 1.00
                 13.01   0.033498726389998
                 1.962    0.23480080117413
                0.4446     0.8136829578829
 s    1 1.00
                 0.122                   1
 p    1 1.00
                 0.727                   1

28 0
 s    8 1.00
                  6665  0.00069158396281299
                  1000  0.0053257961529341
                   228   0.027060721042034
                 64.71    0.10165684614077
                 21.06     0.2745748236174
                 7.495    0.44829431892377
                 2.797    0.28490261071525
                0.5215   0.015194859206082
 s    8 1.00
                  6665  -0.00029326965268655
                  1000  -0.0023180354739745
                   228  -0.011499786038565
                 64.71  -0.046826727009787
                 21.06   -0.12846616875047
                 7.495   -0.30126627246289
                 2.797   -0.25563070233011
                0.5215      1.093793361012
 s    1 1.00
                0.1596                   1
 p    3 1.00
                 9.439   0.056979251590039
                 2.002    0.31320721150073
                0.5456    0.76037674173753
 p    1 1.00
                0.1517                   1
 d    1 1.00
                  0.55                   1

29 0
 s    3 1.00
                 13.01   0.033498726389998
                 1.962    0.23480080117413
                0.4446     0.8136829578829
 s    1 1.00
                 0.122                   1
 p    1 1.00
                 0.727                   1

30 0
 s    3 1.00
                 13.01   0.033498726389998
                 1.962    0.23480080117413
                0.4446     0.8136829578829
 s    1 1.00
                 0.122                   1
 p    1 1.00
                 0.727                   1

31 0
 s    8 1.00
                  6665  0.00069158396281299
                  1000  0.0053257961529341
                   228   0.027060721042034
                 64.71    0.10165684614077
                 21.06     0.2745748236174
                 7.495    0.44829431892377
                 2.797    0.28490261071525
                0.5215   0.015194859206082
 s    8 1.00
                  6665  -0.00029326965268655
                  1000  -0.0023180354739745
                   228  -0.011499786038565
                 64.71  -0.046826727009787
                 21.06   -0.12846616875047
                 7.495   -0.30126627246289
                 2.797   -0.25563070233011
                0.5215      1.093793361012
 s    1 1.00
                0.1596                   1
 p    3 1.00
                 9.439   0.056979251590039
                 2.002    0.31320721150073
                0.5456    0.76037674173753
 p    1 1.00
                0.1517                   1
 d    1 1.00
                  0.55                   1

32 0
 s    3 1.00
                 13.01   0.033498726389998
                 1.962    0.23480080117413
                0.4446     0.8136829578829
 s    1 1.00
                 0.122                   1
 p    1 1.00
                 0.727                   1

33 0
 s    3 1.00
                 13.01   0.033498726389998
                 1.962    0.23480080117413
                0.4446     0.8136829578829
 s    1 1.00
                 0.122                   1
 p    1 1.00
                 0.727                   1

34 0
 s    3 1.00
                 13.01   0.033498726389998
                 1.962    0.23480080117413
                0.4446     0.8136829578829
 s    1 1.00
                 0.122                   1
 p    1 1.00
                 0.727                   1

35 0
 s    3 1.00
                 13.01   0.033498726389998
                 1.962    0.23480080117413
                0.4446     0.8136829578829
 s    1 1.00
                 0.122                   1
 p    1 1.00
                 0.727                   1

36 0
 s    3 1.00
                 13.01   0.033498726389998
                 1.962    0.23480080117413
                0.4446     0.8136829578829
 s    1 1.00
                 0.122                   1
 p    1 1.00
                 0.727                   1

37 0
 s    3 1.00
                 13.01   0.033498726389998
                 1.962    0.23480080117413
                0.4446     0.8136829578829
 s    1 1.00
                 0.122                   1
 p    1 1.00
                 0.727                   1

[5d]
[7f]
[9g]

[MO]
 Sym= A
 Ene=               0
 Spin= Alpha
 Occup=    1.00000
   1    -6.6958207919586e-05
   2    -4.9375003407325e-05
   3    0.00013429321401064
   4    -4.6228918880953e-08
   5    5.8853641174522e-06
   6    1.2740818395448e-05
   7    5.3849075139111e-07
   8    -2.6027758311568e-05
   9    -8.2509238996964e-05
  10    7.7857326859638e-06
  11    -5.2730745261681e-08
  12    -2.1921961134865e-07
  13    3.7547707499012e-07
  14    6.1530752008474e-09
  15    -1.739271868916e-05
  16    -0.00020846074922232
  17    -2.8459517960029e-07
  18    1.9894600089624e-06
  19    -4.1796542922326e-06
  20    -7.4637551981354e-06
  21    7.0189637267921e-05
  22    1.6528567911968e-07
  23    -4.0261827848084e-06
  24    1.4633369112643e-06
  25       1.0013730917231
  26    0.0019762021813284
  27    -0.006888424407306
  28    -4.9915662270924e-06
  29    9.7501393128442e-06
  30    -0.0016457646077235
  31    -3.0441793384848e-07
  32    -2.2802966536642e-06
  33    0.0019044456405641
  34    0.00011612000852444
  35    -2.8774202716077e-06
  36    1.4535651385941e-06
  37    6.6941407561772e-05
  38    -0.00017425297042541
  39    0.00028347550474367
  40     0.000393261118414
  41    0.0014887668175226
  42    1.5691989802918e-05
  43    -9.9785087312222e-06
  44    1.1436623119785e-05
  45    8.2110124324915e-05
  46    -6.4969963323972e-05
  47    0.0036275781731215
  48    -0.00051659965494252
  49    -8.2940650614588e-06
  50    2.5620620616292e-06
  51    2.957473138145e-05
  52    -0.00010946585223458
  53    -8.4657330221048e-05
  54    -0.00016560959260858
  55    0.0013815211584072
  56    7.8410489282244e-05
  57    -7.2898685220961e-06
  58    -3.4928067209809e-05
  59    -0.00042600027093958
  60    0.00048040761571298
  61    -0.00095612055970048
  62    -0.00011659365331515
  63    0.00014985956387781
  64    -0.0001431330489765
  65    5.4527136499287e-05
  66    -0.00012811796474824
  67    -3.915730054563e-05
  68    -9.6338831465505e-05
  69    0.00051637433836461
  70    -6.1639877839464e-05
  71    4.0690492330045e-05
  72    -6.2032902232204e-05
  73    0.0010114128353441
  74    -0.00077742134842324
  75    -0.000652626803406
  76    -0.00013995931371925
  77    -0.00012108485915412
  78    8.9753314715241e-05
  79    5.8514643750899e-05
  80    -0.00015049389061775
  81    -6.1279999657778e-05
  82    0.0002128588034691
  83    6.6605355250936e-05
  84    -4.8943363310928e-05
  85    4.7907149295983e-05
  86    2.5080811134636e-05
  87    4.9046512835453e-05
  88    -0.00061662783559557
  89    -1.5741571793169e-05
  90    -1.7167213717782e-05
  91    1.1559292418539e-05
  92    0.00026009437001414
  93    0.00064014634875644
  94    -1.4296067660085e-05
  95    1.8619810448319e-05
  96    1.1408622320016e-05
  97    7.762116390003e-06
  98    -1.9911012537066e-05
  99    -4.7317335461271e-05
 100    -3.9542773516928e-05
 101    -0.00016239160535761
 102    7.6036397248757e-06
 103    -1.0363704769135e-05
 104    7.6123457769668e-05
 105     -1.8970521631e-05
 106    -0.00020466170128089
 107    -6.4105904855086e-05
 108    9.3382799949111e-06
 109    7.561112093384e-05
 110    7.7729587432351e-05
 111    -6.351396936845e-05
 112    -4.467664361626e-05
 113    1.9474141354549e-05
 114    7.0673952156107e-05
 115    -4.8758620938633e-05
 116    -9.929952841996e-05
 117    0.00084892252211139
 118    -2.5072035418467e-05
 119    -1.081447981249e-05
 120    3.2313699002747e-05
 121    0.00028742310017928
 122    3.4321391273847e-05
 123    -0.00015006703014078
 124    -6.2959877685696e-06
 125    1.1491385061565e-05
 126    1.5094670763402e-05
 127    -3.2098787672827e-05
 128    5.0317576704155e-05
 129    -1.9644770722087e-05
 130     -0.00033086136293
 131    7.8524806398153e-06
 132    5.9534870898268e-06
 133    2.9468989733278e-05
 134    2.5839614416138e-05
 135    -0.00011753744300678
 136    -1.3649742466861e-05
 137    -2.4804818762546e-05
 138    -2.7108934543375e-05
 139    -2.1700835334606e-05
 140    -3.9423475342314e-05
 141    0.00029810060627823
 142    7.8501881464171e-06
 143    -2.6564547391561e-06
 144    -6.1668926243707e-06
 145    -0.000231190915361
 146    5.6346262600417e-05
 147    6.1307152892563e-05
 148    -2.505676695669e-06
 149    3.1895026890487e-06
 150    -4.0895712245203e-06
 151    1.2389905883045e-05
 152    -4.8800265264349e-06
 153    -9.7102076844686e-05
 154    -0.00010124578195233
 155    -2.6522384720535e-05
 156    2.8535237684985e-05
 157    1.9388518180847e-05
 158    -2.598376281434e-05
 159    -8.7764015802349e-05
 160    -5.9120391801758e-05
 161    -7.2022609975881e-06
 162    6.5946214302451e-06
 163    -1.719356458654e-06
 164    -4.2506488946135e-06
 165    -0.00025438728243961
 166    -1.8144454844272e-05
 167    1.4389121626757e-05
 168    7.1422505150034e-06
 169    0.0002341850695038
 170    -0.00020982314974931
 171    -0.00013711655702936
 172    -2.5338602209156e-06
 173    1.0493869048461e-05
 174    -1.3406728734566e-05
 175    2.8266511954484e-06
 176    -1.8026101620113e-05
 177    -1.6255688578791e-05
 178    8.5438523739221e-05
 179    -1.0103877055679e-06
 180    1.7917925163222e-06
 181    -4.8232044795725e-06
 182    1.5734853594328e-05
 183    2.7827713619417e-05
 184    -7.2948395016842e-05
 185    -4.6824068640566e-06
 186    3.7649034772699e-06
 187    5.3980925046585e-06
 188    0.00012932668080309
 189    -0.00010206904545991
 190    -8.8330140367836e-05
 191    1.2289056104934e-06
 192    2.1276842244641e-06
 193    -7.750411255693e-06
 194    -2.8688274380499e-06
 195    -5.3984613298485e-06
 196    -1.356414535689e-05
 197    -1.9226360514868e-05
 198    5.6579701229849e-06
 199    1.9356202366219e-06
 200    -3.3581894708046e-06
 201    -1.2809162577614e-05
 202    3.1654740185967e-06
 203    -1.3340018246861e-05
 204    9.8522480302957e-06
 205    1.180432590592e-05
 206    7.8746825241081e-06
 207    6.6822888481488e-05
 208    -1.6074905471918e-05
 209    3.9218161325528e-06
 210    1.5797365644321e-05
 211    -1.2274017579243e-05
 212    -4.8774709185386e-05
 213    0.00025170074548762
 214    1.5369581556589e-05
 215    2.1086796701798e-06
 216    -1.1486107897997e-05
 217    0.00019970848216073
 218    -5.0952468449953e-05
 219    -8.0440733744798e-05
 220    -1.593597208895e-06
 221    -1.6385034219009e-05
 222    6.0861143305751e-06
 223    9.5939444854804e-06
 224    -1.881375251485e-06
 225    2.5662492486829e-05
 226    5.4997705452278e-05
 227    -1.2466416415437e-05
 228    -2.0289511621741e-06
 229    -9.7148378785997e-07
 230    1.010803300143e-05
 231    5.4602327914231e-05
 232    -4.0487113913621e-06
 233    6.3998042640917e-06
 234    1.2077284499761e-05
 235    5.6861420364911e-06
 236    2.3444409881424e-06
 237    -7.8091886649377e-05
 238    5.6930168242073e-06
 239    5.2030713890844e-06
 240    -3.3947443335793e-06
 241    3.7584907961738e-05
 242    -6.1832430989977e-05
 243    1.821745644804e-05
 244    2.006859800446e-06
 245    1.7931527863568e-06
 246    -2.1871073433097e-06
 247    2.3869857122494e-07
 248    9.0659260013988e-07
 249    -2.3564062177202e-05
 250    1.2024952941108e-05
 251    -3.891245408542e-06
 252    -1.0972287954728e-07
 253    5.3254966275095e-07
 254    -3.396111595575e-05
 255    5.0689217341099e-05
 256    -5.2026185238275e-07
 257    2.9279808551418e-06
 258    -1.3569445206623e-07
 259    -2.3791197293885e-06
 260    -1.914685184962e-05
 261    7.5561669111409e-05
 262    -7.6917677447801e-06
 263    1.8794449161761e-06