[Molden Format]
made by pyscf v[2.0.1]
[Atoms] (AU)
O   1   8     0.00000000000000     0.00000000000000     7.54024356125045
H   2   1     0.00000000000000     0.00000000000000     5.71684173934948
H   3   1    -0.05031916615174     1.78353065140343     7.91611525771711
O   4   8     0.00000000000000     0.00000000000000     2.31533471513237
C   5   6     0.00000000000000     0.00000000000000     0.00000000000000
C   6   6     2.01118073026938    -1.40227222164369    -1.50774939176400
C   7   6    -2.01249334291722     1.41331050329955    -1.50315905028694
H   8   1     3.32037363730244    -2.26721897153159    -0.13599698591495
C   9   6     3.45899267434009     0.28739631745591    -3.37437943254505
H   10   1     1.07662969841332    -2.94725144642667    -2.56541439481080
H   11   1    -2.67503415753480     0.18421555839588    -3.06194479365997
H   12   1    -1.07974048864772     3.03851734677796    -2.43674295017013
C   13   6    -4.21607110578555     2.32938802552922     0.11994162256091
H   14   1     4.24440173074564     1.93368664142019    -2.34976285512790
H   15   1     2.15020713235517     1.04714335134846    -4.81494497423699
C   16   6     5.60746363007797    -1.12419643481196    -4.70268606082550
H   17   1    -3.46838323670267     3.50951302338067     1.66946842715333
H   18   1    -5.11873485366228     0.68575958301209     1.04047743976495
C   19   6    -6.18314754751344     3.80909592987882    -1.39656589068747
H   20   1     6.93011263717176    -1.87550812453645    -3.26656317360070
C   21   6     7.06356622236532     0.52877932406334    -6.57829775293605
H   22   1     4.82318879258361    -2.78573437948532    -5.70504560381835
H   23   1    -6.91582688743803     2.61304780074712    -2.95074552451969
H   24   1    -5.26532430573853     5.45420349051338    -2.31005832200284
C   25   6    -8.39941882261433     4.73263980500213     0.21800571437956
H   26   1     7.83338371486801     2.19084139882824    -5.57093109900697
H   27   1     5.73544244039420     1.27376866537418    -8.01071492370229
C   28   6     9.21124858443101    -0.89699110072176    -7.88926949186242
H   29   1    -7.66272760055236     5.92277078003992     1.77035591474408
H   30   1    -9.31497248082589     3.08753015622020     1.12614408368786
C   31   6   -10.35481709231879     6.21833079391143    -1.30905206253246
H   32   1    10.58815905329501    -1.61074586756696    -6.49512691622620
H   33   1    10.23506248045667     0.32468009384095    -9.23072870921204
H   34   1     8.47665842847139    -2.53598436989925    -8.94921964622535
H   35   1    -9.48948872868064     7.90013588951020    -2.18823918416067
H   36   1   -11.93332513000955     6.86460487874102    -0.11255798845995
H   37   1   -11.15126291841033     5.04495968327630    -2.83849898862534
[GTO]
1 0
 s    8 1.00
                 11720  0.00070964594651845
                  1759  0.0054672722921914
                 400.8   0.027823118610189
                 113.7    0.10474773971146
                 37.03    0.28292084635691
                 13.27    0.44849523869833
                 5.025    0.27081688521277
                 1.013    0.01545029160744
 s    8 1.00
                 11720  -0.00031444341168873
                  1759  -0.0024821376810179
                 400.8  -0.012316355381583
                 113.7  -0.050538917343672
                 37.03   -0.13938490331632
                 13.27   -0.32507749481778
                 5.025   -0.22984830758785
                 1.013     1.0953793467883
 s    1 1.00
                0.3023                   1
 p    3 1.00
                  17.7   0.062679166281506
                 3.854    0.33353656587936
                 1.046    0.74123964163973
 p    1 1.00
                0.2753                   1
 d    1 1.00
                 1.185                   1

2 0
 s    3 1.00
                 13.01   0.033498726389998
                 1.962    0.23480080117413
                0.4446     0.8136829578829
 s    1 1.00
                 0.122                   1
 p    1 1.00
                 0.727                   1

3 0
 s    3 1.00
                 13.01   0.033498726389998
                 1.962    0.23480080117413
                0.4446     0.8136829578829
 s    1 1.00
                 0.122                   1
 p    1 1.00
                 0.727                   1

4 0
 s    8 1.00
                 11720  0.00070964594651845
                  1759  0.0054672722921914
                 400.8   0.027823118610189
                 113.7    0.10474773971146
                 37.03    0.28292084635691
                 13.27    0.44849523869833
                 5.025    0.27081688521277
                 1.013    0.01545029160744
 s    8 1.00
                 11720  -0.00031444341168873
                  1759  -0.0024821376810179
                 400.8  -0.012316355381583
                 113.7  -0.050538917343672
                 37.03   -0.13938490331632
                 13.27   -0.32507749481778
                 5.025   -0.22984830758785
                 1.013     1.0953793467883
 s    1 1.00
                0.3023                   1
 p    3 1.00
                  17.7   0.062679166281506
                 3.854    0.33353656587936
                 1.046    0.74123964163973
 p    1 1.00
                0.2753                   1
 d    1 1.00
                 1.185                   1

5 0
 s    8 1.00
                  6665  0.00069158396281299
                  1000  0.0053257961529341
                   228   0.027060721042034
                 64.71    0.10165684614077
                 21.06     0.2745748236174
                 7.495    0.44829431892377
                 2.797    0.28490261071525
                0.5215   0.015194859206082
 s    8 1.00
                  6665  -0.00029326965268655
                  1000  -0.0023180354739745
                   228  -0.011499786038565
                 64.71  -0.046826727009787
                 21.06   -0.12846616875047
                 7.495   -0.30126627246289
                 2.797   -0.25563070233011
                0.5215      1.093793361012
 s    1 1.00
                0.1596                   1
 p    3 1.00
                 9.439   0.056979251590039
                 2.002    0.31320721150073
                0.5456    0.76037674173753
 p    1 1.00
                0.1517                   1
 d    1 1.00
                  0.55                   1

6 0
 s    8 1.00
                  6665  0.00069158396281299
                  1000  0.0053257961529341
                   228   0.027060721042034
                 64.71    0.10165684614077
                 21.06     0.2745748236174
                 7.495    0.44829431892377
                 2.797    0.28490261071525
                0.5215   0.015194859206082
 s    8 1.00
                  6665  -0.00029326965268655
                  1000  -0.0023180354739745
                   228  -0.011499786038565
                 64.71  -0.046826727009787
                 21.06   -0.12846616875047
                 7.495   -0.30126627246289
                 2.797   -0.25563070233011
                0.5215      1.093793361012
 s    1 1.00
                0.1596                   1
 p    3 1.00
                 9.439   0.056979251590039
                 2.002    0.31320721150073
                0.5456    0.76037674173753
 p    1 1.00
                0.1517                   1
 d    1 1.00
                  0.55                   1

7 0
 s    8 1.00
                  6665  0.00069158396281299
                  1000  0.0053257961529341
                   228   0.027060721042034
                 64.71    0.10165684614077
                 21.06     0.2745748236174
                 7.495    0.44829431892377
                 2.797    0.28490261071525
                0.5215   0.015194859206082
 s    8 1.00
                  6665  -0.00029326965268655
                  1000  -0.0023180354739745
                   228  -0.011499786038565
                 64.71  -0.046826727009787
                 21.06   -0.12846616875047
                 7.495   -0.30126627246289
                 2.797   -0.25563070233011
                0.5215      1.093793361012
 s    1 1.00
                0.1596                   1
 p    3 1.00
                 9.439   0.056979251590039
                 2.002    0.31320721150073
                0.5456    0.76037674173753
 p    1 1.00
                0.1517                   1
 d    1 1.00
                  0.55                   1

8 0
 s    3 1.00
                 13.01   0.033498726389998
                 1.962    0.23480080117413
                0.4446     0.8136829578829
 s    1 1.00
                 0.122                   1
 p    1 1.00
                 0.727                   1

9 0
 s    8 1.00
                  6665  0.00069158396281299
                  1000  0.0053257961529341
                   228   0.027060721042034
                 64.71    0.10165684614077
                 21.06     0.2745748236174
                 7.495    0.44829431892377
                 2.797    0.28490261071525
                0.5215   0.015194859206082
 s    8 1.00
                  6665  -0.00029326965268655
                  1000  -0.0023180354739745
                   228  -0.011499786038565
                 64.71  -0.046826727009787
                 21.06   -0.12846616875047
                 7.495   -0.30126627246289
                 2.797   -0.25563070233011
                0.5215      1.093793361012
 s    1 1.00
                0.1596                   1
 p    3 1.00
                 9.439   0.056979251590039
                 2.002    0.31320721150073
                0.5456    0.76037674173753
 p    1 1.00
                0.1517                   1
 d    1 1.00
                  0.55                   1

10 0
 s    3 1.00
                 13.01   0.033498726389998
                 1.962    0.23480080117413
                0.4446     0.8136829578829
 s    1 1.00
                 0.122                   1
 p    1 1.00
                 0.727                   1

11 0
 s    3 1.00
                 13.01   0.033498726389998
                 1.962    0.23480080117413
                0.4446     0.8136829578829
 s    1 1.00
                 0.122                   1
 p    1 1.00
                 0.727                   1

12 0
 s    3 1.00
                 13.01   0.033498726389998
                 1.962    0.23480080117413
                0.4446     0.8136829578829
 s    1 1.00
                 0.122                   1
 p    1 1.00
                 0.727                   1

13 0
 s    8 1.00
                  6665  0.00069158396281299
                  1000  0.0053257961529341
                   228   0.027060721042034
                 64.71    0.10165684614077
                 21.06     0.2745748236174
                 7.495    0.44829431892377
                 2.797    0.28490261071525
                0.5215   0.015194859206082
 s    8 1.00
                  6665  -0.00029326965268655
                  1000  -0.0023180354739745
                   228  -0.011499786038565
                 64.71  -0.046826727009787
                 21.06   -0.12846616875047
                 7.495   -0.30126627246289
                 2.797   -0.25563070233011
                0.5215      1.093793361012
 s    1 1.00
                0.1596                   1
 p    3 1.00
                 9.439   0.056979251590039
                 2.002    0.31320721150073
                0.5456    0.76037674173753
 p    1 1.00
                0.1517                   1
 d    1 1.00
                  0.55                   1

14 0
 s    3 1.00
                 13.01   0.033498726389998
                 1.962    0.23480080117413
                0.4446     0.8136829578829
 s    1 1.00
                 0.122                   1
 p    1 1.00
                 0.727                   1

15 0
 s    3 1.00
                 13.01   0.033498726389998
                 1.962    0.23480080117413
                0.4446     0.8136829578829
 s    1 1.00
                 0.122                   1
 p    1 1.00
                 0.727                   1

16 0
 s    8 1.00
                  6665  0.00069158396281299
                  1000  0.0053257961529341
                   228   0.027060721042034
                 64.71    0.10165684614077
                 21.06     0.2745748236174
                 7.495    0.44829431892377
                 2.797    0.28490261071525
                0.5215   0.015194859206082
 s    8 1.00
                  6665  -0.00029326965268655
                  1000  -0.0023180354739745
                   228  -0.011499786038565
                 64.71  -0.046826727009787
                 21.06   -0.12846616875047
                 7.495   -0.30126627246289
                 2.797   -0.25563070233011
                0.5215      1.093793361012
 s    1 1.00
                0.1596                   1
 p    3 1.00
                 9.439   0.056979251590039
                 2.002    0.31320721150073
                0.5456    0.76037674173753
 p    1 1.00
                0.1517                   1
 d    1 1.00
                  0.55                   1

17 0
 s    3 1.00
                 13.01   0.033498726389998
                 1.962    0.23480080117413
                0.4446     0.8136829578829
 s    1 1.00
                 0.122                   1
 p    1 1.00
                 0.727                   1

18 0
 s    3 1.00
                 13.01   0.033498726389998
                 1.962    0.23480080117413
                0.4446     0.8136829578829
 s    1 1.00
                 0.122                   1
 p    1 1.00
                 0.727                   1

19 0
 s    8 1.00
                  6665  0.00069158396281299
                  1000  0.0053257961529341
                   228   0.027060721042034
                 64.71    0.10165684614077
                 21.06     0.2745748236174
                 7.495    0.44829431892377
                 2.797    0.28490261071525
                0.5215   0.015194859206082
 s    8 1.00
                  6665  -0.00029326965268655
                  1000  -0.0023180354739745
                   228  -0.011499786038565
                 64.71  -0.046826727009787
                 21.06   -0.12846616875047
                 7.495   -0.30126627246289
                 2.797   -0.25563070233011
                0.5215      1.093793361012
 s    1 1.00
                0.1596                   1
 p    3 1.00
                 9.439   0.056979251590039
                 2.002    0.31320721150073
                0.5456    0.76037674173753
 p    1 1.00
                0.1517                   1
 d    1 1.00
                  0.55                   1

20 0
 s    3 1.00
                 13.01   0.033498726389998
                 1.962    0.23480080117413
                0.4446     0.8136829578829
 s    1 1.00
                 0.122                   1
 p    1 1.00
                 0.727                   1

21 0
 s    8 1.00
                  6665  0.00069158396281299
                  1000  0.0053257961529341
                   228   0.027060721042034
                 64.71    0.10165684614077
                 21.06     0.2745748236174
                 7.495    0.44829431892377
                 2.797    0.28490261071525
                0.5215   0.015194859206082
 s    8 1.00
                  6665  -0.00029326965268655
                  1000  -0.0023180354739745
                   228  -0.011499786038565
                 64.71  -0.046826727009787
                 21.06   -0.12846616875047
                 7.495   -0.30126627246289
                 2.797   -0.25563070233011
                0.5215      1.093793361012
 s    1 1.00
                0.1596                   1
 p    3 1.00
                 9.439   0.056979251590039
                 2.002    0.31320721150073
                0.5456    0.76037674173753
 p    1 1.00
                0.1517                   1
 d    1 1.00
                  0.55                   1

22 0
 s    3 1.00
                 13.01   0.033498726389998
                 1.962    0.23480080117413
                0.4446     0.8136829578829
 s    1 1.00
                 0.122                   1
 p    1 1.00
                 0.727                   1

23 0
 s    3 1.00
                 13.01   0.033498726389998
                 1.962    0.23480080117413
                0.4446     0.8136829578829
 s    1 1.00
                 0.122                   1
 p    1 1.00
                 0.727                   1

24 0
 s    3 1.00
                 13.01   0.033498726389998
                 1.962    0.23480080117413
                0.4446     0.8136829578829
 s    1 1.00
                 0.122                   1
 p    1 1.00
                 0.727                   1

25 0
 s    8 1.00
                  6665  0.00069158396281299
                  1000  0.0053257961529341
                   228   0.027060721042034
                 64.71    0.10165684614077
                 21.06     0.2745748236174
                 7.495    0.44829431892377
                 2.797    0.28490261071525
                0.5215   0.015194859206082
 s    8 1.00
                  6665  -0.00029326965268655
                  1000  -0.0023180354739745
                   228  -0.011499786038565
                 64.71  -0.046826727009787
                 21.06   -0.12846616875047
                 7.495   -0.30126627246289
                 2.797   -0.25563070233011
                0.5215      1.093793361012
 s    1 1.00
                0.1596                   1
 p    3 1.00
                 9.439   0.056979251590039
                 2.002    0.31320721150073
                0.5456    0.76037674173753
 p    1 1.00
                0.1517                   1
 d    1 1.00
                  0.55                   1

26 0
 s    3 1.00
                 13.01   0.033498726389998
                 1.962    0.23480080117413
                0.4446     0.8136829578829
 s    1 1.00
                 0.122                   1
 p    1 1.00
                 0.727                   1

27 0
 s    3 1.00
                 13.01   0.033498726389998
                 1.962    0.23480080117413
                0.4446     0.8136829578829
 s    1 1.00
                 0.122                   1
 p    1 1.00
                 0.727                   1

28 0
 s    8 1.00
                  6665  0.00069158396281299
                  1000  0.0053257961529341
                   228   0.027060721042034
                 64.71    0.10165684614077
                 21.06     0.2745748236174
                 7.495    0.44829431892377
                 2.797    0.28490261071525
                0.5215   0.015194859206082
 s    8 1.00
                  6665  -0.00029326965268655
                  1000  -0.0023180354739745
                   228  -0.011499786038565
                 64.71  -0.046826727009787
                 21.06   -0.12846616875047
                 7.495   -0.30126627246289
                 2.797   -0.25563070233011
                0.5215      1.093793361012
 s    1 1.00
                0.1596                   1
 p    3 1.00
                 9.439   0.056979251590039
                 2.002    0.31320721150073
                0.5456    0.76037674173753
 p    1 1.00
                0.1517                   1
 d    1 1.00
                  0.55                   1

29 0
 s    3 1.00
                 13.01   0.033498726389998
                 1.962    0.23480080117413
                0.4446     0.8136829578829
 s    1 1.00
                 0.122                   1
 p    1 1.00
                 0.727                   1

30 0
 s    3 1.00
                 13.01   0.033498726389998
                 1.962    0.23480080117413
                0.4446     0.8136829578829
 s    1 1.00
                 0.122                   1
 p    1 1.00
                 0.727                   1

31 0
 s    8 1.00
                  6665  0.00069158396281299
                  1000  0.0053257961529341
                   228   0.027060721042034
                 64.71    0.10165684614077
                 21.06     0.2745748236174
                 7.495    0.44829431892377
                 2.797    0.28490261071525
                0.5215   0.015194859206082
 s    8 1.00
                  6665  -0.00029326965268655
                  1000  -0.0023180354739745
                   228  -0.011499786038565
                 64.71  -0.046826727009787
                 21.06   -0.12846616875047
                 7.495   -0.30126627246289
                 2.797   -0.25563070233011
                0.5215      1.093793361012
 s    1 1.00
                0.1596                   1
 p    3 1.00
                 9.439   0.056979251590039
                 2.002    0.31320721150073
                0.5456    0.76037674173753
 p    1 1.00
                0.1517                   1
 d    1 1.00
                  0.55                   1

32 0
 s    3 1.00
                 13.01   0.033498726389998
                 1.962    0.23480080117413
                0.4446     0.8136829578829
 s    1 1.00
                 0.122                   1
 p    1 1.00
                 0.727                   1

33 0
 s    3 1.00
                 13.01   0.033498726389998
                 1.962    0.23480080117413
                0.4446     0.8136829578829
 s    1 1.00
                 0.122                   1
 p    1 1.00
                 0.727                   1

34 0
 s    3 1.00
                 13.01   0.033498726389998
                 1.962    0.23480080117413
                0.4446     0.8136829578829
 s    1 1.00
                 0.122                   1
 p    1 1.00
                 0.727                   1

35 0
 s    3 1.00
                 13.01   0.033498726389998
                 1.962    0.23480080117413
                0.4446     0.8136829578829
 s    1 1.00
                 0.122                   1
 p    1 1.00
                 0.727                   1

36 0
 s    3 1.00
                 13.01   0.033498726389998
                 1.962    0.23480080117413
                0.4446     0.8136829578829
 s    1 1.00
                 0.122                   1
 p    1 1.00
                 0.727                   1

37 0
 s    3 1.00
                 13.01   0.033498726389998
                 1.962    0.23480080117413
                0.4446     0.8136829578829
 s    1 1.00
                 0.122                   1
 p    1 1.00
                 0.727                   1

[5d]
[7f]
[9g]

[MO]
 Sym= A
 Ene=               0
 Spin= Alpha
 Occup=    1.00000
   1    -6.415849008076e-05
   2    -2.9225661212042e-05
   3    0.00012146685961059
   4    4.8954962272014e-07
   5    4.3008235357629e-06
   6    -1.9395678936362e-06
   7    -5.4318427894925e-07
   8    -2.115652210408e-05
   9    -3.2548030250708e-05
  10    4.6309390711625e-06
  11    -2.8220048162023e-07
  12    2.512146386711e-06
  13    1.7183226020636e-06
  14    4.2308923875546e-08
  15    -7.1186985049414e-05
  16    -0.00022576386573333
  17    -1.0763257265948e-06
  18    3.2791480952265e-06
  19    2.346589571599e-06
  20    4.1258523462631e-06
  21    4.0893819052246e-05
  22    1.6693684390474e-07
  23    2.2118336266594e-06
  24    -7.3336932043721e-06
  25       1.0013928886721
  26    0.0020332027366357
  27    -0.0070229635899859
  28    -5.6073920029339e-06
  29    1.3800117733457e-05
  30    -0.0016137277275015
  31    -1.3315453486395e-08
  32    -4.3674753223383e-06
  33    0.0020330983454415
  34    0.00010454139041075
  35    -2.7414775333741e-06
  36    1.5177826394744e-06
  37    6.4853650584911e-05
  38    -0.00016893672429924
  39    0.00029782600525709
  40    0.00042353170023033
  41    0.0016032996556392
  42    1.6420188943948e-05
  43    -1.0011351418516e-05
  44    4.1111837465293e-05
  45    8.5427862434334e-05
  46    -6.7786535048594e-05
  47    0.0037585556233239
  48    -0.00048845985636402
  49    -8.2265221242328e-06
  50    2.7458861351798e-06
  51    3.0655372850814e-05
  52    -0.00011246244153814
  53    -8.3810226454504e-05
  54    -0.000164043903164
  55    0.0013985838262797
  56    7.8880674277091e-05
  57    -6.9464198926283e-06
  58    -3.3314002349766e-05
  59    -0.00043414761353479
  60    0.00048750670687438
  61    -0.0010018760956929
  62    -0.00011549652476417
  63    0.00014949184308867
  64    -0.00014350322253096
  65    5.3867827354194e-05
  66    -0.00012557999024266
  67    -3.7342413670365e-05
  68    -9.3132538806026e-05
  69    0.00052552666321405
  70    -6.2549167181849e-05
  71    4.1872374717409e-05
  72    -6.119991578617e-05
  73    0.0010315443553438
  74    -0.00079273500441797
  75    -0.00067819519751324
  76    -0.0001389543314198
  77    -0.00012139120892206
  78    8.9689979167597e-05
  79    5.8057626628623e-05
  80    -0.00014896792478438
  81    -5.6317851500517e-05
  82    0.00022541387802246
  83    6.7529285677787e-05
  84    -4.9538931510671e-05
  85    4.6046829509249e-05
  86    2.4987310408879e-05
  87    4.8869004228916e-05
  88    -0.00063172359207793
  89    -1.5620505587087e-05
  90    -1.7400829845923e-05
  91    1.0844812635094e-05
  92    0.00026534757122971
  93    0.00066262226482002
  94    -7.6325774697781e-06
  95    1.9519865190573e-05
  96    1.1678915427721e-05
  97    8.3694594943922e-06
  98    -1.8773082900282e-05
  99    -4.9932527942155e-05
 100    -4.2855962201092e-05
 101    -0.00016928688629488
 102    5.2297770264033e-06
 103    -1.1140560798874e-05
 104    7.8804685816248e-05
 105    -2.0479200057089e-05
 106    -0.0002107854599073
 107    -6.3781049990335e-05
 108    6.8460438108751e-06
 109    7.7589092729224e-05
 110    7.8931354306393e-05
 111    -6.9043262590771e-05
 112    -4.3634806634476e-05
 113    2.0904741617958e-05
 114    7.2644579943374e-05
 115    -4.786241188424e-05
 116    -9.757472711186e-05
 117    0.00086374858956946
 118    -2.3769548436489e-05
 119    -1.1878796528133e-05
 120    3.1681416084868e-05
 121    0.00028455660087063
 122    3.985880622469e-05
 123    -0.00016179756739706
 124    -5.8237014516564e-06
 125    9.8593483124963e-06
 126    1.5054103269075e-05
 127    -3.2516948109441e-05
 128    5.1998248943227e-05
 129    -2.0622444511006e-05
 130    -0.00034422572163886
 131    8.3468861185637e-06
 132    6.0256026871774e-06
 133    2.9847553805721e-05
 134    2.5636144864589e-05
 135    -0.00011759237099241
 136    -1.3920774294914e-05
 137    -2.5772361258373e-05
 138    -2.8095873493296e-05
 139    -2.2505353955654e-05
 140    -4.0896554100003e-05
 141    0.00031360769685786
 142    7.7377123520443e-06
 143    -3.0878836775257e-06
 144    -6.0588554933936e-06
 145    -0.00023361879640102
 146    6.1940968278969e-05
 147    5.8277664625052e-05
 148    -2.64606185773e-06
 149    3.4415587537661e-06
 150    -5.0104293121546e-06
 151    1.3067820381026e-05
 152    -4.7480098742554e-06
 153    -9.9006250463387e-05
 154    -9.2294981417293e-05
 155    -2.6935872571533e-05
 156    2.7514884023619e-05
 157    1.9223300586532e-05
 158    -2.6735367228774e-05
 159    -8.5099980839102e-05
 160    -5.9346532466369e-05
 161    -7.5483114981612e-06
 162    6.9369308089666e-06
 163    -8.0491057863271e-07
 164    -2.6427548166024e-06
 165    -0.00026831646169733
 166    -1.8401475187553e-05
 167    1.4487043689841e-05
 168    7.5905421367674e-06
 169    0.00023404028138563
 170    -0.00021086241512882
 171    -0.0001429180434128
 172    -2.2870522426571e-06
 173    1.0715530053858e-05
 174    -1.3630866864209e-05
 175    2.7296959699998e-06
 176    -1.8159223961414e-05
 177    -1.6746403137256e-05
 178    8.7390691440472e-05
 179    -1.2613915948566e-06
 180    1.5276925990465e-06
 181    -4.5740940021562e-06
 182    1.6573432156604e-05
 183    2.9258425507022e-05
 184    -8.2878522525995e-05
 185    -4.4827757322577e-06
 186    4.0258642075666e-06
 187    5.2616374179063e-06
 188    0.00013290520528092
 189    -0.00010224435356656
 190    -9.3102855801203e-05
 191    1.1835447978925e-06
 192    2.388433304923e-06
 193    -7.7121559079541e-06
 194    -2.8562229993576e-06
 195    -5.8294418669637e-06
 196    -1.320354232274e-05
 197    -2.0104029915804e-05
 198    5.7021928753059e-06
 199    1.9301141509483e-06
 200    -3.1207532885932e-06
 201    -1.2817490027375e-05
 202    1.5215265818358e-06
 203    -1.372844621664e-05
 204    9.8242404171235e-06
 205    1.1855311571526e-05
 206    8.3261998013916e-06
 207    6.7884677484353e-05
 208    -1.6135611495051e-05
 209    3.9673321976438e-06
 210    1.6158090890226e-05
 211    -1.1934863440564e-05
 212    -4.867815004253e-05
 213    0.00026272152718095
 214    1.5592146159242e-05
 215    2.0890351705474e-06
 216    -1.1309598834944e-05
 217    0.00019938854376475
 218    -4.9278405858705e-05
 219    -8.2920524431978e-05
 220    -1.6789579433248e-06
 221    -1.6364964581456e-05
 222    6.0602749544365e-06
 223    9.7651536692459e-06
 224    -1.9672191187384e-06
 225    2.6729714347737e-05
 226    5.7146119298514e-05
 227    -1.2744287855045e-05
 228    -2.24038542746e-06
 229    -9.832921176931e-07
 230    1.053934544525e-05
 231    5.5149749314987e-05
 232    -4.146865036775e-06
 233    6.5472219594078e-06
 234    1.2308785089236e-05
 235    5.5957459281313e-06
 236    2.325741789519e-06
 237    -7.9016093348023e-05
 238    5.3625017265148e-06
 239    4.6993680942592e-06
 240    -2.987499586423e-06
 241    3.8398015622732e-05
 242    -6.307832985016e-05
 243    1.8913657319051e-05
 244    2.0707479529268e-06
 245    1.9032452925522e-06
 246    -2.127467167482e-06
 247    2.2090384962313e-07
 248    8.7491114995869e-07
 249    -2.2907980452784e-05
 250    1.0129851901753e-05
 251    -3.789527504587e-06
 252    -1.4396617684512e-07
 253    7.3160277187167e-07
 254    -3.3683135878924e-05
 255    5.1169278658764e-05
 256    -2.5093981064228e-07
 257    2.8876945406597e-06
 258    -4.5727773289117e-08
 259    -2.6463215182701e-06
 260    -1.8759573866579e-05
 261    7.0645614127041e-05
 262    -7.2495603308608e-06