[Molden Format]
made by pyscf v[2.0.1]
[Atoms] (AU)
O   1   8     0.00000000000000     0.00000000000000     6.40640788651141
H   2   1     0.00000000000000     0.00000000000000     4.58300606461044
H   3   1    -0.05031916615174     1.78353439551780     6.78227958297808
O   4   8     0.00000000000000     0.00000000000000     2.31533471513237
C   5   6     0.00000000000000     0.00000000000000     0.00000000000000
C   6   6     2.01118073026938    -1.40227222164369    -1.50774939176400
C   7   6    -2.01249334291722     1.41331050329955    -1.50319235519811
H   8   1     3.32037363730244    -2.26721897153159    -0.13599698591495
C   9   6     3.45899267434009     0.28739631745591    -3.37437943254505
H   10   1     1.07662969841332    -2.94725144642667    -2.56541439481080
H   11   1    -2.67503415753480     0.18421555839588    -3.06194479365997
H   12   1    -1.08005520873877     3.03851734677796    -2.43674295017013
C   13   6    -4.21607110578555     2.32938802552922     0.11994192435017
H   14   1     4.24440173074564     1.93368664387684    -2.34976285512790
H   15   1     2.18907033049676     1.04714335134846    -4.81494497423699
C   16   6     5.60746363007797    -1.12419643481196    -4.70268606082550
H   17   1    -3.46838323670267     3.50951302338067     1.66946842715333
H   18   1    -5.11873485366228     0.68575958301209     1.04047743976495
C   19   6    -6.18314754751344     3.80909592987882    -1.39656589068747
H   20   1     6.93011263717176    -1.87550812453645    -3.26656317360070
C   21   6     7.10306991577580     0.52877932406334    -6.57829775293605
H   22   1     4.82318879258361    -2.78573437948532    -5.70504560381835
H   23   1    -6.91582688743803     2.61304780074712    -2.95074552451969
H   24   1    -5.26532430573853     5.45420349051338    -2.31005832200284
C   25   6    -8.39941882261433     4.73263980500213     0.21800571437956
H   26   1     7.83338371486801     2.19084139882824    -5.57093109900697
H   27   1     5.73544244039420     1.27376866537418    -8.01071492370229
C   28   6     9.21124858443101    -0.89699110072176    -7.88926949186242
H   29   1    -7.66272760055236     5.92277078003992     1.77035591474408
H   30   1    -9.31497248082589     3.08753015622020     1.12614408368786
C   31   6   -10.35481709231879     6.21833079391143    -1.30905206253246
H   32   1    10.58815905329501    -1.61099162890610    -6.52093739071026
H   33   1    10.23506248045667     0.32468009384095    -9.23072870921204
H   34   1     8.47665842847139    -2.53598436989925    -8.94921964622535
H   35   1    -9.48948872868064     7.90013588951020    -2.18823918416067
H   36   1   -11.93332774482359     6.86460487874102    -0.11255798845995
H   37   1   -11.15126291841033     5.04495968327630    -2.83849898862534
[GTO]
1 0
 s    8 1.00
                 11720  0.00070964594651845
                  1759  0.0054672722921914
                 400.8   0.027823118610189
                 113.7    0.10474773971146
                 37.03    0.28292084635691
                 13.27    0.44849523869833
                 5.025    0.27081688521277
                 1.013    0.01545029160744
 s    8 1.00
                 11720  -0.00031444341168873
                  1759  -0.0024821376810179
                 400.8  -0.012316355381583
                 113.7  -0.050538917343672
                 37.03   -0.13938490331632
                 13.27   -0.32507749481778
                 5.025   -0.22984830758785
                 1.013     1.0953793467883
 s    1 1.00
                0.3023                   1
 p    3 1.00
                  17.7   0.062679166281506
                 3.854    0.33353656587936
                 1.046    0.74123964163973
 p    1 1.00
                0.2753                   1
 d    1 1.00
                 1.185                   1

2 0
 s    3 1.00
                 13.01   0.033498726389998
                 1.962    0.23480080117413
                0.4446     0.8136829578829
 s    1 1.00
                 0.122                   1
 p    1 1.00
                 0.727                   1

3 0
 s    3 1.00
                 13.01   0.033498726389998
                 1.962    0.23480080117413
                0.4446     0.8136829578829
 s    1 1.00
                 0.122                   1
 p    1 1.00
                 0.727                   1

4 0
 s    8 1.00
                 11720  0.00070964594651845
                  1759  0.0054672722921914
                 400.8   0.027823118610189
                 113.7    0.10474773971146
                 37.03    0.28292084635691
                 13.27    0.44849523869833
                 5.025    0.27081688521277
                 1.013    0.01545029160744
 s    8 1.00
                 11720  -0.00031444341168873
                  1759  -0.0024821376810179
                 400.8  -0.012316355381583
                 113.7  -0.050538917343672
                 37.03   -0.13938490331632
                 13.27   -0.32507749481778
                 5.025   -0.22984830758785
                 1.013     1.0953793467883
 s    1 1.00
                0.3023                   1
 p    3 1.00
                  17.7   0.062679166281506
                 3.854    0.33353656587936
                 1.046    0.74123964163973
 p    1 1.00
                0.2753                   1
 d    1 1.00
                 1.185                   1

5 0
 s    8 1.00
                  6665  0.00069158396281299
                  1000  0.0053257961529341
                   228   0.027060721042034
                 64.71    0.10165684614077
                 21.06     0.2745748236174
                 7.495    0.44829431892377
                 2.797    0.28490261071525
                0.5215   0.015194859206082
 s    8 1.00
                  6665  -0.00029326965268655
                  1000  -0.0023180354739745
                   228  -0.011499786038565
                 64.71  -0.046826727009787
                 21.06   -0.12846616875047
                 7.495   -0.30126627246289
                 2.797   -0.25563070233011
                0.5215      1.093793361012
 s    1 1.00
                0.1596                   1
 p    3 1.00
                 9.439   0.056979251590039
                 2.002    0.31320721150073
                0.5456    0.76037674173753
 p    1 1.00
                0.1517                   1
 d    1 1.00
                  0.55                   1

6 0
 s    8 1.00
                  6665  0.00069158396281299
                  1000  0.0053257961529341
                   228   0.027060721042034
                 64.71    0.10165684614077
                 21.06     0.2745748236174
                 7.495    0.44829431892377
                 2.797    0.28490261071525
                0.5215   0.015194859206082
 s    8 1.00
                  6665  -0.00029326965268655
                  1000  -0.0023180354739745
                   228  -0.011499786038565
                 64.71  -0.046826727009787
                 21.06   -0.12846616875047
                 7.495   -0.30126627246289
                 2.797   -0.25563070233011
                0.5215      1.093793361012
 s    1 1.00
                0.1596                   1
 p    3 1.00
                 9.439   0.056979251590039
                 2.002    0.31320721150073
                0.5456    0.76037674173753
 p    1 1.00
                0.1517                   1
 d    1 1.00
                  0.55                   1

7 0
 s    8 1.00
                  6665  0.00069158396281299
                  1000  0.0053257961529341
                   228   0.027060721042034
                 64.71    0.10165684614077
                 21.06     0.2745748236174
                 7.495    0.44829431892377
                 2.797    0.28490261071525
                0.5215   0.015194859206082
 s    8 1.00
                  6665  -0.00029326965268655
                  1000  -0.0023180354739745
                   228  -0.011499786038565
                 64.71  -0.046826727009787
                 21.06   -0.12846616875047
                 7.495   -0.30126627246289
                 2.797   -0.25563070233011
                0.5215      1.093793361012
 s    1 1.00
                0.1596                   1
 p    3 1.00
                 9.439   0.056979251590039
                 2.002    0.31320721150073
                0.5456    0.76037674173753
 p    1 1.00
                0.1517                   1
 d    1 1.00
                  0.55                   1

8 0
 s    3 1.00
                 13.01   0.033498726389998
                 1.962    0.23480080117413
                0.4446     0.8136829578829
 s    1 1.00
                 0.122                   1
 p    1 1.00
                 0.727                   1

9 0
 s    8 1.00
                  6665  0.00069158396281299
                  1000  0.0053257961529341
                   228   0.027060721042034
                 64.71    0.10165684614077
                 21.06     0.2745748236174
                 7.495    0.44829431892377
                 2.797    0.28490261071525
                0.5215   0.015194859206082
 s    8 1.00
                  6665  -0.00029326965268655
                  1000  -0.0023180354739745
                   228  -0.011499786038565
                 64.71  -0.046826727009787
                 21.06   -0.12846616875047
                 7.495   -0.30126627246289
                 2.797   -0.25563070233011
                0.5215      1.093793361012
 s    1 1.00
                0.1596                   1
 p    3 1.00
                 9.439   0.056979251590039
                 2.002    0.31320721150073
                0.5456    0.76037674173753
 p    1 1.00
                0.1517                   1
 d    1 1.00
                  0.55                   1

10 0
 s    3 1.00
                 13.01   0.033498726389998
                 1.962    0.23480080117413
                0.4446     0.8136829578829
 s    1 1.00
                 0.122                   1
 p    1 1.00
                 0.727                   1

11 0
 s    3 1.00
                 13.01   0.033498726389998
                 1.962    0.23480080117413
                0.4446     0.8136829578829
 s    1 1.00
                 0.122                   1
 p    1 1.00
                 0.727                   1

12 0
 s    3 1.00
                 13.01   0.033498726389998
                 1.962    0.23480080117413
                0.4446     0.8136829578829
 s    1 1.00
                 0.122                   1
 p    1 1.00
                 0.727                   1

13 0
 s    8 1.00
                  6665  0.00069158396281299
                  1000  0.0053257961529341
                   228   0.027060721042034
                 64.71    0.10165684614077
                 21.06     0.2745748236174
                 7.495    0.44829431892377
                 2.797    0.28490261071525
                0.5215   0.015194859206082
 s    8 1.00
                  6665  -0.00029326965268655
                  1000  -0.0023180354739745
                   228  -0.011499786038565
                 64.71  -0.046826727009787
                 21.06   -0.12846616875047
                 7.495   -0.30126627246289
                 2.797   -0.25563070233011
                0.5215      1.093793361012
 s    1 1.00
                0.1596                   1
 p    3 1.00
                 9.439   0.056979251590039
                 2.002    0.31320721150073
                0.5456    0.76037674173753
 p    1 1.00
                0.1517                   1
 d    1 1.00
                  0.55                   1

14 0
 s    3 1.00
                 13.01   0.033498726389998
                 1.962    0.23480080117413
                0.4446     0.8136829578829
 s    1 1.00
                 0.122                   1
 p    1 1.00
                 0.727                   1

15 0
 s    3 1.00
                 13.01   0.033498726389998
                 1.962    0.23480080117413
                0.4446     0.8136829578829
 s    1 1.00
                 0.122                   1
 p    1 1.00
                 0.727                   1

16 0
 s    8 1.00
                  6665  0.00069158396281299
                  1000  0.0053257961529341
                   228   0.027060721042034
                 64.71    0.10165684614077
                 21.06     0.2745748236174
                 7.495    0.44829431892377
                 2.797    0.28490261071525
                0.5215   0.015194859206082
 s    8 1.00
                  6665  -0.00029326965268655
                  1000  -0.0023180354739745
                   228  -0.011499786038565
                 64.71  -0.046826727009787
                 21.06   -0.12846616875047
                 7.495   -0.30126627246289
                 2.797   -0.25563070233011
                0.5215      1.093793361012
 s    1 1.00
                0.1596                   1
 p    3 1.00
                 9.439   0.056979251590039
                 2.002    0.31320721150073
                0.5456    0.76037674173753
 p    1 1.00
                0.1517                   1
 d    1 1.00
                  0.55                   1

17 0
 s    3 1.00
                 13.01   0.033498726389998
                 1.962    0.23480080117413
                0.4446     0.8136829578829
 s    1 1.00
                 0.122                   1
 p    1 1.00
                 0.727                   1

18 0
 s    3 1.00
                 13.01   0.033498726389998
                 1.962    0.23480080117413
                0.4446     0.8136829578829
 s    1 1.00
                 0.122                   1
 p    1 1.00
                 0.727                   1

19 0
 s    8 1.00
                  6665  0.00069158396281299
                  1000  0.0053257961529341
                   228   0.027060721042034
                 64.71    0.10165684614077
                 21.06     0.2745748236174
                 7.495    0.44829431892377
                 2.797    0.28490261071525
                0.5215   0.015194859206082
 s    8 1.00
                  6665  -0.00029326965268655
                  1000  -0.0023180354739745
                   228  -0.011499786038565
                 64.71  -0.046826727009787
                 21.06   -0.12846616875047
                 7.495   -0.30126627246289
                 2.797   -0.25563070233011
                0.5215      1.093793361012
 s    1 1.00
                0.1596                   1
 p    3 1.00
                 9.439   0.056979251590039
                 2.002    0.31320721150073
                0.5456    0.76037674173753
 p    1 1.00
                0.1517                   1
 d    1 1.00
                  0.55                   1

20 0
 s    3 1.00
                 13.01   0.033498726389998
                 1.962    0.23480080117413
                0.4446     0.8136829578829
 s    1 1.00
                 0.122                   1
 p    1 1.00
                 0.727                   1

21 0
 s    8 1.00
                  6665  0.00069158396281299
                  1000  0.0053257961529341
                   228   0.027060721042034
                 64.71    0.10165684614077
                 21.06     0.2745748236174
                 7.495    0.44829431892377
                 2.797    0.28490261071525
                0.5215   0.015194859206082
 s    8 1.00
                  6665  -0.00029326965268655
                  1000  -0.0023180354739745
                   228  -0.011499786038565
                 64.71  -0.046826727009787
                 21.06   -0.12846616875047
                 7.495   -0.30126627246289
                 2.797   -0.25563070233011
                0.5215      1.093793361012
 s    1 1.00
                0.1596                   1
 p    3 1.00
                 9.439   0.056979251590039
                 2.002    0.31320721150073
                0.5456    0.76037674173753
 p    1 1.00
                0.1517                   1
 d    1 1.00
                  0.55                   1

22 0
 s    3 1.00
                 13.01   0.033498726389998
                 1.962    0.23480080117413
                0.4446     0.8136829578829
 s    1 1.00
                 0.122                   1
 p    1 1.00
                 0.727                   1

23 0
 s    3 1.00
                 13.01   0.033498726389998
                 1.962    0.23480080117413
                0.4446     0.8136829578829
 s    1 1.00
                 0.122                   1
 p    1 1.00
                 0.727                   1

24 0
 s    3 1.00
                 13.01   0.033498726389998
                 1.962    0.23480080117413
                0.4446     0.8136829578829
 s    1 1.00
                 0.122                   1
 p    1 1.00
                 0.727                   1

25 0
 s    8 1.00
                  6665  0.00069158396281299
                  1000  0.0053257961529341
                   228   0.027060721042034
                 64.71    0.10165684614077
                 21.06     0.2745748236174
                 7.495    0.44829431892377
                 2.797    0.28490261071525
                0.5215   0.015194859206082
 s    8 1.00
                  6665  -0.00029326965268655
                  1000  -0.0023180354739745
                   228  -0.011499786038565
                 64.71  -0.046826727009787
                 21.06   -0.12846616875047
                 7.495   -0.30126627246289
                 2.797   -0.25563070233011
                0.5215      1.093793361012
 s    1 1.00
                0.1596                   1
 p    3 1.00
                 9.439   0.056979251590039
                 2.002    0.31320721150073
                0.5456    0.76037674173753
 p    1 1.00
                0.1517                   1
 d    1 1.00
                  0.55                   1

26 0
 s    3 1.00
                 13.01   0.033498726389998
                 1.962    0.23480080117413
                0.4446     0.8136829578829
 s    1 1.00
                 0.122                   1
 p    1 1.00
                 0.727                   1

27 0
 s    3 1.00
                 13.01   0.033498726389998
                 1.962    0.23480080117413
                0.4446     0.8136829578829
 s    1 1.00
                 0.122                   1
 p    1 1.00
                 0.727                   1

28 0
 s    8 1.00
                  6665  0.00069158396281299
                  1000  0.0053257961529341
                   228   0.027060721042034
                 64.71    0.10165684614077
                 21.06     0.2745748236174
                 7.495    0.44829431892377
                 2.797    0.28490261071525
                0.5215   0.015194859206082
 s    8 1.00
                  6665  -0.00029326965268655
                  1000  -0.0023180354739745
                   228  -0.011499786038565
                 64.71  -0.046826727009787
                 21.06   -0.12846616875047
                 7.495   -0.30126627246289
                 2.797   -0.25563070233011
                0.5215      1.093793361012
 s    1 1.00
                0.1596                   1
 p    3 1.00
                 9.439   0.056979251590039
                 2.002    0.31320721150073
                0.5456    0.76037674173753
 p    1 1.00
                0.1517                   1
 d    1 1.00
                  0.55                   1

29 0
 s    3 1.00
                 13.01   0.033498726389998
                 1.962    0.23480080117413
                0.4446     0.8136829578829
 s    1 1.00
                 0.122                   1
 p    1 1.00
                 0.727                   1

30 0
 s    3 1.00
                 13.01   0.033498726389998
                 1.962    0.23480080117413
                0.4446     0.8136829578829
 s    1 1.00
                 0.122                   1
 p    1 1.00
                 0.727                   1

31 0
 s    8 1.00
                  6665  0.00069158396281299
                  1000  0.0053257961529341
                   228   0.027060721042034
                 64.71    0.10165684614077
                 21.06     0.2745748236174
                 7.495    0.44829431892377
                 2.797    0.28490261071525
                0.5215   0.015194859206082
 s    8 1.00
                  6665  -0.00029326965268655
                  1000  -0.0023180354739745
                   228  -0.011499786038565
                 64.71  -0.046826727009787
                 21.06   -0.12846616875047
                 7.495   -0.30126627246289
                 2.797   -0.25563070233011
                0.5215      1.093793361012
 s    1 1.00
                0.1596                   1
 p    3 1.00
                 9.439   0.056979251590039
                 2.002    0.31320721150073
                0.5456    0.76037674173753
 p    1 1.00
                0.1517                   1
 d    1 1.00
                  0.55                   1

32 0
 s    3 1.00
                 13.01   0.033498726389998
                 1.962    0.23480080117413
                0.4446     0.8136829578829
 s    1 1.00
                 0.122                   1
 p    1 1.00
                 0.727                   1

33 0
 s    3 1.00
                 13.01   0.033498726389998
                 1.962    0.23480080117413
                0.4446     0.8136829578829
 s    1 1.00
                 0.122                   1
 p    1 1.00
                 0.727                   1

34 0
 s    3 1.00
                 13.01   0.033498726389998
                 1.962    0.23480080117413
                0.4446     0.8136829578829
 s    1 1.00
                 0.122                   1
 p    1 1.00
                 0.727                   1

35 0
 s    3 1.00
                 13.01   0.033498726389998
                 1.962    0.23480080117413
                0.4446     0.8136829578829
 s    1 1.00
                 0.122                   1
 p    1 1.00
                 0.727                   1

36 0
 s    3 1.00
                 13.01   0.033498726389998
                 1.962    0.23480080117413
                0.4446     0.8136829578829
 s    1 1.00
                 0.122                   1
 p    1 1.00
                 0.727                   1

37 0
 s    3 1.00
                 13.01   0.033498726389998
                 1.962    0.23480080117413
                0.4446     0.8136829578829
 s    1 1.00
                 0.122                   1
 p    1 1.00
                 0.727                   1

[5d]
[7f]
[9g]

[MO]
 Sym= A
 Ene=               0
 Spin= Alpha
 Occup=    1.00000
   1    -1.2312623784081e-05
   2    -3.0066251040629e-05
   3    4.7315856862832e-05
   4    7.5852501693648e-06
   5    -1.234134879754e-05
   6    2.3812653118935e-06
   7    1.1304789048593e-05
   8    -1.1656060361998e-05
   9    -2.3101518489995e-05
  10    3.0654589759217e-06
  11    2.7714915297525e-07
  12    -2.2203284272946e-07
  13    2.3016949045857e-07
  14    3.4346582225048e-07
  15    -1.1556915129365e-05
  16    -7.0245436518413e-05
  17    2.8587803013835e-06
  18    -1.7345633366204e-06
  19    -1.2152770672064e-05
  20    -1.7429740927708e-05
  21    8.481118122551e-07
  22    3.9638563448551e-07
  23    4.5912114667767e-06
  24    2.4201649228118e-06
  25    6.2778690126073e-06
  26    2.2074741610546e-05
  27    5.3777085570988e-05
  28    -3.1306311516858e-06
  29    1.7762863549095e-05
  30    -5.0471125853602e-05
  31    -4.5049056804521e-05
  32    4.2338679516875e-05
  33    -4.3585843052841e-05
  34    2.720844379066e-06
  35    -4.0831596354301e-06
  36    3.3023709593146e-06
  37    -5.8996165136301e-07
  38    5.4120750451191e-07
  39    9.8974032590267e-05
  40    3.7026496716612e-05
  41    -0.00035845867786417
  42    0.00011956391345782
  43    -9.4648562078816e-05
  44    8.7621488894675e-05
  45    0.00051135875814821
  46    -0.00033428334078147
  47    4.7983471688928e-05
  48    -2.7345270895676e-05
  49    -4.5604081499508e-05
  50    3.7211616181959e-05
  51    6.446707974213e-06
  52    -4.5524148055198e-06
  53    4.539796848926e-05
  54    0.00012234424695124
  55    -0.00030194682715409
  56    -8.1178776908943e-05
  57    6.9218663651481e-05
  58    2.981618996061e-05
  59    0.00011545106691907
  60    -0.00011418448164114
  61    -7.4271276901326e-05
  62    1.9841216344669e-06
  63    7.4860374659222e-06
  64    -5.5592707167763e-06
  65    -1.0512797883692e-05
  66    1.5086817086221e-05
  67    -7.2033358518677e-05
  68    0.00028568839434276
  69    -0.00033423614179461
  70    -0.00040577598429226
  71    0.00017179756260731
  72    0.00032485017639197
  73    0.00059132945797024
  74    -0.00033399423326871
  75    0.00019982740336539
  76    2.6817630107339e-05
  77    6.6049291430771e-07
  78    -1.5704915816389e-06
  79    -3.6402083008376e-06
  80    5.5717358139987e-06
  81    -3.7404121023189e-05
  82    -0.00010211136952945
  83    2.9259102230518e-06
  84    9.811167457948e-08
  85    6.2605905566813e-06
  86    -2.5611936163174e-06
  87    -1.2017772099496e-07
  88    0.00022902675920315
  89    -2.9385461371565e-05
  90    5.1764067372128e-06
  91    4.0053029094965e-06
  92    0.00011902431082058
  93    -7.6531588677415e-05
  94    -3.2919948952874e-05
  95    -3.3555596468306e-06
  96    -1.3093901912001e-05
  97    1.0130922542958e-05
  98    8.1792316626999e-06
  99    -1.0981346780153e-06
 100    1.9384263050688e-05
 101    -3.2735444628874e-05
 102    -1.2415884943516e-05
 103    6.1430502163755e-06
 104    2.4557540157159e-07
 105    -3.1870191061267e-05
 106    7.2219662215844e-06
 107    -4.4518232809132e-05
 108    2.7395882126439e-05
 109    -3.4875821721685e-06
 110    -3.727053441979e-05
 111    -3.3635608221886e-05
 112    -3.9103034175492e-05
 113    1.7980553270502e-05
 114    -3.3740344883014e-06
 115    0.00070702515753366
 116    0.00044880944513014
 117    0.0006452421112078
 118    0.00041064005279004
 119    -0.00031417726156798
 120    0.00037616983358246
 121    0.00075287373294933
 122    -0.00035760378398486
 123    -0.00038584787237061
 124    -6.4527175341565e-05
 125     -5.4293613709e-05
 126    0.00010183121809653
 127    4.1206115966495e-05
 128    3.1750141052199e-05
 129    -5.6303930150031e-06
 130    -7.4806622991138e-06
 131    -1.1848947276422e-05
 132    3.7600451263512e-06
 133    3.1412011775703e-06
 134    2.3843958278859e-05
 135    -1.355491264119e-05
 136    5.1762857035436e-06
 137    3.0912526574359e-07
 138    2.1073422523323e-06
 139    1.1736038757427e-05
 140    2.3311221208934e-05
 141    -0.00020721403755303
 142    6.2139911365857e-06
 143    -3.6967135370105e-06
 144    1.8027127834393e-06
 145    8.7250713395522e-05
 146    -4.1719720329165e-05
 147    -0.00011555523125334
 148    3.8848550742743e-07
 149    8.3145652874063e-06
 150    -4.4622255233313e-06
 151    -3.8139472303374e-06
 152    7.7861079759307e-06
 153    0.0003884408832078
 154    0.00032476004100034
 155    -7.7810772863618e-05
 156    -1.6437165102582e-05
 157    -6.5854041120117e-06
 158    0.00025608977584101
 159    0.00010662157504205
 160    -1.8888973255839e-05
 161    7.5610483474179e-05
 162    1.9884061474934e-05
 163    -0.0025609839464899
 164    -0.0014364562855698
 165    -0.0040910373429947
 166    -0.0013660774010461
 167    -0.00064531974590261
 168    0.0016149339220441
 169    0.0007260820245801
 170    -0.00089217710254817
 171    -0.00014497436525945
 172    4.4823625786473e-05
 173    -0.00015362615621766
 174    0.00010442139280836
 175    0.00013186352769555
 176    -0.00015058855014789
 177    1.7765888810788e-05
 178    2.1679537687412e-05
 179    -3.3878641842751e-06
 180    1.3896188803643e-06
 181    2.6059511327706e-06
 182    2.7426945965886e-06
 183    1.9700370115361e-06
 184    -2.9262302242738e-06
 185    2.2649126193479e-06
 186    1.9427795825486e-06
 187    -2.4376217829254e-06
 188    2.6141341485087e-05
 189    5.7513680782322e-06
 190    6.6247589470843e-06
 191    1.420778693671e-06
 192    -4.7655563928787e-07
 193    8.898954958284e-07
 194    -2.6345712131777e-08
 195    -1.4506688686816e-06
 196    1.8579978636248e-07
 197    -1.4551096637835e-05
 198    -3.0810216984743e-06
 199    -1.9459746873888e-06
 200    3.6738224368825e-06
 201    -0.00098788373706958
 202    -0.0003885843056643
 203    -6.0049866518003e-05
 204    -0.0001272459555917
 205    -0.00010325076814727
 206    -0.0023672504942864
 207    -0.0010247930339173
 208    0.00011932651346717
 209    0.00019223879702769
 210    -0.00010907754928978
 211     -0.99804603924107
 212    -0.0046418289821962
 213     0.012236560405192
 214    0.00066481126361464
 215    -0.00033835018500582
 216    -0.00064150999655728
 217      0.00101627364801
 218    -0.00026018095757326
 219    -0.0015799156338128
 220    -6.1562556252077e-05
 221    -4.5530522212851e-05
 222    3.2961827949548e-07
 223    0.00015853678181086
 224    -0.00032992042131863
 225    -3.7929863323801e-09
 226    -7.409235997004e-06
 227    -1.0246103840497e-06
 228    1.9813328263086e-08
 229    -3.734013557767e-08
 230    3.3328492326403e-06
 231    1.5419788857422e-05
 232    1.7318512029776e-07
 233    -1.0145140453602e-06
 234    1.465202093286e-06
 235    0.00066368558863245
 236    1.2577843576848e-05
 237     -3.2746636636e-05
 238    -2.2343140173559e-06
 239    -8.4935722293424e-07
 240    2.1539167567667e-06
 241    2.0499590256854e-05
 242    7.5240833844515e-06
 243    -2.6927409842248e-05
 244    -5.6308443011206e-07
 245    2.6687186627561e-06
 246    -9.5046833172421e-07
 247    -6.6510274510304e-07
 248    -1.4509514659629e-07
 249    -0.00026944922970873
 250    -0.001314039181127
 251    -0.00017142884294617
 252    -0.00029550721249182
 253    -0.00028272636491616
 254    -0.00026175298720821
 255    -0.0014317843209926
 256    0.00021321140876043
 257    0.00037661149159399
 258    -0.00013532259344993
 259    -0.094703709609606
 260    -0.00037167823170833
 261    -0.0016934391969023
 262    -6.4880865358829e-05
 263    0.00012638491123001