[Molden Format]
made by pyscf v[2.0.1]
[Atoms] (AU)
O   1   8     0.00000000000000     0.00000000000000    11.69764103529358
H   2   1     0.00000000000000     0.00000000000000     9.87423921339262
H   3   1    -0.05031916615174     1.78353065140343    12.07351273176025
O   4   8     0.00000000000000     0.00000000000000     2.31533471513237
C   5   6     0.00000000000000     0.00000000000000     0.00000000000000
C   6   6     2.01118073026938    -1.40227222164369    -1.50774939176400
C   7   6    -2.01249334291722     1.41331050329955    -1.50315905028694
H   8   1     3.32037363730244    -2.26721897153159    -0.13599698591495
C   9   6     3.45899267434009     0.28739631745591    -3.37437943254505
H   10   1     1.07662969841332    -2.94725144642667    -2.56541439481080
H   11   1    -2.67503415753480     0.18421555839588    -3.06194479365997
H   12   1    -1.07974048864772     3.03851734677796    -2.43674295017013
C   13   6    -4.21607110578555     2.32938802552922     0.11994162256091
H   14   1     4.24440173074564     1.93368664142019    -2.34976285512790
H   15   1     2.15020713235517     1.04714335134846    -4.81494497423699
C   16   6     5.60746363007797    -1.12419643481196    -4.70268606082550
H   17   1    -3.46838323670267     3.50951302338067     1.66946842715333
H   18   1    -5.11873485366228     0.68575958301209     1.04047743976495
C   19   6    -6.18314754751344     3.80909592987882    -1.39656589068747
H   20   1     6.93011263717176    -1.87550812453645    -3.26656317360070
C   21   6     7.06356622236532     0.52877932406334    -6.57829775293605
H   22   1     4.82318879258361    -2.78573437948532    -5.70504560381835
H   23   1    -6.91582688743803     2.61304780074712    -2.95074552451969
H   24   1    -5.26532430573853     5.45420349051338    -2.31005832200284
C   25   6    -8.39941882261433     4.73263980500213     0.21800571437956
H   26   1     7.83338371486801     2.19084139882824    -5.57093109900697
H   27   1     5.73544244039420     1.27376866537418    -8.01071492370229
C   28   6     9.21124858443101    -0.89699110072176    -7.88926949186242
H   29   1    -7.66272760055236     5.92277078003992     1.77035591474408
H   30   1    -9.31497248082589     3.08753015622020     1.12614408368786
C   31   6   -10.35481709231879     6.21833079391143    -1.30905206253246
H   32   1    10.58815905329501    -1.61074586756696    -6.49512691622620
H   33   1    10.23506248045667     0.32468009384095    -9.23072870921204
H   34   1     8.47665842847139    -2.53598436989925    -8.94921964622535
H   35   1    -9.48948872868064     7.90013588951020    -2.18823918416067
H   36   1   -11.93332513000955     6.86460487874102    -0.11255798845995
H   37   1   -11.15126291841033     5.04495968327630    -2.83849898862534
[GTO]
1 0
 s    8 1.00
                 11720  0.00070964594651845
                  1759  0.0054672722921914
                 400.8   0.027823118610189
                 113.7    0.10474773971146
                 37.03    0.28292084635691
                 13.27    0.44849523869833
                 5.025    0.27081688521277
                 1.013    0.01545029160744
 s    8 1.00
                 11720  -0.00031444341168873
                  1759  -0.0024821376810179
                 400.8  -0.012316355381583
                 113.7  -0.050538917343672
                 37.03   -0.13938490331632
                 13.27   -0.32507749481778
                 5.025   -0.22984830758785
                 1.013     1.0953793467883
 s    1 1.00
                0.3023                   1
 p    3 1.00
                  17.7   0.062679166281506
                 3.854    0.33353656587936
                 1.046    0.74123964163973
 p    1 1.00
                0.2753                   1
 d    1 1.00
                 1.185                   1

2 0
 s    3 1.00
                 13.01   0.033498726389998
                 1.962    0.23480080117413
                0.4446     0.8136829578829
 s    1 1.00
                 0.122                   1
 p    1 1.00
                 0.727                   1

3 0
 s    3 1.00
                 13.01   0.033498726389998
                 1.962    0.23480080117413
                0.4446     0.8136829578829
 s    1 1.00
                 0.122                   1
 p    1 1.00
                 0.727                   1

4 0
 s    8 1.00
                 11720  0.00070964594651845
                  1759  0.0054672722921914
                 400.8   0.027823118610189
                 113.7    0.10474773971146
                 37.03    0.28292084635691
                 13.27    0.44849523869833
                 5.025    0.27081688521277
                 1.013    0.01545029160744
 s    8 1.00
                 11720  -0.00031444341168873
                  1759  -0.0024821376810179
                 400.8  -0.012316355381583
                 113.7  -0.050538917343672
                 37.03   -0.13938490331632
                 13.27   -0.32507749481778
                 5.025   -0.22984830758785
                 1.013     1.0953793467883
 s    1 1.00
                0.3023                   1
 p    3 1.00
                  17.7   0.062679166281506
                 3.854    0.33353656587936
                 1.046    0.74123964163973
 p    1 1.00
                0.2753                   1
 d    1 1.00
                 1.185                   1

5 0
 s    8 1.00
                  6665  0.00069158396281299
                  1000  0.0053257961529341
                   228   0.027060721042034
                 64.71    0.10165684614077
                 21.06     0.2745748236174
                 7.495    0.44829431892377
                 2.797    0.28490261071525
                0.5215   0.015194859206082
 s    8 1.00
                  6665  -0.00029326965268655
                  1000  -0.0023180354739745
                   228  -0.011499786038565
                 64.71  -0.046826727009787
                 21.06   -0.12846616875047
                 7.495   -0.30126627246289
                 2.797   -0.25563070233011
                0.5215      1.093793361012
 s    1 1.00
                0.1596                   1
 p    3 1.00
                 9.439   0.056979251590039
                 2.002    0.31320721150073
                0.5456    0.76037674173753
 p    1 1.00
                0.1517                   1
 d    1 1.00
                  0.55                   1

6 0
 s    8 1.00
                  6665  0.00069158396281299
                  1000  0.0053257961529341
                   228   0.027060721042034
                 64.71    0.10165684614077
                 21.06     0.2745748236174
                 7.495    0.44829431892377
                 2.797    0.28490261071525
                0.5215   0.015194859206082
 s    8 1.00
                  6665  -0.00029326965268655
                  1000  -0.0023180354739745
                   228  -0.011499786038565
                 64.71  -0.046826727009787
                 21.06   -0.12846616875047
                 7.495   -0.30126627246289
                 2.797   -0.25563070233011
                0.5215      1.093793361012
 s    1 1.00
                0.1596                   1
 p    3 1.00
                 9.439   0.056979251590039
                 2.002    0.31320721150073
                0.5456    0.76037674173753
 p    1 1.00
                0.1517                   1
 d    1 1.00
                  0.55                   1

7 0
 s    8 1.00
                  6665  0.00069158396281299
                  1000  0.0053257961529341
                   228   0.027060721042034
                 64.71    0.10165684614077
                 21.06     0.2745748236174
                 7.495    0.44829431892377
                 2.797    0.28490261071525
                0.5215   0.015194859206082
 s    8 1.00
                  6665  -0.00029326965268655
                  1000  -0.0023180354739745
                   228  -0.011499786038565
                 64.71  -0.046826727009787
                 21.06   -0.12846616875047
                 7.495   -0.30126627246289
                 2.797   -0.25563070233011
                0.5215      1.093793361012
 s    1 1.00
                0.1596                   1
 p    3 1.00
                 9.439   0.056979251590039
                 2.002    0.31320721150073
                0.5456    0.76037674173753
 p    1 1.00
                0.1517                   1
 d    1 1.00
                  0.55                   1

8 0
 s    3 1.00
                 13.01   0.033498726389998
                 1.962    0.23480080117413
                0.4446     0.8136829578829
 s    1 1.00
                 0.122                   1
 p    1 1.00
                 0.727                   1

9 0
 s    8 1.00
                  6665  0.00069158396281299
                  1000  0.0053257961529341
                   228   0.027060721042034
                 64.71    0.10165684614077
                 21.06     0.2745748236174
                 7.495    0.44829431892377
                 2.797    0.28490261071525
                0.5215   0.015194859206082
 s    8 1.00
                  6665  -0.00029326965268655
                  1000  -0.0023180354739745
                   228  -0.011499786038565
                 64.71  -0.046826727009787
                 21.06   -0.12846616875047
                 7.495   -0.30126627246289
                 2.797   -0.25563070233011
                0.5215      1.093793361012
 s    1 1.00
                0.1596                   1
 p    3 1.00
                 9.439   0.056979251590039
                 2.002    0.31320721150073
                0.5456    0.76037674173753
 p    1 1.00
                0.1517                   1
 d    1 1.00
                  0.55                   1

10 0
 s    3 1.00
                 13.01   0.033498726389998
                 1.962    0.23480080117413
                0.4446     0.8136829578829
 s    1 1.00
                 0.122                   1
 p    1 1.00
                 0.727                   1

11 0
 s    3 1.00
                 13.01   0.033498726389998
                 1.962    0.23480080117413
                0.4446     0.8136829578829
 s    1 1.00
                 0.122                   1
 p    1 1.00
                 0.727                   1

12 0
 s    3 1.00
                 13.01   0.033498726389998
                 1.962    0.23480080117413
                0.4446     0.8136829578829
 s    1 1.00
                 0.122                   1
 p    1 1.00
                 0.727                   1

13 0
 s    8 1.00
                  6665  0.00069158396281299
                  1000  0.0053257961529341
                   228   0.027060721042034
                 64.71    0.10165684614077
                 21.06     0.2745748236174
                 7.495    0.44829431892377
                 2.797    0.28490261071525
                0.5215   0.015194859206082
 s    8 1.00
                  6665  -0.00029326965268655
                  1000  -0.0023180354739745
                   228  -0.011499786038565
                 64.71  -0.046826727009787
                 21.06   -0.12846616875047
                 7.495   -0.30126627246289
                 2.797   -0.25563070233011
                0.5215      1.093793361012
 s    1 1.00
                0.1596                   1
 p    3 1.00
                 9.439   0.056979251590039
                 2.002    0.31320721150073
                0.5456    0.76037674173753
 p    1 1.00
                0.1517                   1
 d    1 1.00
                  0.55                   1

14 0
 s    3 1.00
                 13.01   0.033498726389998
                 1.962    0.23480080117413
                0.4446     0.8136829578829
 s    1 1.00
                 0.122                   1
 p    1 1.00
                 0.727                   1

15 0
 s    3 1.00
                 13.01   0.033498726389998
                 1.962    0.23480080117413
                0.4446     0.8136829578829
 s    1 1.00
                 0.122                   1
 p    1 1.00
                 0.727                   1

16 0
 s    8 1.00
                  6665  0.00069158396281299
                  1000  0.0053257961529341
                   228   0.027060721042034
                 64.71    0.10165684614077
                 21.06     0.2745748236174
                 7.495    0.44829431892377
                 2.797    0.28490261071525
                0.5215   0.015194859206082
 s    8 1.00
                  6665  -0.00029326965268655
                  1000  -0.0023180354739745
                   228  -0.011499786038565
                 64.71  -0.046826727009787
                 21.06   -0.12846616875047
                 7.495   -0.30126627246289
                 2.797   -0.25563070233011
                0.5215      1.093793361012
 s    1 1.00
                0.1596                   1
 p    3 1.00
                 9.439   0.056979251590039
                 2.002    0.31320721150073
                0.5456    0.76037674173753
 p    1 1.00
                0.1517                   1
 d    1 1.00
                  0.55                   1

17 0
 s    3 1.00
                 13.01   0.033498726389998
                 1.962    0.23480080117413
                0.4446     0.8136829578829
 s    1 1.00
                 0.122                   1
 p    1 1.00
                 0.727                   1

18 0
 s    3 1.00
                 13.01   0.033498726389998
                 1.962    0.23480080117413
                0.4446     0.8136829578829
 s    1 1.00
                 0.122                   1
 p    1 1.00
                 0.727                   1

19 0
 s    8 1.00
                  6665  0.00069158396281299
                  1000  0.0053257961529341
                   228   0.027060721042034
                 64.71    0.10165684614077
                 21.06     0.2745748236174
                 7.495    0.44829431892377
                 2.797    0.28490261071525
                0.5215   0.015194859206082
 s    8 1.00
                  6665  -0.00029326965268655
                  1000  -0.0023180354739745
                   228  -0.011499786038565
                 64.71  -0.046826727009787
                 21.06   -0.12846616875047
                 7.495   -0.30126627246289
                 2.797   -0.25563070233011
                0.5215      1.093793361012
 s    1 1.00
                0.1596                   1
 p    3 1.00
                 9.439   0.056979251590039
                 2.002    0.31320721150073
                0.5456    0.76037674173753
 p    1 1.00
                0.1517                   1
 d    1 1.00
                  0.55                   1

20 0
 s    3 1.00
                 13.01   0.033498726389998
                 1.962    0.23480080117413
                0.4446     0.8136829578829
 s    1 1.00
                 0.122                   1
 p    1 1.00
                 0.727                   1

21 0
 s    8 1.00
                  6665  0.00069158396281299
                  1000  0.0053257961529341
                   228   0.027060721042034
                 64.71    0.10165684614077
                 21.06     0.2745748236174
                 7.495    0.44829431892377
                 2.797    0.28490261071525
                0.5215   0.015194859206082
 s    8 1.00
                  6665  -0.00029326965268655
                  1000  -0.0023180354739745
                   228  -0.011499786038565
                 64.71  -0.046826727009787
                 21.06   -0.12846616875047
                 7.495   -0.30126627246289
                 2.797   -0.25563070233011
                0.5215      1.093793361012
 s    1 1.00
                0.1596                   1
 p    3 1.00
                 9.439   0.056979251590039
                 2.002    0.31320721150073
                0.5456    0.76037674173753
 p    1 1.00
                0.1517                   1
 d    1 1.00
                  0.55                   1

22 0
 s    3 1.00
                 13.01   0.033498726389998
                 1.962    0.23480080117413
                0.4446     0.8136829578829
 s    1 1.00
                 0.122                   1
 p    1 1.00
                 0.727                   1

23 0
 s    3 1.00
                 13.01   0.033498726389998
                 1.962    0.23480080117413
                0.4446     0.8136829578829
 s    1 1.00
                 0.122                   1
 p    1 1.00
                 0.727                   1

24 0
 s    3 1.00
                 13.01   0.033498726389998
                 1.962    0.23480080117413
                0.4446     0.8136829578829
 s    1 1.00
                 0.122                   1
 p    1 1.00
                 0.727                   1

25 0
 s    8 1.00
                  6665  0.00069158396281299
                  1000  0.0053257961529341
                   228   0.027060721042034
                 64.71    0.10165684614077
                 21.06     0.2745748236174
                 7.495    0.44829431892377
                 2.797    0.28490261071525
                0.5215   0.015194859206082
 s    8 1.00
                  6665  -0.00029326965268655
                  1000  -0.0023180354739745
                   228  -0.011499786038565
                 64.71  -0.046826727009787
                 21.06   -0.12846616875047
                 7.495   -0.30126627246289
                 2.797   -0.25563070233011
                0.5215      1.093793361012
 s    1 1.00
                0.1596                   1
 p    3 1.00
                 9.439   0.056979251590039
                 2.002    0.31320721150073
                0.5456    0.76037674173753
 p    1 1.00
                0.1517                   1
 d    1 1.00
                  0.55                   1

26 0
 s    3 1.00
                 13.01   0.033498726389998
                 1.962    0.23480080117413
                0.4446     0.8136829578829
 s    1 1.00
                 0.122                   1
 p    1 1.00
                 0.727                   1

27 0
 s    3 1.00
                 13.01   0.033498726389998
                 1.962    0.23480080117413
                0.4446     0.8136829578829
 s    1 1.00
                 0.122                   1
 p    1 1.00
                 0.727                   1

28 0
 s    8 1.00
                  6665  0.00069158396281299
                  1000  0.0053257961529341
                   228   0.027060721042034
                 64.71    0.10165684614077
                 21.06     0.2745748236174
                 7.495    0.44829431892377
                 2.797    0.28490261071525
                0.5215   0.015194859206082
 s    8 1.00
                  6665  -0.00029326965268655
                  1000  -0.0023180354739745
                   228  -0.011499786038565
                 64.71  -0.046826727009787
                 21.06   -0.12846616875047
                 7.495   -0.30126627246289
                 2.797   -0.25563070233011
                0.5215      1.093793361012
 s    1 1.00
                0.1596                   1
 p    3 1.00
                 9.439   0.056979251590039
                 2.002    0.31320721150073
                0.5456    0.76037674173753
 p    1 1.00
                0.1517                   1
 d    1 1.00
                  0.55                   1

29 0
 s    3 1.00
                 13.01   0.033498726389998
                 1.962    0.23480080117413
                0.4446     0.8136829578829
 s    1 1.00
                 0.122                   1
 p    1 1.00
                 0.727                   1

30 0
 s    3 1.00
                 13.01   0.033498726389998
                 1.962    0.23480080117413
                0.4446     0.8136829578829
 s    1 1.00
                 0.122                   1
 p    1 1.00
                 0.727                   1

31 0
 s    8 1.00
                  6665  0.00069158396281299
                  1000  0.0053257961529341
                   228   0.027060721042034
                 64.71    0.10165684614077
                 21.06     0.2745748236174
                 7.495    0.44829431892377
                 2.797    0.28490261071525
                0.5215   0.015194859206082
 s    8 1.00
                  6665  -0.00029326965268655
                  1000  -0.0023180354739745
                   228  -0.011499786038565
                 64.71  -0.046826727009787
                 21.06   -0.12846616875047
                 7.495   -0.30126627246289
                 2.797   -0.25563070233011
                0.5215      1.093793361012
 s    1 1.00
                0.1596                   1
 p    3 1.00
                 9.439   0.056979251590039
                 2.002    0.31320721150073
                0.5456    0.76037674173753
 p    1 1.00
                0.1517                   1
 d    1 1.00
                  0.55                   1

32 0
 s    3 1.00
                 13.01   0.033498726389998
                 1.962    0.23480080117413
                0.4446     0.8136829578829
 s    1 1.00
                 0.122                   1
 p    1 1.00
                 0.727                   1

33 0
 s    3 1.00
                 13.01   0.033498726389998
                 1.962    0.23480080117413
                0.4446     0.8136829578829
 s    1 1.00
                 0.122                   1
 p    1 1.00
                 0.727                   1

34 0
 s    3 1.00
                 13.01   0.033498726389998
                 1.962    0.23480080117413
                0.4446     0.8136829578829
 s    1 1.00
                 0.122                   1
 p    1 1.00
                 0.727                   1

35 0
 s    3 1.00
                 13.01   0.033498726389998
                 1.962    0.23480080117413
                0.4446     0.8136829578829
 s    1 1.00
                 0.122                   1
 p    1 1.00
                 0.727                   1

36 0
 s    3 1.00
                 13.01   0.033498726389998
                 1.962    0.23480080117413
                0.4446     0.8136829578829
 s    1 1.00
                 0.122                   1
 p    1 1.00
                 0.727                   1

37 0
 s    3 1.00
                 13.01   0.033498726389998
                 1.962    0.23480080117413
                0.4446     0.8136829578829
 s    1 1.00
                 0.122                   1
 p    1 1.00
                 0.727                   1

[5d]
[7f]
[9g]

[MO]
 Sym= A
 Ene=               0
 Spin= Alpha
 Occup=    1.00000
   1    8.8313891706877e-08
   2    1.7008752152249e-07
   3    -8.5560770964302e-07
   4    6.5211224311081e-10
   5    -1.2619677424968e-08
   6    2.2116120035653e-08
   7    -6.1177437632324e-09
   8    2.0442153424063e-07
   9    6.5508575344154e-07
  10    -7.4388964408513e-08
  11    -1.6058976209575e-10
  12    5.6954404884822e-09
  13    -5.8397019772053e-09
  14    -3.4738517870731e-10
  15    3.9316694907841e-08
  16    1.7600650938355e-06
  17    -1.3208623058864e-10
  18    -7.7692357085399e-09
  19    2.9128696826082e-07
  20    4.5743314628155e-08
  21    -6.4808919088842e-07
  22    -1.0088132529692e-09
  23    3.9505600675544e-08
  24    -1.8770877863087e-08
  25    4.2272472003301e-06
  26    3.4062959835106e-06
  27    1.7535509808628e-05
  28    -2.8190679231399e-06
  29    5.1664982871328e-05
  30    1.8624429283215e-05
  31    5.4893240891962e-05
  32    1.1188358569989e-05
  33    -1.0930790912171e-05
  34    1.4495738390137e-06
  35    -2.2713033197359e-06
  36    1.4479361006833e-06
  37    4.9259798475362e-07
  38    8.2345312897092e-07
  39    7.6321917174192e-05
  40    0.00017416716028956
  41    -0.00069019694799885
  42    5.9344770768926e-05
  43    -5.5826795661632e-05
  44    -6.2504915257873e-05
  45    -0.00043018243911067
  46    0.00031527845937708
  47    0.00021303066480121
  48    -7.3449609806948e-06
  49    3.4470834162307e-05
  50    -4.2605684129854e-06
  51    -1.4678520638046e-05
  52    2.3112404745168e-05
  53    6.9935095772875e-05
  54    -1.2273112278993e-05
  55    0.00034881960434692
  56    -8.5511864360168e-05
  57    -0.00011549171200682
  58    0.00011705926440492
  59    -0.00066647813415479
  60    0.0001034686913998
  61    0.00061396047115974
  62    7.7690478368123e-07
  63    -2.2020874353623e-05
  64    4.7302667917464e-05
  65    3.0988752812275e-05
  66    -3.5276974714355e-05
  67    4.6800984952582e-06
  68    1.0639656206373e-05
  69    9.5771162113061e-05
  70    2.2472531361128e-05
  71    1.1524685453939e-05
  72    -1.1129920101319e-05
  73    -0.00017189513867951
  74    4.3430722597124e-05
  75    1.1754142851809e-05
  76    -8.7746141181484e-06
  77    -1.1894707260971e-05
  78    7.032751715537e-06
  79    7.9538203055079e-06
  80    -7.4840055571004e-06
  81    4.912310360395e-05
  82    -8.0735978574711e-05
  83    1.4022682478314e-05
  84    -1.1568169389537e-05
  85    -1.6060867389953e-05
  86    -6.0094552583521e-05
  87    0.00032755274603181
  88    -0.00078754787320454
  89    0.00043279306841224
  90    -0.00030663248421171
  91    -0.00025919812261923
  92    -0.0003990445664553
  93    -4.7738079867592e-08
  94    0.00033033289752907
  95    -8.2047990201702e-06
  96    1.5025668531658e-05
  97    -7.3606650554122e-06
  98    -2.2837764334393e-05
  99    2.8306708618376e-06
 100    4.6767470736918e-05
 101    -3.5447185864209e-05
 102    2.4735183895973e-05
 103    -1.0690887920121e-05
 104    -1.3499268320751e-05
 105    -5.3294731373049e-06
 106    -1.5878041399062e-05
 107    1.3040223083072e-05
 108    -1.8797571887486e-06
 109    -1.501603395833e-07
 110    3.8096511849195e-05
 111    -3.206059634148e-05
 112    -1.8254007659109e-06
 113    1.1644777909631e-06
 114    2.5700537741756e-06
 115    1.3851949041192e-05
 116    2.5741703480777e-05
 117    -0.00017827987412481
 118    -1.1971502173765e-06
 119    -6.1382475750301e-06
 120    6.3261283086204e-06
 121    -0.00016604656430706
 122    0.00013944737293359
 123    2.8185126754189e-05
 124    1.3806828986465e-06
 125    1.0541292166219e-05
 126    -6.5220539208175e-06
 127    -5.9583747790018e-06
 128    1.0194787066462e-05
 129    -3.6313910807978e-05
 130    -3.4937887191068e-05
 131    3.5825597079713e-05
 132    -6.5484539051726e-06
 133    -2.5832211766471e-05
 134    -3.6090371859822e-05
 135    -1.9416609617547e-05
 136    3.2097367081492e-05
 137    -7.5824967237221e-06
 138    -2.2169962266973e-05
 139    0.00073418966799247
 140    0.00044296823453537
 141    -1.1399023272356e-05
 142    -0.00036848739382732
 143    -0.00051359037577153
 144    0.0005083397332163
 145    -0.0015209011800388
 146    0.00013547120595479
 147      0.00126961823463
 148    2.9474480727856e-06
 149    4.6368307760186e-05
 150    0.00017324602964788
 151    0.00010203938109326
 152    -0.00010653547070146
 153    2.1331831449895e-06
 154    -1.194565886203e-05
 155    5.4696929903121e-06
 156    -4.8606437503249e-06
 157    3.2121077791178e-06
 158    1.9789902222876e-05
 159    2.0541567178838e-05
 160    5.906622725031e-06
 161    -4.7222317106108e-06
 162    -2.2831233211257e-08
 163    7.5797247420542e-06
 164    9.9491192321169e-06
 165    -7.6107395970485e-05
 166    -4.101986770913e-06
 167    2.5179298847155e-06
 168    -1.7661630729069e-06
 169    -5.4652066957617e-05
 170    6.8658827247564e-06
 171    -1.3803295535721e-05
 172    2.2663305273467e-07
 173    -3.8026029512517e-06
 174    1.5723831486714e-06
 175    -1.5162908212227e-06
 176    3.5692177698492e-07
 177    0.00032780672226495
 178    0.00013120417847843
 179    4.4640872519218e-05
 180    -2.5299428838208e-05
 181    -9.2273348161201e-05
 182    -0.0030102987024982
 183    -0.0022846081185771
 184    -0.0026472480031689
 185     0.001487604962685
 186    -0.0023258913467974
 187    -0.00040596594141718
 188    -0.00031674838071971
 189    -0.00090532781500547
 190    0.00060912495894214
 191    -7.2412225951407e-05
 192    -0.00030365637611724
 193    4.4771666859536e-05
 194    6.4898026865396e-05
 195    -0.00018421191348636
 196    0.00033107540721403
 197    0.00014086511731862
 198    0.00010216851333658
 199    5.1886503901462e-07
 200    -2.5154681556589e-05
 201    3.3812566364418e-06
 202    -1.1769095143458e-05
 203    1.2208932753165e-06
 204    -3.1756441322691e-07
 205    -5.995286137308e-08
 206    5.0171393750906e-06
 207    2.4086905546329e-05
 208    1.2264810621619e-06
 209    -2.9166064383527e-06
 210    1.5529819016952e-06
 211    0.00093478799432771
 212    1.1615097027522e-05
 213    -4.8743648981672e-06
 214    4.8391376936591e-06
 215    -2.2607200113763e-06
 216    4.5220640064264e-07
 217    -5.6038331942393e-05
 218    4.0087430437916e-05
 219    -2.3058822617998e-05
 220    7.4078007240976e-07
 221    1.6043224302706e-06
 222    -1.9828905264397e-06
 223    -9.2998915605126e-07
 224    1.8405224976142e-06
 225    -0.0023749913689973
 226    -0.00082779898491572
 227    0.00011109518423061
 228    0.0001974955729478
 229    0.00013737212872793
 230    -0.0023752902642062
 231    -0.00084472958952871
 232    -0.00016913290375596
 233    7.5116518424632e-05
 234    -0.00019049881245548
 235      -1.0023593715515
 236    -0.0041824928902951
 237     0.010266881903463
 238    -0.0010053374674286
 239    0.00065455929381365
 240    0.00062304975522471
 241    -0.0013850036619215
 242    0.00044984059537138
 243    0.0010171105814007
 244    -2.7360707517098e-05
 245    -0.00017324241084258
 246    8.4053425452929e-05
 247    9.4015390258997e-05
 248    -0.00012937116906417
 249    5.835794746192e-06
 250    1.9608128262685e-07
 251    2.457005770638e-06
 252    -2.3931256381876e-06
 253    1.5387454200722e-06
 254    3.6470146524373e-06
 255    1.8699824545122e-06
 256    2.5827890200724e-06
 257    -1.7493746691321e-06
 258    2.2891035452212e-06
 259    8.2217159925542e-05
 260    7.5385623856335e-06
 261    -5.8879929717624e-05
 262    -1.1412667454872e-06