[Molden Format]
made by pyscf v[2.0.1]
[Atoms] (AU)
O   1   8     0.00000000000000     0.00000000000000     7.16229833633744
H   2   1     0.00000000000000     0.00000000000000     5.33889651443647
H   3   1    -0.05031916615174     1.78353065140343     7.53817003280410
O   4   8     0.00000000000000     0.00000000000000     2.31533471513237
C   5   6     0.00000000000000     0.00000000000000     0.00000000000000
C   6   6     2.01118073026938    -1.40227222164369    -1.50774939176400
C   7   6    -2.01249334291722     1.41331050329955    -1.50315905028694
H   8   1     3.32037363730244    -2.26721897153159    -0.13599698591495
C   9   6     3.45899267434009     0.28739631745591    -3.37437943254505
H   10   1     1.07662969841332    -2.94725144642667    -2.56541439481080
H   11   1    -2.67503415753480     0.18421555839588    -3.06194479365997
H   12   1    -1.07974048864772     3.03851734677796    -2.43674295017013
C   13   6    -4.21607110578555     2.32938802552922     0.11994162256091
H   14   1     4.24440173074564     1.93368664142019    -2.34976285512790
H   15   1     2.15020713235517     1.04714335134846    -4.81494497423699
C   16   6     5.60746363007797    -1.12419643481196    -4.70268606082550
H   17   1    -3.46838323670267     3.50951302338067     1.66946842715333
H   18   1    -5.11873485366228     0.68575958301209     1.04047743976495
C   19   6    -6.18314754751344     3.80909592987882    -1.39656589068747
H   20   1     6.93011263717176    -1.87550812453645    -3.26656317360070
C   21   6     7.06356622236532     0.52877932406334    -6.57829775293605
H   22   1     4.82318879258361    -2.78573437948532    -5.70504560381835
H   23   1    -6.91582688743803     2.61304780074712    -2.95074552451969
H   24   1    -5.26532430573853     5.45420349051338    -2.31005832200284
C   25   6    -8.39941882261433     4.73263980500213     0.21800571437956
H   26   1     7.83338371486801     2.19084139882824    -5.57093109900697
H   27   1     5.73544244039420     1.27376866537418    -8.01071492370229
C   28   6     9.21124858443101    -0.89699110072176    -7.88926949186242
H   29   1    -7.66272760055236     5.92277078003992     1.77035591474408
H   30   1    -9.31497248082589     3.08753015622020     1.12614408368786
C   31   6   -10.35481709231879     6.21833079391143    -1.30905206253246
H   32   1    10.58815905329501    -1.61074586756696    -6.49512691622620
H   33   1    10.23506248045667     0.32468009384095    -9.23072870921204
H   34   1     8.47665842847139    -2.53598436989925    -8.94921964622535
H   35   1    -9.48948872868064     7.90013588951020    -2.18823918416067
H   36   1   -11.93332513000955     6.86460487874102    -0.11255798845995
H   37   1   -11.15126291841033     5.04495968327630    -2.83849898862534
[GTO]
1 0
 s    8 1.00
                 11720  0.00070964594651845
                  1759  0.0054672722921914
                 400.8   0.027823118610189
                 113.7    0.10474773971146
                 37.03    0.28292084635691
                 13.27    0.44849523869833
                 5.025    0.27081688521277
                 1.013    0.01545029160744
 s    8 1.00
                 11720  -0.00031444341168873
                  1759  -0.0024821376810179
                 400.8  -0.012316355381583
                 113.7  -0.050538917343672
                 37.03   -0.13938490331632
                 13.27   -0.32507749481778
                 5.025   -0.22984830758785
                 1.013     1.0953793467883
 s    1 1.00
                0.3023                   1
 p    3 1.00
                  17.7   0.062679166281506
                 3.854    0.33353656587936
                 1.046    0.74123964163973
 p    1 1.00
                0.2753                   1
 d    1 1.00
                 1.185                   1

2 0
 s    3 1.00
                 13.01   0.033498726389998
                 1.962    0.23480080117413
                0.4446     0.8136829578829
 s    1 1.00
                 0.122                   1
 p    1 1.00
                 0.727                   1

3 0
 s    3 1.00
                 13.01   0.033498726389998
                 1.962    0.23480080117413
                0.4446     0.8136829578829
 s    1 1.00
                 0.122                   1
 p    1 1.00
                 0.727                   1

4 0
 s    8 1.00
                 11720  0.00070964594651845
                  1759  0.0054672722921914
                 400.8   0.027823118610189
                 113.7    0.10474773971146
                 37.03    0.28292084635691
                 13.27    0.44849523869833
                 5.025    0.27081688521277
                 1.013    0.01545029160744
 s    8 1.00
                 11720  -0.00031444341168873
                  1759  -0.0024821376810179
                 400.8  -0.012316355381583
                 113.7  -0.050538917343672
                 37.03   -0.13938490331632
                 13.27   -0.32507749481778
                 5.025   -0.22984830758785
                 1.013     1.0953793467883
 s    1 1.00
                0.3023                   1
 p    3 1.00
                  17.7   0.062679166281506
                 3.854    0.33353656587936
                 1.046    0.74123964163973
 p    1 1.00
                0.2753                   1
 d    1 1.00
                 1.185                   1

5 0
 s    8 1.00
                  6665  0.00069158396281299
                  1000  0.0053257961529341
                   228   0.027060721042034
                 64.71    0.10165684614077
                 21.06     0.2745748236174
                 7.495    0.44829431892377
                 2.797    0.28490261071525
                0.5215   0.015194859206082
 s    8 1.00
                  6665  -0.00029326965268655
                  1000  -0.0023180354739745
                   228  -0.011499786038565
                 64.71  -0.046826727009787
                 21.06   -0.12846616875047
                 7.495   -0.30126627246289
                 2.797   -0.25563070233011
                0.5215      1.093793361012
 s    1 1.00
                0.1596                   1
 p    3 1.00
                 9.439   0.056979251590039
                 2.002    0.31320721150073
                0.5456    0.76037674173753
 p    1 1.00
                0.1517                   1
 d    1 1.00
                  0.55                   1

6 0
 s    8 1.00
                  6665  0.00069158396281299
                  1000  0.0053257961529341
                   228   0.027060721042034
                 64.71    0.10165684614077
                 21.06     0.2745748236174
                 7.495    0.44829431892377
                 2.797    0.28490261071525
                0.5215   0.015194859206082
 s    8 1.00
                  6665  -0.00029326965268655
                  1000  -0.0023180354739745
                   228  -0.011499786038565
                 64.71  -0.046826727009787
                 21.06   -0.12846616875047
                 7.495   -0.30126627246289
                 2.797   -0.25563070233011
                0.5215      1.093793361012
 s    1 1.00
                0.1596                   1
 p    3 1.00
                 9.439   0.056979251590039
                 2.002    0.31320721150073
                0.5456    0.76037674173753
 p    1 1.00
                0.1517                   1
 d    1 1.00
                  0.55                   1

7 0
 s    8 1.00
                  6665  0.00069158396281299
                  1000  0.0053257961529341
                   228   0.027060721042034
                 64.71    0.10165684614077
                 21.06     0.2745748236174
                 7.495    0.44829431892377
                 2.797    0.28490261071525
                0.5215   0.015194859206082
 s    8 1.00
                  6665  -0.00029326965268655
                  1000  -0.0023180354739745
                   228  -0.011499786038565
                 64.71  -0.046826727009787
                 21.06   -0.12846616875047
                 7.495   -0.30126627246289
                 2.797   -0.25563070233011
                0.5215      1.093793361012
 s    1 1.00
                0.1596                   1
 p    3 1.00
                 9.439   0.056979251590039
                 2.002    0.31320721150073
                0.5456    0.76037674173753
 p    1 1.00
                0.1517                   1
 d    1 1.00
                  0.55                   1

8 0
 s    3 1.00
                 13.01   0.033498726389998
                 1.962    0.23480080117413
                0.4446     0.8136829578829
 s    1 1.00
                 0.122                   1
 p    1 1.00
                 0.727                   1

9 0
 s    8 1.00
                  6665  0.00069158396281299
                  1000  0.0053257961529341
                   228   0.027060721042034
                 64.71    0.10165684614077
                 21.06     0.2745748236174
                 7.495    0.44829431892377
                 2.797    0.28490261071525
                0.5215   0.015194859206082
 s    8 1.00
                  6665  -0.00029326965268655
                  1000  -0.0023180354739745
                   228  -0.011499786038565
                 64.71  -0.046826727009787
                 21.06   -0.12846616875047
                 7.495   -0.30126627246289
                 2.797   -0.25563070233011
                0.5215      1.093793361012
 s    1 1.00
                0.1596                   1
 p    3 1.00
                 9.439   0.056979251590039
                 2.002    0.31320721150073
                0.5456    0.76037674173753
 p    1 1.00
                0.1517                   1
 d    1 1.00
                  0.55                   1

10 0
 s    3 1.00
                 13.01   0.033498726389998
                 1.962    0.23480080117413
                0.4446     0.8136829578829
 s    1 1.00
                 0.122                   1
 p    1 1.00
                 0.727                   1

11 0
 s    3 1.00
                 13.01   0.033498726389998
                 1.962    0.23480080117413
                0.4446     0.8136829578829
 s    1 1.00
                 0.122                   1
 p    1 1.00
                 0.727                   1

12 0
 s    3 1.00
                 13.01   0.033498726389998
                 1.962    0.23480080117413
                0.4446     0.8136829578829
 s    1 1.00
                 0.122                   1
 p    1 1.00
                 0.727                   1

13 0
 s    8 1.00
                  6665  0.00069158396281299
                  1000  0.0053257961529341
                   228   0.027060721042034
                 64.71    0.10165684614077
                 21.06     0.2745748236174
                 7.495    0.44829431892377
                 2.797    0.28490261071525
                0.5215   0.015194859206082
 s    8 1.00
                  6665  -0.00029326965268655
                  1000  -0.0023180354739745
                   228  -0.011499786038565
                 64.71  -0.046826727009787
                 21.06   -0.12846616875047
                 7.495   -0.30126627246289
                 2.797   -0.25563070233011
                0.5215      1.093793361012
 s    1 1.00
                0.1596                   1
 p    3 1.00
                 9.439   0.056979251590039
                 2.002    0.31320721150073
                0.5456    0.76037674173753
 p    1 1.00
                0.1517                   1
 d    1 1.00
                  0.55                   1

14 0
 s    3 1.00
                 13.01   0.033498726389998
                 1.962    0.23480080117413
                0.4446     0.8136829578829
 s    1 1.00
                 0.122                   1
 p    1 1.00
                 0.727                   1

15 0
 s    3 1.00
                 13.01   0.033498726389998
                 1.962    0.23480080117413
                0.4446     0.8136829578829
 s    1 1.00
                 0.122                   1
 p    1 1.00
                 0.727                   1

16 0
 s    8 1.00
                  6665  0.00069158396281299
                  1000  0.0053257961529341
                   228   0.027060721042034
                 64.71    0.10165684614077
                 21.06     0.2745748236174
                 7.495    0.44829431892377
                 2.797    0.28490261071525
                0.5215   0.015194859206082
 s    8 1.00
                  6665  -0.00029326965268655
                  1000  -0.0023180354739745
                   228  -0.011499786038565
                 64.71  -0.046826727009787
                 21.06   -0.12846616875047
                 7.495   -0.30126627246289
                 2.797   -0.25563070233011
                0.5215      1.093793361012
 s    1 1.00
                0.1596                   1
 p    3 1.00
                 9.439   0.056979251590039
                 2.002    0.31320721150073
                0.5456    0.76037674173753
 p    1 1.00
                0.1517                   1
 d    1 1.00
                  0.55                   1

17 0
 s    3 1.00
                 13.01   0.033498726389998
                 1.962    0.23480080117413
                0.4446     0.8136829578829
 s    1 1.00
                 0.122                   1
 p    1 1.00
                 0.727                   1

18 0
 s    3 1.00
                 13.01   0.033498726389998
                 1.962    0.23480080117413
                0.4446     0.8136829578829
 s    1 1.00
                 0.122                   1
 p    1 1.00
                 0.727                   1

19 0
 s    8 1.00
                  6665  0.00069158396281299
                  1000  0.0053257961529341
                   228   0.027060721042034
                 64.71    0.10165684614077
                 21.06     0.2745748236174
                 7.495    0.44829431892377
                 2.797    0.28490261071525
                0.5215   0.015194859206082
 s    8 1.00
                  6665  -0.00029326965268655
                  1000  -0.0023180354739745
                   228  -0.011499786038565
                 64.71  -0.046826727009787
                 21.06   -0.12846616875047
                 7.495   -0.30126627246289
                 2.797   -0.25563070233011
                0.5215      1.093793361012
 s    1 1.00
                0.1596                   1
 p    3 1.00
                 9.439   0.056979251590039
                 2.002    0.31320721150073
                0.5456    0.76037674173753
 p    1 1.00
                0.1517                   1
 d    1 1.00
                  0.55                   1

20 0
 s    3 1.00
                 13.01   0.033498726389998
                 1.962    0.23480080117413
                0.4446     0.8136829578829
 s    1 1.00
                 0.122                   1
 p    1 1.00
                 0.727                   1

21 0
 s    8 1.00
                  6665  0.00069158396281299
                  1000  0.0053257961529341
                   228   0.027060721042034
                 64.71    0.10165684614077
                 21.06     0.2745748236174
                 7.495    0.44829431892377
                 2.797    0.28490261071525
                0.5215   0.015194859206082
 s    8 1.00
                  6665  -0.00029326965268655
                  1000  -0.0023180354739745
                   228  -0.011499786038565
                 64.71  -0.046826727009787
                 21.06   -0.12846616875047
                 7.495   -0.30126627246289
                 2.797   -0.25563070233011
                0.5215      1.093793361012
 s    1 1.00
                0.1596                   1
 p    3 1.00
                 9.439   0.056979251590039
                 2.002    0.31320721150073
                0.5456    0.76037674173753
 p    1 1.00
                0.1517                   1
 d    1 1.00
                  0.55                   1

22 0
 s    3 1.00
                 13.01   0.033498726389998
                 1.962    0.23480080117413
                0.4446     0.8136829578829
 s    1 1.00
                 0.122                   1
 p    1 1.00
                 0.727                   1

23 0
 s    3 1.00
                 13.01   0.033498726389998
                 1.962    0.23480080117413
                0.4446     0.8136829578829
 s    1 1.00
                 0.122                   1
 p    1 1.00
                 0.727                   1

24 0
 s    3 1.00
                 13.01   0.033498726389998
                 1.962    0.23480080117413
                0.4446     0.8136829578829
 s    1 1.00
                 0.122                   1
 p    1 1.00
                 0.727                   1

25 0
 s    8 1.00
                  6665  0.00069158396281299
                  1000  0.0053257961529341
                   228   0.027060721042034
                 64.71    0.10165684614077
                 21.06     0.2745748236174
                 7.495    0.44829431892377
                 2.797    0.28490261071525
                0.5215   0.015194859206082
 s    8 1.00
                  6665  -0.00029326965268655
                  1000  -0.0023180354739745
                   228  -0.011499786038565
                 64.71  -0.046826727009787
                 21.06   -0.12846616875047
                 7.495   -0.30126627246289
                 2.797   -0.25563070233011
                0.5215      1.093793361012
 s    1 1.00
                0.1596                   1
 p    3 1.00
                 9.439   0.056979251590039
                 2.002    0.31320721150073
                0.5456    0.76037674173753
 p    1 1.00
                0.1517                   1
 d    1 1.00
                  0.55                   1

26 0
 s    3 1.00
                 13.01   0.033498726389998
                 1.962    0.23480080117413
                0.4446     0.8136829578829
 s    1 1.00
                 0.122                   1
 p    1 1.00
                 0.727                   1

27 0
 s    3 1.00
                 13.01   0.033498726389998
                 1.962    0.23480080117413
                0.4446     0.8136829578829
 s    1 1.00
                 0.122                   1
 p    1 1.00
                 0.727                   1

28 0
 s    8 1.00
                  6665  0.00069158396281299
                  1000  0.0053257961529341
                   228   0.027060721042034
                 64.71    0.10165684614077
                 21.06     0.2745748236174
                 7.495    0.44829431892377
                 2.797    0.28490261071525
                0.5215   0.015194859206082
 s    8 1.00
                  6665  -0.00029326965268655
                  1000  -0.0023180354739745
                   228  -0.011499786038565
                 64.71  -0.046826727009787
                 21.06   -0.12846616875047
                 7.495   -0.30126627246289
                 2.797   -0.25563070233011
                0.5215      1.093793361012
 s    1 1.00
                0.1596                   1
 p    3 1.00
                 9.439   0.056979251590039
                 2.002    0.31320721150073
                0.5456    0.76037674173753
 p    1 1.00
                0.1517                   1
 d    1 1.00
                  0.55                   1

29 0
 s    3 1.00
                 13.01   0.033498726389998
                 1.962    0.23480080117413
                0.4446     0.8136829578829
 s    1 1.00
                 0.122                   1
 p    1 1.00
                 0.727                   1

30 0
 s    3 1.00
                 13.01   0.033498726389998
                 1.962    0.23480080117413
                0.4446     0.8136829578829
 s    1 1.00
                 0.122                   1
 p    1 1.00
                 0.727                   1

31 0
 s    8 1.00
                  6665  0.00069158396281299
                  1000  0.0053257961529341
                   228   0.027060721042034
                 64.71    0.10165684614077
                 21.06     0.2745748236174
                 7.495    0.44829431892377
                 2.797    0.28490261071525
                0.5215   0.015194859206082
 s    8 1.00
                  6665  -0.00029326965268655
                  1000  -0.0023180354739745
                   228  -0.011499786038565
                 64.71  -0.046826727009787
                 21.06   -0.12846616875047
                 7.495   -0.30126627246289
                 2.797   -0.25563070233011
                0.5215      1.093793361012
 s    1 1.00
                0.1596                   1
 p    3 1.00
                 9.439   0.056979251590039
                 2.002    0.31320721150073
                0.5456    0.76037674173753
 p    1 1.00
                0.1517                   1
 d    1 1.00
                  0.55                   1

32 0
 s    3 1.00
                 13.01   0.033498726389998
                 1.962    0.23480080117413
                0.4446     0.8136829578829
 s    1 1.00
                 0.122                   1
 p    1 1.00
                 0.727                   1

33 0
 s    3 1.00
                 13.01   0.033498726389998
                 1.962    0.23480080117413
                0.4446     0.8136829578829
 s    1 1.00
                 0.122                   1
 p    1 1.00
                 0.727                   1

34 0
 s    3 1.00
                 13.01   0.033498726389998
                 1.962    0.23480080117413
                0.4446     0.8136829578829
 s    1 1.00
                 0.122                   1
 p    1 1.00
                 0.727                   1

35 0
 s    3 1.00
                 13.01   0.033498726389998
                 1.962    0.23480080117413
                0.4446     0.8136829578829
 s    1 1.00
                 0.122                   1
 p    1 1.00
                 0.727                   1

36 0
 s    3 1.00
                 13.01   0.033498726389998
                 1.962    0.23480080117413
                0.4446     0.8136829578829
 s    1 1.00
                 0.122                   1
 p    1 1.00
                 0.727                   1

37 0
 s    3 1.00
                 13.01   0.033498726389998
                 1.962    0.23480080117413
                0.4446     0.8136829578829
 s    1 1.00
                 0.122                   1
 p    1 1.00
                 0.727                   1

[5d]
[7f]
[9g]

[MO]
 Sym= A
 Ene=               0
 Spin= Alpha
 Occup=    1.00000
   1    -5.5757402805126e-07
   2    -1.0232344997708e-06
   3    4.8825708345816e-06
   4    -2.4504168557069e-07
   5     3.77797431718e-07
   6    -2.6133739953978e-06
   7    -8.0657465920941e-08
   8    -7.1236497270393e-07
   9    -3.2183648717349e-06
  10    -8.60540078471e-07
  11    8.0729157425018e-07
  12    -3.5571360676915e-07
  13    1.0059763370743e-07
  14    1.3108406683636e-08
  15    -2.9954531511855e-06
  16    -8.7576467970107e-06
  17    3.6429226998801e-06
  18    -2.2602777249618e-06
  19    6.354854590819e-06
  20    6.046133240472e-07
  21    -1.3585936852438e-06
  22    3.6881697877456e-08
  23    1.4208743124992e-07
  24    -2.4957446582233e-07
  25    -3.4815323504362e-06
  26    -2.0269856220679e-06
  27    -2.4046409573245e-05
  28    2.4465330573068e-06
  29    -5.0862116608625e-05
  30    -1.9120002644051e-05
  31    -5.6799725502116e-05
  32    -1.0864684578511e-05
  33    2.4402191934672e-05
  34    -1.9724458227108e-06
  35    2.2679757591087e-06
  36    -1.8407892145675e-06
  37    -4.5574349572195e-07
  38    -8.3466048904716e-07
  39    -7.6194632331667e-05
  40    -0.0001738227394744
  41    0.00070291975902675
  42    -5.8048169472535e-05
  43    5.9029862838526e-05
  44    6.4180780252694e-05
  45    0.00043337427895714
  46    -0.00031282079525258
  47    -0.00020651599117578
  48    8.8906000658915e-06
  49    -3.4745393417536e-05
  50    4.6432646040172e-06
  51    1.5036122697621e-05
  52    -2.352887080072e-05
  53    -6.9670707672537e-05
  54    1.3368434456764e-05
  55    -0.00034793027202204
  56    8.4210350413574e-05
  57    0.0001166064633335
  58    -0.00011620240064656
  59    0.00066693821135103
  60    -0.00010260707894749
  61    -0.00061711290947417
  62    -8.6922396534283e-07
  63    2.2731943650946e-05
  64    -4.7460419314593e-05
  65    -3.1452848795584e-05
  66    3.5274805478134e-05
  67    -4.6821967960561e-06
  68    -1.0910628229471e-05
  69    -9.7390431714928e-05
  70    -2.3158984003468e-05
  71    -1.1318568220909e-05
  72    1.0818142325754e-05
  73    0.00017194438724369
  74    -4.4131906642425e-05
  75    -1.3893481370605e-05
  76    9.0112550486871e-06
  77    1.1789959749554e-05
  78    -6.8422962194143e-06
  79    -7.8884931747896e-06
  80    7.6718339803307e-06
  81    -4.8758850297146e-05
  82    8.1412603415167e-05
  83    -1.395166547117e-05
  84    1.1515234798932e-05
  85    1.6178926907334e-05
  86    5.9941067925477e-05
  87    -0.00032896599061456
  88    0.00078255721893664
  89    -0.00043223649550757
  90    0.00030848299724104
  91    0.00025799643657412
  92    0.00039906216235108
  93    3.2979246750473e-06
  94    -0.00033069097022611
  95    8.3152502871838e-06
  96    -1.5381872575832e-05
  97    7.5362117087585e-06
  98    2.3164425286148e-05
  99    -3.1157668556215e-06
 100    -4.6236306825031e-05
 101    3.5825286731613e-05
 102    -2.4998136536929e-05
 103    1.0717614233742e-05
 104    1.3648634472804e-05
 105    5.6326706231135e-06
 106    1.5992445768024e-05
 107    -1.2990006519451e-05
 108    1.7555342371756e-06
 109    1.8477316144489e-07
 110    -3.8573651373453e-05
 111    3.136864007648e-05
 112    1.8687045161876e-06
 113    -1.0755869426525e-06
 114    -2.551248374026e-06
 115    -1.3851769165936e-05
 116    -2.5720441293009e-05
 117    0.00018032348608676
 118    1.4171407956027e-06
 119    6.0059660907261e-06
 120    -6.4126403555124e-06
 121    0.0001657885197673
 122    -0.00013906973899037
 123    -3.0038914190488e-05
 124    -1.338521585107e-06
 125    -1.0524611526187e-05
 126    6.444377120809e-06
 127    6.0075000975289e-06
 128    -1.0254617381952e-05
 129    3.6171503168907e-05
 130    3.3976610902851e-05
 131    -3.5802198803348e-05
 132    6.6147467695687e-06
 133    2.581295466936e-05
 134    3.5904410396998e-05
 135    1.9708133270311e-05
 136    -3.2095951005242e-05
 137    7.6052316187501e-06
 138    2.2162113409353e-05
 139    -0.00073438544274039
 140    -0.00044289678481677
 141    1.5260647861034e-05
 142    0.00036563951960959
 143    0.00051422951052144
 144    -0.00050620755051851
 145    0.0015208547923216
 146    -0.00013330880020759
 147    -0.0012701211370726
 148    -3.2353615395689e-06
 149    -4.5986782963708e-05
 150    -0.00017327179965997
 151    -0.00010252372574922
 152    0.00010620126434508
 153    -1.9990573246211e-06
 154    1.3282586068622e-05
 155    -5.449458161885e-06
 156    4.7538647070261e-06
 157    -3.2397577870117e-06
 158    -1.9714205495636e-05
 159    -2.0174698099077e-05
 160    -5.840656156411e-06
 161    4.7140600519183e-06
 162    7.7293504063088e-08
 163    -7.6035219221532e-06
 164    -9.8360511418306e-06
 165    7.3808515960786e-05
 166    3.9437284228659e-06
 167    -2.4707759682997e-06
 168    1.8149613707232e-06
 169    5.3797702150318e-05
 170    -6.3103687801814e-06
 171    1.3136135586542e-05
 172    -1.8962225884254e-07
 173    3.7262931316111e-06
 174    -1.5200456985402e-06
 175    1.4967704930019e-06
 176    -2.9219041106138e-07
 177    -0.00032731033385797
 178    -0.00013012130268573
 179    -4.4846855652933e-05
 180    2.5318205971701e-05
 181    9.2434042242199e-05
 182    0.0030110470860573
 183    0.0022852410236432
 184    0.0026360900046779
 185    -0.0014866282143033
 186    0.0023279626015289
 187    0.00040447776503762
 188     0.000309055458785
 189    0.0009123320686128
 190    -0.00060517601074411
 191    7.2759879860272e-05
 192    0.00030477308923557
 193    -4.5038238290613e-05
 194    -6.4982005454645e-05
 195    0.00018501686100723
 196    -0.00033046340333791
 197    -0.00013987439356606
 198    -0.00010234229767665
 199    -4.6990136803638e-07
 200    2.5297124747234e-05
 201    -3.4173024813334e-06
 202    1.151489024538e-05
 203    -1.2113510102022e-06
 204    2.7354584608637e-07
 205    4.3976962495597e-08
 206    -5.094418798593e-06
 207    -2.4145730759971e-05
 208    -1.1885501936264e-06
 209    2.9208340368693e-06
 210    -1.5483540203718e-06
 211    -0.00099348753220094
 212    -1.1898891728466e-05
 213    6.2443553098055e-06
 214    -4.7371170683977e-06
 215    2.2113835852196e-06
 216    -5.3743085351716e-07
 217    5.6235962981808e-05
 218    -4.0111203533484e-05
 219     2.28712232922e-05
 220    -7.4429363169866e-07
 221    -1.6140026377947e-06
 222    1.9846297445922e-06
 223    9.465024966654e-07
 224    -1.8612548127603e-06
 225    0.0023740577061334
 226    0.00082457796367254
 227    -0.00011101197606131
 228    -0.00019758237025883
 229    -0.00013728283264518
 230    0.0023746847566876
 231    0.00084300606472767
 232    0.00016902481297309
 233    -7.5272361221781e-05
 234    0.00019038875453604
 235       1.0023586530734
 236    0.0041839848293094
 237    -0.010251919572193
 238    0.0009952270181672
 239    -0.00064940869861534
 240    -0.00061773612264021
 241    0.0013803997596118
 242    -0.00044496583839651
 243    -0.0010142409246407
 244    2.7071796678194e-05
 245    0.00017283388519848
 246    -8.3361834948197e-05
 247    -9.4004949511253e-05
 248    0.00012871923672802
 249    -5.8591834189088e-06
 250    -5.0750548292037e-07
 251    -2.4598460700657e-06
 252    2.3811961737656e-06
 253    -1.5511314566196e-06
 254    -3.6787950212998e-06
 255    -1.9296412945484e-06
 256    -2.5630206728751e-06
 257    1.7691545093918e-06
 258    -2.3006785751469e-06
 259    -7.8804904056956e-05
 260    -7.4537032626184e-06
 261    5.8358806329522e-05
 262    1.1240273613835e-06