[Molden Format]
made by pyscf v[2.0.1]
[Atoms] (AU)
O   1   8     0.00000000000000     0.00000000000000    11.31969581038057
H   2   1     0.00000000000000     0.00000000000000     9.49629398847960
H   3   1    -0.05031916615174     1.78353065140343    11.69556750684724
O   4   8     0.00000000000000     0.00000000000000     2.31533471513237
C   5   6     0.00000000000000     0.00000000000000     0.00000000000000
C   6   6     2.01118073026938    -1.40227222164369    -1.50774939176400
C   7   6    -2.01249334291722     1.41331050329955    -1.50315905028694
H   8   1     3.32037363730244    -2.26721897153159    -0.13599698591495
C   9   6     3.45899267434009     0.28739631745591    -3.37437943254505
H   10   1     1.07662969841332    -2.94725144642667    -2.56541439481080
H   11   1    -2.67503415753480     0.18421555839588    -3.06194479365997
H   12   1    -1.07974048864772     3.03851734677796    -2.43674295017013
C   13   6    -4.21607110578555     2.32938802552922     0.11994162256091
H   14   1     4.24440173074564     1.93368664142019    -2.34976285512790
H   15   1     2.15020713235517     1.04714335134846    -4.81494497423699
C   16   6     5.60746363007797    -1.12419643481196    -4.70268606082550
H   17   1    -3.46838323670267     3.50951302338067     1.66946842715333
H   18   1    -5.11873485366228     0.68575958301209     1.04047743976495
C   19   6    -6.18314754751344     3.80909592987882    -1.39656589068747
H   20   1     6.93011263717176    -1.87550812453645    -3.26656317360070
C   21   6     7.06356622236532     0.52877932406334    -6.57829775293605
H   22   1     4.82318879258361    -2.78573437948532    -5.70504560381835
H   23   1    -6.91582688743803     2.61304780074712    -2.95074552451969
H   24   1    -5.26532430573853     5.45420349051338    -2.31005832200284
C   25   6    -8.39941882261433     4.73263980500213     0.21800571437956
H   26   1     7.83338371486801     2.19084139882824    -5.57093109900697
H   27   1     5.73544244039420     1.27376866537418    -8.01071492370229
C   28   6     9.21124858443101    -0.89699110072176    -7.88926949186242
H   29   1    -7.66272760055236     5.92277078003992     1.77035591474408
H   30   1    -9.31497248082589     3.08753015622020     1.12614408368786
C   31   6   -10.35481709231879     6.21833079391143    -1.30905206253246
H   32   1    10.58815905329501    -1.61074586756696    -6.49512691622620
H   33   1    10.23506248045667     0.32468009384095    -9.23072870921204
H   34   1     8.47665842847139    -2.53598436989925    -8.94921964622535
H   35   1    -9.48948872868064     7.90013588951020    -2.18823918416067
H   36   1   -11.93332513000955     6.86460487874102    -0.11255798845995
H   37   1   -11.15126291841033     5.04495968327630    -2.83849898862534
[GTO]
1 0
 s    8 1.00
                 11720  0.00070964594651845
                  1759  0.0054672722921914
                 400.8   0.027823118610189
                 113.7    0.10474773971146
                 37.03    0.28292084635691
                 13.27    0.44849523869833
                 5.025    0.27081688521277
                 1.013    0.01545029160744
 s    8 1.00
                 11720  -0.00031444341168873
                  1759  -0.0024821376810179
                 400.8  -0.012316355381583
                 113.7  -0.050538917343672
                 37.03   -0.13938490331632
                 13.27   -0.32507749481778
                 5.025   -0.22984830758785
                 1.013     1.0953793467883
 s    1 1.00
                0.3023                   1
 p    3 1.00
                  17.7   0.062679166281506
                 3.854    0.33353656587936
                 1.046    0.74123964163973
 p    1 1.00
                0.2753                   1
 d    1 1.00
                 1.185                   1

2 0
 s    3 1.00
                 13.01   0.033498726389998
                 1.962    0.23480080117413
                0.4446     0.8136829578829
 s    1 1.00
                 0.122                   1
 p    1 1.00
                 0.727                   1

3 0
 s    3 1.00
                 13.01   0.033498726389998
                 1.962    0.23480080117413
                0.4446     0.8136829578829
 s    1 1.00
                 0.122                   1
 p    1 1.00
                 0.727                   1

4 0
 s    8 1.00
                 11720  0.00070964594651845
                  1759  0.0054672722921914
                 400.8   0.027823118610189
                 113.7    0.10474773971146
                 37.03    0.28292084635691
                 13.27    0.44849523869833
                 5.025    0.27081688521277
                 1.013    0.01545029160744
 s    8 1.00
                 11720  -0.00031444341168873
                  1759  -0.0024821376810179
                 400.8  -0.012316355381583
                 113.7  -0.050538917343672
                 37.03   -0.13938490331632
                 13.27   -0.32507749481778
                 5.025   -0.22984830758785
                 1.013     1.0953793467883
 s    1 1.00
                0.3023                   1
 p    3 1.00
                  17.7   0.062679166281506
                 3.854    0.33353656587936
                 1.046    0.74123964163973
 p    1 1.00
                0.2753                   1
 d    1 1.00
                 1.185                   1

5 0
 s    8 1.00
                  6665  0.00069158396281299
                  1000  0.0053257961529341
                   228   0.027060721042034
                 64.71    0.10165684614077
                 21.06     0.2745748236174
                 7.495    0.44829431892377
                 2.797    0.28490261071525
                0.5215   0.015194859206082
 s    8 1.00
                  6665  -0.00029326965268655
                  1000  -0.0023180354739745
                   228  -0.011499786038565
                 64.71  -0.046826727009787
                 21.06   -0.12846616875047
                 7.495   -0.30126627246289
                 2.797   -0.25563070233011
                0.5215      1.093793361012
 s    1 1.00
                0.1596                   1
 p    3 1.00
                 9.439   0.056979251590039
                 2.002    0.31320721150073
                0.5456    0.76037674173753
 p    1 1.00
                0.1517                   1
 d    1 1.00
                  0.55                   1

6 0
 s    8 1.00
                  6665  0.00069158396281299
                  1000  0.0053257961529341
                   228   0.027060721042034
                 64.71    0.10165684614077
                 21.06     0.2745748236174
                 7.495    0.44829431892377
                 2.797    0.28490261071525
                0.5215   0.015194859206082
 s    8 1.00
                  6665  -0.00029326965268655
                  1000  -0.0023180354739745
                   228  -0.011499786038565
                 64.71  -0.046826727009787
                 21.06   -0.12846616875047
                 7.495   -0.30126627246289
                 2.797   -0.25563070233011
                0.5215      1.093793361012
 s    1 1.00
                0.1596                   1
 p    3 1.00
                 9.439   0.056979251590039
                 2.002    0.31320721150073
                0.5456    0.76037674173753
 p    1 1.00
                0.1517                   1
 d    1 1.00
                  0.55                   1

7 0
 s    8 1.00
                  6665  0.00069158396281299
                  1000  0.0053257961529341
                   228   0.027060721042034
                 64.71    0.10165684614077
                 21.06     0.2745748236174
                 7.495    0.44829431892377
                 2.797    0.28490261071525
                0.5215   0.015194859206082
 s    8 1.00
                  6665  -0.00029326965268655
                  1000  -0.0023180354739745
                   228  -0.011499786038565
                 64.71  -0.046826727009787
                 21.06   -0.12846616875047
                 7.495   -0.30126627246289
                 2.797   -0.25563070233011
                0.5215      1.093793361012
 s    1 1.00
                0.1596                   1
 p    3 1.00
                 9.439   0.056979251590039
                 2.002    0.31320721150073
                0.5456    0.76037674173753
 p    1 1.00
                0.1517                   1
 d    1 1.00
                  0.55                   1

8 0
 s    3 1.00
                 13.01   0.033498726389998
                 1.962    0.23480080117413
                0.4446     0.8136829578829
 s    1 1.00
                 0.122                   1
 p    1 1.00
                 0.727                   1

9 0
 s    8 1.00
                  6665  0.00069158396281299
                  1000  0.0053257961529341
                   228   0.027060721042034
                 64.71    0.10165684614077
                 21.06     0.2745748236174
                 7.495    0.44829431892377
                 2.797    0.28490261071525
                0.5215   0.015194859206082
 s    8 1.00
                  6665  -0.00029326965268655
                  1000  -0.0023180354739745
                   228  -0.011499786038565
                 64.71  -0.046826727009787
                 21.06   -0.12846616875047
                 7.495   -0.30126627246289
                 2.797   -0.25563070233011
                0.5215      1.093793361012
 s    1 1.00
                0.1596                   1
 p    3 1.00
                 9.439   0.056979251590039
                 2.002    0.31320721150073
                0.5456    0.76037674173753
 p    1 1.00
                0.1517                   1
 d    1 1.00
                  0.55                   1

10 0
 s    3 1.00
                 13.01   0.033498726389998
                 1.962    0.23480080117413
                0.4446     0.8136829578829
 s    1 1.00
                 0.122                   1
 p    1 1.00
                 0.727                   1

11 0
 s    3 1.00
                 13.01   0.033498726389998
                 1.962    0.23480080117413
                0.4446     0.8136829578829
 s    1 1.00
                 0.122                   1
 p    1 1.00
                 0.727                   1

12 0
 s    3 1.00
                 13.01   0.033498726389998
                 1.962    0.23480080117413
                0.4446     0.8136829578829
 s    1 1.00
                 0.122                   1
 p    1 1.00
                 0.727                   1

13 0
 s    8 1.00
                  6665  0.00069158396281299
                  1000  0.0053257961529341
                   228   0.027060721042034
                 64.71    0.10165684614077
                 21.06     0.2745748236174
                 7.495    0.44829431892377
                 2.797    0.28490261071525
                0.5215   0.015194859206082
 s    8 1.00
                  6665  -0.00029326965268655
                  1000  -0.0023180354739745
                   228  -0.011499786038565
                 64.71  -0.046826727009787
                 21.06   -0.12846616875047
                 7.495   -0.30126627246289
                 2.797   -0.25563070233011
                0.5215      1.093793361012
 s    1 1.00
                0.1596                   1
 p    3 1.00
                 9.439   0.056979251590039
                 2.002    0.31320721150073
                0.5456    0.76037674173753
 p    1 1.00
                0.1517                   1
 d    1 1.00
                  0.55                   1

14 0
 s    3 1.00
                 13.01   0.033498726389998
                 1.962    0.23480080117413
                0.4446     0.8136829578829
 s    1 1.00
                 0.122                   1
 p    1 1.00
                 0.727                   1

15 0
 s    3 1.00
                 13.01   0.033498726389998
                 1.962    0.23480080117413
                0.4446     0.8136829578829
 s    1 1.00
                 0.122                   1
 p    1 1.00
                 0.727                   1

16 0
 s    8 1.00
                  6665  0.00069158396281299
                  1000  0.0053257961529341
                   228   0.027060721042034
                 64.71    0.10165684614077
                 21.06     0.2745748236174
                 7.495    0.44829431892377
                 2.797    0.28490261071525
                0.5215   0.015194859206082
 s    8 1.00
                  6665  -0.00029326965268655
                  1000  -0.0023180354739745
                   228  -0.011499786038565
                 64.71  -0.046826727009787
                 21.06   -0.12846616875047
                 7.495   -0.30126627246289
                 2.797   -0.25563070233011
                0.5215      1.093793361012
 s    1 1.00
                0.1596                   1
 p    3 1.00
                 9.439   0.056979251590039
                 2.002    0.31320721150073
                0.5456    0.76037674173753
 p    1 1.00
                0.1517                   1
 d    1 1.00
                  0.55                   1

17 0
 s    3 1.00
                 13.01   0.033498726389998
                 1.962    0.23480080117413
                0.4446     0.8136829578829
 s    1 1.00
                 0.122                   1
 p    1 1.00
                 0.727                   1

18 0
 s    3 1.00
                 13.01   0.033498726389998
                 1.962    0.23480080117413
                0.4446     0.8136829578829
 s    1 1.00
                 0.122                   1
 p    1 1.00
                 0.727                   1

19 0
 s    8 1.00
                  6665  0.00069158396281299
                  1000  0.0053257961529341
                   228   0.027060721042034
                 64.71    0.10165684614077
                 21.06     0.2745748236174
                 7.495    0.44829431892377
                 2.797    0.28490261071525
                0.5215   0.015194859206082
 s    8 1.00
                  6665  -0.00029326965268655
                  1000  -0.0023180354739745
                   228  -0.011499786038565
                 64.71  -0.046826727009787
                 21.06   -0.12846616875047
                 7.495   -0.30126627246289
                 2.797   -0.25563070233011
                0.5215      1.093793361012
 s    1 1.00
                0.1596                   1
 p    3 1.00
                 9.439   0.056979251590039
                 2.002    0.31320721150073
                0.5456    0.76037674173753
 p    1 1.00
                0.1517                   1
 d    1 1.00
                  0.55                   1

20 0
 s    3 1.00
                 13.01   0.033498726389998
                 1.962    0.23480080117413
                0.4446     0.8136829578829
 s    1 1.00
                 0.122                   1
 p    1 1.00
                 0.727                   1

21 0
 s    8 1.00
                  6665  0.00069158396281299
                  1000  0.0053257961529341
                   228   0.027060721042034
                 64.71    0.10165684614077
                 21.06     0.2745748236174
                 7.495    0.44829431892377
                 2.797    0.28490261071525
                0.5215   0.015194859206082
 s    8 1.00
                  6665  -0.00029326965268655
                  1000  -0.0023180354739745
                   228  -0.011499786038565
                 64.71  -0.046826727009787
                 21.06   -0.12846616875047
                 7.495   -0.30126627246289
                 2.797   -0.25563070233011
                0.5215      1.093793361012
 s    1 1.00
                0.1596                   1
 p    3 1.00
                 9.439   0.056979251590039
                 2.002    0.31320721150073
                0.5456    0.76037674173753
 p    1 1.00
                0.1517                   1
 d    1 1.00
                  0.55                   1

22 0
 s    3 1.00
                 13.01   0.033498726389998
                 1.962    0.23480080117413
                0.4446     0.8136829578829
 s    1 1.00
                 0.122                   1
 p    1 1.00
                 0.727                   1

23 0
 s    3 1.00
                 13.01   0.033498726389998
                 1.962    0.23480080117413
                0.4446     0.8136829578829
 s    1 1.00
                 0.122                   1
 p    1 1.00
                 0.727                   1

24 0
 s    3 1.00
                 13.01   0.033498726389998
                 1.962    0.23480080117413
                0.4446     0.8136829578829
 s    1 1.00
                 0.122                   1
 p    1 1.00
                 0.727                   1

25 0
 s    8 1.00
                  6665  0.00069158396281299
                  1000  0.0053257961529341
                   228   0.027060721042034
                 64.71    0.10165684614077
                 21.06     0.2745748236174
                 7.495    0.44829431892377
                 2.797    0.28490261071525
                0.5215   0.015194859206082
 s    8 1.00
                  6665  -0.00029326965268655
                  1000  -0.0023180354739745
                   228  -0.011499786038565
                 64.71  -0.046826727009787
                 21.06   -0.12846616875047
                 7.495   -0.30126627246289
                 2.797   -0.25563070233011
                0.5215      1.093793361012
 s    1 1.00
                0.1596                   1
 p    3 1.00
                 9.439   0.056979251590039
                 2.002    0.31320721150073
                0.5456    0.76037674173753
 p    1 1.00
                0.1517                   1
 d    1 1.00
                  0.55                   1

26 0
 s    3 1.00
                 13.01   0.033498726389998
                 1.962    0.23480080117413
                0.4446     0.8136829578829
 s    1 1.00
                 0.122                   1
 p    1 1.00
                 0.727                   1

27 0
 s    3 1.00
                 13.01   0.033498726389998
                 1.962    0.23480080117413
                0.4446     0.8136829578829
 s    1 1.00
                 0.122                   1
 p    1 1.00
                 0.727                   1

28 0
 s    8 1.00
                  6665  0.00069158396281299
                  1000  0.0053257961529341
                   228   0.027060721042034
                 64.71    0.10165684614077
                 21.06     0.2745748236174
                 7.495    0.44829431892377
                 2.797    0.28490261071525
                0.5215   0.015194859206082
 s    8 1.00
                  6665  -0.00029326965268655
                  1000  -0.0023180354739745
                   228  -0.011499786038565
                 64.71  -0.046826727009787
                 21.06   -0.12846616875047
                 7.495   -0.30126627246289
                 2.797   -0.25563070233011
                0.5215      1.093793361012
 s    1 1.00
                0.1596                   1
 p    3 1.00
                 9.439   0.056979251590039
                 2.002    0.31320721150073
                0.5456    0.76037674173753
 p    1 1.00
                0.1517                   1
 d    1 1.00
                  0.55                   1

29 0
 s    3 1.00
                 13.01   0.033498726389998
                 1.962    0.23480080117413
                0.4446     0.8136829578829
 s    1 1.00
                 0.122                   1
 p    1 1.00
                 0.727                   1

30 0
 s    3 1.00
                 13.01   0.033498726389998
                 1.962    0.23480080117413
                0.4446     0.8136829578829
 s    1 1.00
                 0.122                   1
 p    1 1.00
                 0.727                   1

31 0
 s    8 1.00
                  6665  0.00069158396281299
                  1000  0.0053257961529341
                   228   0.027060721042034
                 64.71    0.10165684614077
                 21.06     0.2745748236174
                 7.495    0.44829431892377
                 2.797    0.28490261071525
                0.5215   0.015194859206082
 s    8 1.00
                  6665  -0.00029326965268655
                  1000  -0.0023180354739745
                   228  -0.011499786038565
                 64.71  -0.046826727009787
                 21.06   -0.12846616875047
                 7.495   -0.30126627246289
                 2.797   -0.25563070233011
                0.5215      1.093793361012
 s    1 1.00
                0.1596                   1
 p    3 1.00
                 9.439   0.056979251590039
                 2.002    0.31320721150073
                0.5456    0.76037674173753
 p    1 1.00
                0.1517                   1
 d    1 1.00
                  0.55                   1

32 0
 s    3 1.00
                 13.01   0.033498726389998
                 1.962    0.23480080117413
                0.4446     0.8136829578829
 s    1 1.00
                 0.122                   1
 p    1 1.00
                 0.727                   1

33 0
 s    3 1.00
                 13.01   0.033498726389998
                 1.962    0.23480080117413
                0.4446     0.8136829578829
 s    1 1.00
                 0.122                   1
 p    1 1.00
                 0.727                   1

34 0
 s    3 1.00
                 13.01   0.033498726389998
                 1.962    0.23480080117413
                0.4446     0.8136829578829
 s    1 1.00
                 0.122                   1
 p    1 1.00
                 0.727                   1

35 0
 s    3 1.00
                 13.01   0.033498726389998
                 1.962    0.23480080117413
                0.4446     0.8136829578829
 s    1 1.00
                 0.122                   1
 p    1 1.00
                 0.727                   1

36 0
 s    3 1.00
                 13.01   0.033498726389998
                 1.962    0.23480080117413
                0.4446     0.8136829578829
 s    1 1.00
                 0.122                   1
 p    1 1.00
                 0.727                   1

37 0
 s    3 1.00
                 13.01   0.033498726389998
                 1.962    0.23480080117413
                0.4446     0.8136829578829
 s    1 1.00
                 0.122                   1
 p    1 1.00
                 0.727                   1

[5d]
[7f]
[9g]

[MO]
 Sym= A
 Ene=               0
 Spin= Alpha
 Occup=    1.00000
   1    1.272107686241e-07
   2    2.4601696780292e-07
   3    -1.2326172873507e-06
   4    1.0891645247237e-09
   5    -1.9045514019799e-08
   6    3.4240923902218e-08
   7    -8.5992298845847e-09
   8    2.7843916692129e-07
   9    9.2287837618143e-07
  10    -1.0655344181216e-07
  11    -2.2648553449365e-10
  12    8.0107654367277e-09
  13    -7.387372506495e-09
  14    -4.5516575793078e-10
  15    6.7368710165059e-08
  16    2.4572950287179e-06
  17    -4.3044237509641e-10
  18    -9.479088667784e-09
  19    4.1239437155842e-07
  20    6.5739941173351e-08
  21    -8.7332626387577e-07
  22    -1.2538710838848e-09
  23    5.1641568900259e-08
  24    -2.707890083907e-08
  25    4.2210269065596e-06
  26    3.3865635748395e-06
  27    1.7546675026448e-05
  28    -2.8052177699952e-06
  29    5.1648237703698e-05
  30    1.8626849333135e-05
  31    5.4908584236751e-05
  32    1.1196509294857e-05
  33    -1.0941146333338e-05
  34    1.4541908743355e-06
  35    -2.2704961740397e-06
  36    1.452693823541e-06
  37    4.9181473807792e-07
  38    8.2342722194816e-07
  39    7.6320167198299e-05
  40    0.00017418356329199
  41    -0.00069018547873704
  42    5.9311374920709e-05
  43    -5.5882060373694e-05
  44    -6.2510199565584e-05
  45    -0.00043022638384682
  46     0.000315219478825
  47    0.00021303049862857
  48    -7.3521203854735e-06
  49    3.4482381122671e-05
  50    -4.2710718161752e-06
  51    -1.4682851670237e-05
  52    2.3113095014967e-05
  53    6.993121859698e-05
  54    -1.2298014358888e-05
  55    0.00034876018971241
  56    -8.5473530842867e-05
  57    -0.00011552362637798
  58    0.00011703803986366
  59    -0.0006664781955604
  60    0.00010344048269046
  61    0.00061396655359561
  62    7.8029698534307e-07
  63    -2.2031018123739e-05
  64    4.7301853563431e-05
  65    3.0998802955918e-05
  66    -3.5276266200329e-05
  67    4.683955428068e-06
  68    1.0621922356415e-05
  69    9.5849546379975e-05
  70    2.2509496352597e-05
  71    1.1511803715468e-05
  72    -1.1147522526001e-05
  73    -0.00017191959403536
  74    4.3460692812572e-05
  75    1.1763286876334e-05
  76    -8.777300831757e-06
  77    -1.1895636236111e-05
  78     7.03067557543e-06
  79    7.9512640732375e-06
  80    -7.4844967031124e-06
  81    4.9122564958327e-05
  82    -8.0730519662102e-05
  83    1.4022619249692e-05
  84    -1.1568138113132e-05
  85    -1.606323120588e-05
  86    -6.0093516851094e-05
  87    0.00032758279347054
  88    -0.00078741586239192
  89    0.00043278566787159
  90    -0.00030667518985916
  91    -0.0002591724056078
  92    -0.00039902699146325
  93    -1.0421431709352e-07
  94    0.00033033665992977
  95    -8.2056618141853e-06
  96    1.5034163516161e-05
  97    -7.3657489030512e-06
  98    -2.2843669588609e-05
  99    2.8349756985144e-06
 100    4.6756170317932e-05
 101    -3.5466139636572e-05
 102    2.4739328022542e-05
 103    -1.0691777884929e-05
 104    -1.3500424950684e-05
 105    -5.3357990105509e-06
 106    -1.588300582443e-05
 107    1.3043067427272e-05
 108    -1.881622724416e-06
 109    -1.4992455502249e-07
 110    3.8106426999069e-05
 111    -3.2055778251453e-05
 112    -1.8224732206848e-06
 113    1.1630449095873e-06
 114    2.570269089566e-06
 115    1.3803225177439e-05
 116    2.5710330376933e-05
 117    -0.00017834825169139
 118    -1.228898912365e-06
 119    -6.1148582705885e-06
 120    6.3030997178043e-06
 121    -0.0001661105453429
 122    0.00013947106548015
 123    2.8219412293324e-05
 124    1.3849181809262e-06
 125    1.0545111519676e-05
 126    -6.529202617332e-06
 127    -5.9617821386095e-06
 128    1.0192805205962e-05
 129    -3.6310478757659e-05
 130    -3.4948635081315e-05
 131    3.582605982087e-05
 132    -6.550324550666e-06
 133    -2.5831338743584e-05
 134    -3.608975882363e-05
 135    -1.941820733837e-05
 136    3.2095450605182e-05
 137    -7.5837580214986e-06
 138    -2.2168425089021e-05
 139    0.00073419621208112
 140    0.00044296956591872
 141    -1.1495142314629e-05
 142    -0.00036841498553436
 143    -0.00051360792909308
 144    0.0005082843565246
 145    -0.0015208886883551
 146    0.00013543342299026
 147    0.0012696248580722
 148    2.9552984511109e-06
 149    4.6360752953895e-05
 150    0.00017324581043205
 151    0.0001020515507937
 152    -0.0001065262569479
 153    2.1056430312131e-06
 154    -1.1962804779673e-05
 155    5.475229665733e-06
 156    -4.8593951390017e-06
 157    3.2127088503013e-06
 158    1.9773243764257e-05
 159    2.0532590971738e-05
 160    5.9082425079808e-06
 161    -4.7276975485892e-06
 162    -2.4308116192297e-08
 163    7.758654301217e-06
 164    1.0048449601567e-05
 165    -7.5809457707133e-05
 166    -4.0041910003219e-06
 167    2.561802566063e-06
 168    -1.8795558598376e-06
 169    -5.4700223661202e-05
 170    6.9278456940897e-06
 171    -1.3791075077242e-05
 172    2.2359343222969e-07
 173    -3.7914441742178e-06
 174    1.5648423253277e-06
 175    -1.5254306396847e-06
 176    3.6736144771472e-07
 177    0.00032779335183427
 178    0.00013117997106257
 179    4.4645247377645e-05
 180    -2.5301060558541e-05
 181    -9.2276716714401e-05
 182    -0.0030103203423056
 183    -0.0022846270552923
 184    -0.002646924021082
 185    0.0014875842363474
 186    -0.0023259432522237
 187    -0.00040593019252471
 188    -0.00031650931683749
 189    -0.00090552466793759
 190    0.00060898947007045
 191    -7.2422353026733e-05
 192    -0.00030368922462257
 193    4.478086920612e-05
 194    6.4903320670912e-05
 195    -0.00018423633700258
 196    0.00033106464675062
 197    0.00014084430161007
 198    0.00010217271689231
 199    5.1722824282955e-07
 200    -2.5157852637144e-05
 201    3.4510223807268e-06
 202    -1.1741275474142e-05
 203    1.2250742832654e-06
 204    -3.0861001288992e-07
 205    -5.2649641298605e-08
 206    5.1831138446278e-06
 207    2.4158655036044e-05
 208    1.2181452115005e-06
 209    -2.9301831603844e-06
 210    1.5606725476765e-06
 211     0.001005206224902
 212    1.1941343308953e-05
 213    -5.7399180613849e-06
 214      4.7888212723e-06
 215    -2.2353428431126e-06
 216    5.0021434838347e-07
 217    -5.6115830805399e-05
 218    4.010825611728e-05
 219    -2.2947371736619e-05
 220    7.4509882875596e-07
 221    1.6077710833199e-06
 222    -1.9829135012017e-06
 223    -9.4139071611097e-07
 224    1.8639932730335e-06
 225    -0.0023749713917971
 226    -0.00082773524770844
 227    0.0001110933699259
 228    0.0001974962953339
 229    0.00013736885762822
 230    -0.0023752740408362
 231    -0.000844691896712
 232    -0.00016913034780212
 233    7.512022945854e-05
 234    -0.00019049550971244
 235       -1.002359283217
 236    -0.0041825325027101
 237     0.010266437031122
 238    -0.0010050524348817
 239    0.00065440084452727
 240    0.00062290209395205
 241    -0.0013848625360935
 242    0.00044970667539397
 243    0.0010170250263411
 244    -2.7352725714278e-05
 245    -0.00017322749041833
 246    8.4035815264989e-05
 247    9.4013553160703e-05
 248    -0.00012935328461069
 249    5.8547370875558e-06
 250    2.8975357321822e-07
 251    2.4692119074225e-06
 252    -2.3721724784284e-06
 253    1.5589165900342e-06
 254    3.6652715704307e-06
 255    1.9708673782878e-06
 256    2.5676218450267e-06
 257    -1.7761290805772e-06
 258    2.298836170034e-06
 259    8.9880626591712e-05
 260    7.5700311483092e-06
 261    -5.8770811903582e-05
 262    -1.1362844405819e-06
 263    8.5849537773131e-07