[Molden Format]
made by pyscf v[2.0.1]
[Atoms] (AU)
O   1   8     0.00000000000000     0.00000000000000     7.91818878616346
H   2   1     0.00000000000000     0.00000000000000     6.09478696426249
H   3   1    -0.05031916615174     1.78353065140343     8.29406048263013
O   4   8     0.00000000000000     0.00000000000000     2.31533471513237
C   5   6     0.00000000000000     0.00000000000000     0.00000000000000
C   6   6     2.01118073026938    -1.40227222164369    -1.50774939176400
C   7   6    -2.01249334291722     1.41331050329955    -1.50315905028694
H   8   1     3.32037363730244    -2.26721897153159    -0.13599698591495
C   9   6     3.45899267434009     0.28739631745591    -3.37437943254505
H   10   1     1.07662969841332    -2.94725144642667    -2.56541439481080
H   11   1    -2.67503415753480     0.18421555839588    -3.06194479365997
H   12   1    -1.07974048864772     3.03851734677796    -2.43674295017013
C   13   6    -4.21607110578555     2.32938802552922     0.11994162256091
H   14   1     4.24440173074564     1.93368664142019    -2.34976285512790
H   15   1     2.15020713235517     1.04714335134846    -4.81494497423699
C   16   6     5.60746363007797    -1.12419643481196    -4.70268606082550
H   17   1    -3.46838323670267     3.50951302338067     1.66946842715333
H   18   1    -5.11873485366228     0.68575958301209     1.04047743976495
C   19   6    -6.18314754751344     3.80909592987882    -1.39656589068747
H   20   1     6.93011263717176    -1.87550812453645    -3.26656317360070
C   21   6     7.06356622236532     0.52877932406334    -6.57829775293605
H   22   1     4.82318879258361    -2.78573437948532    -5.70504560381835
H   23   1    -6.91582688743803     2.61304780074712    -2.95074552451969
H   24   1    -5.26532430573853     5.45420349051338    -2.31005832200284
C   25   6    -8.39941882261433     4.73263980500213     0.21800571437956
H   26   1     7.83338371486801     2.19084139882824    -5.57093109900697
H   27   1     5.73544244039420     1.27376866537418    -8.01071492370229
C   28   6     9.21124858443101    -0.89699110072176    -7.88926949186242
H   29   1    -7.66272760055236     5.92277078003992     1.77035591474408
H   30   1    -9.31497248082589     3.08753015622020     1.12614408368786
C   31   6   -10.35481709231879     6.21833079391143    -1.30905206253246
H   32   1    10.58815905329501    -1.61074586756696    -6.49512691622620
H   33   1    10.23506248045667     0.32468009384095    -9.23072870921204
H   34   1     8.47665842847139    -2.53598436989925    -8.94921964622535
H   35   1    -9.48948872868064     7.90013588951020    -2.18823918416067
H   36   1   -11.93332513000955     6.86460487874102    -0.11255798845995
H   37   1   -11.15126291841033     5.04495968327630    -2.83849898862534
[GTO]
1 0
 s    8 1.00
                 11720  0.00070964594651845
                  1759  0.0054672722921914
                 400.8   0.027823118610189
                 113.7    0.10474773971146
                 37.03    0.28292084635691
                 13.27    0.44849523869833
                 5.025    0.27081688521277
                 1.013    0.01545029160744
 s    8 1.00
                 11720  -0.00031444341168873
                  1759  -0.0024821376810179
                 400.8  -0.012316355381583
                 113.7  -0.050538917343672
                 37.03   -0.13938490331632
                 13.27   -0.32507749481778
                 5.025   -0.22984830758785
                 1.013     1.0953793467883
 s    1 1.00
                0.3023                   1
 p    3 1.00
                  17.7   0.062679166281506
                 3.854    0.33353656587936
                 1.046    0.74123964163973
 p    1 1.00
                0.2753                   1
 d    1 1.00
                 1.185                   1

2 0
 s    3 1.00
                 13.01   0.033498726389998
                 1.962    0.23480080117413
                0.4446     0.8136829578829
 s    1 1.00
                 0.122                   1
 p    1 1.00
                 0.727                   1

3 0
 s    3 1.00
                 13.01   0.033498726389998
                 1.962    0.23480080117413
                0.4446     0.8136829578829
 s    1 1.00
                 0.122                   1
 p    1 1.00
                 0.727                   1

4 0
 s    8 1.00
                 11720  0.00070964594651845
                  1759  0.0054672722921914
                 400.8   0.027823118610189
                 113.7    0.10474773971146
                 37.03    0.28292084635691
                 13.27    0.44849523869833
                 5.025    0.27081688521277
                 1.013    0.01545029160744
 s    8 1.00
                 11720  -0.00031444341168873
                  1759  -0.0024821376810179
                 400.8  -0.012316355381583
                 113.7  -0.050538917343672
                 37.03   -0.13938490331632
                 13.27   -0.32507749481778
                 5.025   -0.22984830758785
                 1.013     1.0953793467883
 s    1 1.00
                0.3023                   1
 p    3 1.00
                  17.7   0.062679166281506
                 3.854    0.33353656587936
                 1.046    0.74123964163973
 p    1 1.00
                0.2753                   1
 d    1 1.00
                 1.185                   1

5 0
 s    8 1.00
                  6665  0.00069158396281299
                  1000  0.0053257961529341
                   228   0.027060721042034
                 64.71    0.10165684614077
                 21.06     0.2745748236174
                 7.495    0.44829431892377
                 2.797    0.28490261071525
                0.5215   0.015194859206082
 s    8 1.00
                  6665  -0.00029326965268655
                  1000  -0.0023180354739745
                   228  -0.011499786038565
                 64.71  -0.046826727009787
                 21.06   -0.12846616875047
                 7.495   -0.30126627246289
                 2.797   -0.25563070233011
                0.5215      1.093793361012
 s    1 1.00
                0.1596                   1
 p    3 1.00
                 9.439   0.056979251590039
                 2.002    0.31320721150073
                0.5456    0.76037674173753
 p    1 1.00
                0.1517                   1
 d    1 1.00
                  0.55                   1

6 0
 s    8 1.00
                  6665  0.00069158396281299
                  1000  0.0053257961529341
                   228   0.027060721042034
                 64.71    0.10165684614077
                 21.06     0.2745748236174
                 7.495    0.44829431892377
                 2.797    0.28490261071525
                0.5215   0.015194859206082
 s    8 1.00
                  6665  -0.00029326965268655
                  1000  -0.0023180354739745
                   228  -0.011499786038565
                 64.71  -0.046826727009787
                 21.06   -0.12846616875047
                 7.495   -0.30126627246289
                 2.797   -0.25563070233011
                0.5215      1.093793361012
 s    1 1.00
                0.1596                   1
 p    3 1.00
                 9.439   0.056979251590039
                 2.002    0.31320721150073
                0.5456    0.76037674173753
 p    1 1.00
                0.1517                   1
 d    1 1.00
                  0.55                   1

7 0
 s    8 1.00
                  6665  0.00069158396281299
                  1000  0.0053257961529341
                   228   0.027060721042034
                 64.71    0.10165684614077
                 21.06     0.2745748236174
                 7.495    0.44829431892377
                 2.797    0.28490261071525
                0.5215   0.015194859206082
 s    8 1.00
                  6665  -0.00029326965268655
                  1000  -0.0023180354739745
                   228  -0.011499786038565
                 64.71  -0.046826727009787
                 21.06   -0.12846616875047
                 7.495   -0.30126627246289
                 2.797   -0.25563070233011
                0.5215      1.093793361012
 s    1 1.00
                0.1596                   1
 p    3 1.00
                 9.439   0.056979251590039
                 2.002    0.31320721150073
                0.5456    0.76037674173753
 p    1 1.00
                0.1517                   1
 d    1 1.00
                  0.55                   1

8 0
 s    3 1.00
                 13.01   0.033498726389998
                 1.962    0.23480080117413
                0.4446     0.8136829578829
 s    1 1.00
                 0.122                   1
 p    1 1.00
                 0.727                   1

9 0
 s    8 1.00
                  6665  0.00069158396281299
                  1000  0.0053257961529341
                   228   0.027060721042034
                 64.71    0.10165684614077
                 21.06     0.2745748236174
                 7.495    0.44829431892377
                 2.797    0.28490261071525
                0.5215   0.015194859206082
 s    8 1.00
                  6665  -0.00029326965268655
                  1000  -0.0023180354739745
                   228  -0.011499786038565
                 64.71  -0.046826727009787
                 21.06   -0.12846616875047
                 7.495   -0.30126627246289
                 2.797   -0.25563070233011
                0.5215      1.093793361012
 s    1 1.00
                0.1596                   1
 p    3 1.00
                 9.439   0.056979251590039
                 2.002    0.31320721150073
                0.5456    0.76037674173753
 p    1 1.00
                0.1517                   1
 d    1 1.00
                  0.55                   1

10 0
 s    3 1.00
                 13.01   0.033498726389998
                 1.962    0.23480080117413
                0.4446     0.8136829578829
 s    1 1.00
                 0.122                   1
 p    1 1.00
                 0.727                   1

11 0
 s    3 1.00
                 13.01   0.033498726389998
                 1.962    0.23480080117413
                0.4446     0.8136829578829
 s    1 1.00
                 0.122                   1
 p    1 1.00
                 0.727                   1

12 0
 s    3 1.00
                 13.01   0.033498726389998
                 1.962    0.23480080117413
                0.4446     0.8136829578829
 s    1 1.00
                 0.122                   1
 p    1 1.00
                 0.727                   1

13 0
 s    8 1.00
                  6665  0.00069158396281299
                  1000  0.0053257961529341
                   228   0.027060721042034
                 64.71    0.10165684614077
                 21.06     0.2745748236174
                 7.495    0.44829431892377
                 2.797    0.28490261071525
                0.5215   0.015194859206082
 s    8 1.00
                  6665  -0.00029326965268655
                  1000  -0.0023180354739745
                   228  -0.011499786038565
                 64.71  -0.046826727009787
                 21.06   -0.12846616875047
                 7.495   -0.30126627246289
                 2.797   -0.25563070233011
                0.5215      1.093793361012
 s    1 1.00
                0.1596                   1
 p    3 1.00
                 9.439   0.056979251590039
                 2.002    0.31320721150073
                0.5456    0.76037674173753
 p    1 1.00
                0.1517                   1
 d    1 1.00
                  0.55                   1

14 0
 s    3 1.00
                 13.01   0.033498726389998
                 1.962    0.23480080117413
                0.4446     0.8136829578829
 s    1 1.00
                 0.122                   1
 p    1 1.00
                 0.727                   1

15 0
 s    3 1.00
                 13.01   0.033498726389998
                 1.962    0.23480080117413
                0.4446     0.8136829578829
 s    1 1.00
                 0.122                   1
 p    1 1.00
                 0.727                   1

16 0
 s    8 1.00
                  6665  0.00069158396281299
                  1000  0.0053257961529341
                   228   0.027060721042034
                 64.71    0.10165684614077
                 21.06     0.2745748236174
                 7.495    0.44829431892377
                 2.797    0.28490261071525
                0.5215   0.015194859206082
 s    8 1.00
                  6665  -0.00029326965268655
                  1000  -0.0023180354739745
                   228  -0.011499786038565
                 64.71  -0.046826727009787
                 21.06   -0.12846616875047
                 7.495   -0.30126627246289
                 2.797   -0.25563070233011
                0.5215      1.093793361012
 s    1 1.00
                0.1596                   1
 p    3 1.00
                 9.439   0.056979251590039
                 2.002    0.31320721150073
                0.5456    0.76037674173753
 p    1 1.00
                0.1517                   1
 d    1 1.00
                  0.55                   1

17 0
 s    3 1.00
                 13.01   0.033498726389998
                 1.962    0.23480080117413
                0.4446     0.8136829578829
 s    1 1.00
                 0.122                   1
 p    1 1.00
                 0.727                   1

18 0
 s    3 1.00
                 13.01   0.033498726389998
                 1.962    0.23480080117413
                0.4446     0.8136829578829
 s    1 1.00
                 0.122                   1
 p    1 1.00
                 0.727                   1

19 0
 s    8 1.00
                  6665  0.00069158396281299
                  1000  0.0053257961529341
                   228   0.027060721042034
                 64.71    0.10165684614077
                 21.06     0.2745748236174
                 7.495    0.44829431892377
                 2.797    0.28490261071525
                0.5215   0.015194859206082
 s    8 1.00
                  6665  -0.00029326965268655
                  1000  -0.0023180354739745
                   228  -0.011499786038565
                 64.71  -0.046826727009787
                 21.06   -0.12846616875047
                 7.495   -0.30126627246289
                 2.797   -0.25563070233011
                0.5215      1.093793361012
 s    1 1.00
                0.1596                   1
 p    3 1.00
                 9.439   0.056979251590039
                 2.002    0.31320721150073
                0.5456    0.76037674173753
 p    1 1.00
                0.1517                   1
 d    1 1.00
                  0.55                   1

20 0
 s    3 1.00
                 13.01   0.033498726389998
                 1.962    0.23480080117413
                0.4446     0.8136829578829
 s    1 1.00
                 0.122                   1
 p    1 1.00
                 0.727                   1

21 0
 s    8 1.00
                  6665  0.00069158396281299
                  1000  0.0053257961529341
                   228   0.027060721042034
                 64.71    0.10165684614077
                 21.06     0.2745748236174
                 7.495    0.44829431892377
                 2.797    0.28490261071525
                0.5215   0.015194859206082
 s    8 1.00
                  6665  -0.00029326965268655
                  1000  -0.0023180354739745
                   228  -0.011499786038565
                 64.71  -0.046826727009787
                 21.06   -0.12846616875047
                 7.495   -0.30126627246289
                 2.797   -0.25563070233011
                0.5215      1.093793361012
 s    1 1.00
                0.1596                   1
 p    3 1.00
                 9.439   0.056979251590039
                 2.002    0.31320721150073
                0.5456    0.76037674173753
 p    1 1.00
                0.1517                   1
 d    1 1.00
                  0.55                   1

22 0
 s    3 1.00
                 13.01   0.033498726389998
                 1.962    0.23480080117413
                0.4446     0.8136829578829
 s    1 1.00
                 0.122                   1
 p    1 1.00
                 0.727                   1

23 0
 s    3 1.00
                 13.01   0.033498726389998
                 1.962    0.23480080117413
                0.4446     0.8136829578829
 s    1 1.00
                 0.122                   1
 p    1 1.00
                 0.727                   1

24 0
 s    3 1.00
                 13.01   0.033498726389998
                 1.962    0.23480080117413
                0.4446     0.8136829578829
 s    1 1.00
                 0.122                   1
 p    1 1.00
                 0.727                   1

25 0
 s    8 1.00
                  6665  0.00069158396281299
                  1000  0.0053257961529341
                   228   0.027060721042034
                 64.71    0.10165684614077
                 21.06     0.2745748236174
                 7.495    0.44829431892377
                 2.797    0.28490261071525
                0.5215   0.015194859206082
 s    8 1.00
                  6665  -0.00029326965268655
                  1000  -0.0023180354739745
                   228  -0.011499786038565
                 64.71  -0.046826727009787
                 21.06   -0.12846616875047
                 7.495   -0.30126627246289
                 2.797   -0.25563070233011
                0.5215      1.093793361012
 s    1 1.00
                0.1596                   1
 p    3 1.00
                 9.439   0.056979251590039
                 2.002    0.31320721150073
                0.5456    0.76037674173753
 p    1 1.00
                0.1517                   1
 d    1 1.00
                  0.55                   1

26 0
 s    3 1.00
                 13.01   0.033498726389998
                 1.962    0.23480080117413
                0.4446     0.8136829578829
 s    1 1.00
                 0.122                   1
 p    1 1.00
                 0.727                   1

27 0
 s    3 1.00
                 13.01   0.033498726389998
                 1.962    0.23480080117413
                0.4446     0.8136829578829
 s    1 1.00
                 0.122                   1
 p    1 1.00
                 0.727                   1

28 0
 s    8 1.00
                  6665  0.00069158396281299
                  1000  0.0053257961529341
                   228   0.027060721042034
                 64.71    0.10165684614077
                 21.06     0.2745748236174
                 7.495    0.44829431892377
                 2.797    0.28490261071525
                0.5215   0.015194859206082
 s    8 1.00
                  6665  -0.00029326965268655
                  1000  -0.0023180354739745
                   228  -0.011499786038565
                 64.71  -0.046826727009787
                 21.06   -0.12846616875047
                 7.495   -0.30126627246289
                 2.797   -0.25563070233011
                0.5215      1.093793361012
 s    1 1.00
                0.1596                   1
 p    3 1.00
                 9.439   0.056979251590039
                 2.002    0.31320721150073
                0.5456    0.76037674173753
 p    1 1.00
                0.1517                   1
 d    1 1.00
                  0.55                   1

29 0
 s    3 1.00
                 13.01   0.033498726389998
                 1.962    0.23480080117413
                0.4446     0.8136829578829
 s    1 1.00
                 0.122                   1
 p    1 1.00
                 0.727                   1

30 0
 s    3 1.00
                 13.01   0.033498726389998
                 1.962    0.23480080117413
                0.4446     0.8136829578829
 s    1 1.00
                 0.122                   1
 p    1 1.00
                 0.727                   1

31 0
 s    8 1.00
                  6665  0.00069158396281299
                  1000  0.0053257961529341
                   228   0.027060721042034
                 64.71    0.10165684614077
                 21.06     0.2745748236174
                 7.495    0.44829431892377
                 2.797    0.28490261071525
                0.5215   0.015194859206082
 s    8 1.00
                  6665  -0.00029326965268655
                  1000  -0.0023180354739745
                   228  -0.011499786038565
                 64.71  -0.046826727009787
                 21.06   -0.12846616875047
                 7.495   -0.30126627246289
                 2.797   -0.25563070233011
                0.5215      1.093793361012
 s    1 1.00
                0.1596                   1
 p    3 1.00
                 9.439   0.056979251590039
                 2.002    0.31320721150073
                0.5456    0.76037674173753
 p    1 1.00
                0.1517                   1
 d    1 1.00
                  0.55                   1

32 0
 s    3 1.00
                 13.01   0.033498726389998
                 1.962    0.23480080117413
                0.4446     0.8136829578829
 s    1 1.00
                 0.122                   1
 p    1 1.00
                 0.727                   1

33 0
 s    3 1.00
                 13.01   0.033498726389998
                 1.962    0.23480080117413
                0.4446     0.8136829578829
 s    1 1.00
                 0.122                   1
 p    1 1.00
                 0.727                   1

34 0
 s    3 1.00
                 13.01   0.033498726389998
                 1.962    0.23480080117413
                0.4446     0.8136829578829
 s    1 1.00
                 0.122                   1
 p    1 1.00
                 0.727                   1

35 0
 s    3 1.00
                 13.01   0.033498726389998
                 1.962    0.23480080117413
                0.4446     0.8136829578829
 s    1 1.00
                 0.122                   1
 p    1 1.00
                 0.727                   1

36 0
 s    3 1.00
                 13.01   0.033498726389998
                 1.962    0.23480080117413
                0.4446     0.8136829578829
 s    1 1.00
                 0.122                   1
 p    1 1.00
                 0.727                   1

37 0
 s    3 1.00
                 13.01   0.033498726389998
                 1.962    0.23480080117413
                0.4446     0.8136829578829
 s    1 1.00
                 0.122                   1
 p    1 1.00
                 0.727                   1

[5d]
[7f]
[9g]

[MO]
 Sym= A
 Ene=               0
 Spin= Alpha
 Occup=    1.00000
   1    7.1235740686747e-07
   2    1.4378302051949e-06
   3    -6.0178054326942e-06
   4    1.2113891099834e-07
   5    -2.2407882273051e-07
   6    1.1205467421727e-06
   7    4.4346011618639e-08
   8    6.9238517268005e-07
   9    3.5524578285968e-06
  10    2.5773008794759e-07
  11    -3.1481124627594e-07
  12    1.7843460158274e-07
  13    -6.7535384559443e-09
  14    -1.906310685448e-09
  15    1.1548186467321e-06
  16    9.6316109686829e-06
  17    -1.3436780404064e-06
  18    1.0074954794773e-06
  19    -2.5071033016832e-06
  20    -2.2803846806319e-08
  21    -2.7693265663983e-07
  22    -8.4540252746795e-09
  23    -1.5458061473427e-07
  24    1.0099592470729e-08
  25    3.5933779727008e-06
  26    2.170987824321e-06
  27    2.2694725017347e-05
  28    -2.4749532025207e-06
  29    5.1154638527969e-05
  30    1.8801695159829e-05
  31    5.5402415777918e-05
  32    1.1380309958076e-05
  33    -1.7515024646665e-05
  34    2.0086424465783e-06
  35    -2.2646042585005e-06
  36    1.6351885623243e-06
  37    4.6930094438635e-07
  38    8.3086991912629e-07
  39    7.6186288723337e-05
  40    0.00017395152361018
  41    -0.00069586314974021
  42    5.8521266204754e-05
  43    -5.763655323518e-05
  44    -6.3364713364027e-05
  45    -0.00043090123785667
  46    0.00031312884760476
  47    0.00020796914628855
  48    -8.3563878984223e-06
  49    3.4695807620304e-05
  50    -4.5112325456529e-06
  51    -1.485555767924e-05
  52    2.3279228429804e-05
  53    6.9852238123008e-05
  54    -1.2834205263655e-05
  55    0.00034633833884487
  56    -8.4649701157999e-05
  57    -0.00011623415617415
  58    0.00011647909543868
  59    -0.00066596613880236
  60    0.00010236965619256
  61    0.00061575959089175
  62    8.5244019366369e-07
  63    -2.2357541703626e-05
  64    4.7338908068919e-05
  65    3.1266269283219e-05
  66    -3.5284546786901e-05
  67    4.6337665543866e-06
  68    1.0550279903134e-05
  69    9.7238956948604e-05
  70    2.2976731743591e-05
  71    1.1361110512762e-05
  72    -1.1105397360164e-05
  73    -0.00017240969135093
  74    4.4205919620934e-05
  75    1.3464677275893e-05
  76    -8.8361085438817e-06
  77    -1.1847939832042e-05
  78    6.9269645255382e-06
  79    7.9032098029271e-06
  80    -7.5531007475539e-06
  81    4.8873114393357e-05
  82    -8.1259640279556e-05
  83    1.3988241370443e-05
  84    -1.1541256229944e-05
  85    -1.6097753188565e-05
  86    -6.0032663401381e-05
  87    0.00032836804200628
  88    -0.00078379798828337
  89    0.00043247997673976
  90    -0.00030775034266919
  91    -0.00025845044118133
  92    -0.00039895704147901
  93    -2.4623299501388e-06
  94    0.00033026213398064
  95    -8.2703986303393e-06
  96    1.5225900499213e-05
  97    -7.4849391703487e-06
  98    -2.3027209881361e-05
  99    2.9996319199702e-06
 100    4.6574841059734e-05
 101    -3.5665356041543e-05
 102    2.4888915489848e-05
 103    -1.0686981225345e-05
 104    -1.3602294897519e-05
 105    -5.5018927373275e-06
 106    -1.5754362860074e-05
 107    1.3042789786151e-05
 108    -1.8143442175751e-06
 109    -2.0103352724593e-07
 110    3.8338187520515e-05
 111    -3.1608163877039e-05
 112    -1.8335550282889e-06
 113    1.0997076810459e-06
 114    2.5196377491901e-06
 115    1.3559140659568e-05
 116    2.549832470229e-05
 117    -0.00017977898021082
 118    -1.4990153667348e-06
 119    -5.9319561634396e-06
 120    6.2536352770135e-06
 121    -0.00016628893835194
 122    0.00013933728256219
 123    2.9530687687566e-05
 124    1.3920238354392e-06
 125    1.0591016534262e-05
 126    -6.531534361087e-06
 127    -5.9937075670546e-06
 128    1.0180813328231e-05
 129    -3.6166670665524e-05
 130    -3.430717872778e-05
 131    3.5804410608944e-05
 132    -6.5921880395109e-06
 133    -2.5822163157714e-05
 134    -3.6034109275159e-05
 135    -1.9516728870645e-05
 136    3.2073054155909e-05
 137    -7.5794371593221e-06
 138    -2.2119313255638e-05
 139    0.00073436229746406
 140    0.00044301238308022
 141    -1.4349481046747e-05
 142    -0.00036674316683013
 143    -0.00051400542325761
 144    0.00050702458192978
 145    -0.0015203622630866
 146    0.00013417447221578
 147    0.0012697664635844
 148    3.1329884107031e-06
 149    4.6160958941251e-05
 150    0.0001732545640904
 151    0.00010231667764787
 152    -0.00010631431124756
 153    1.9600724134319e-06
 154    -1.289530981919e-05
 155    5.5106359480859e-06
 156    -4.7870610143343e-06
 157    3.2466786343636e-06
 158    1.9684046725234e-05
 159    2.0223096654516e-05
 160    5.8943490149487e-06
 161    -4.7517586022354e-06
 162    -5.6834300994035e-08
 163    8.5312792767292e-06
 164    1.041336869721e-05
 165    -7.3295217231384e-05
 166    -3.5115708986128e-06
 167    2.7281125955435e-06
 168    -2.394497649182e-06
 169    -5.4517810477338e-05
 170    6.9533585417261e-06
 171    -1.335901710626e-05
 172    1.9394785416801e-07
 173    -3.7163200347333e-06
 174    1.515466780999e-06
 175    -1.5587815888101e-06
 176    3.9310561999311e-07
 177    0.00032750468542318
 178    0.00013048870414282
 179    4.4752458778277e-05
 180    -2.5323450602171e-05
 181    -9.2360380449613e-05
 182    -0.0030107721261572
 183    -0.0022850125631192
 184    -0.0026402121628703
 185    0.0014870233556679
 186    -0.0023271548544061
 187    -0.00040506338907884
 188    -0.00031190738884357
 189    -0.00090969905438106
 190    0.00060649532791471
 191    -7.2635452343829e-05
 192    -0.00030436065053097
 193    4.4951373811585e-05
 194    6.4967203901824e-05
 195    -0.00018471875503842
 196    0.00033077370928817
 197    0.0001403233679339
 198    0.00010226304837083
 199    4.863247194183e-07
 200    -2.5236743181639e-05
 201    3.7684961161293e-06
 202    -1.1490034732622e-05
 203    1.2451216659856e-06
 204    -2.5345874637806e-07
 205    -1.5602673952245e-08
 206    5.9244561129001e-06
 207    2.4483063535718e-05
 208    1.1698323520849e-06
 209    -2.99156599177e-06
 210    1.5873257938126e-06
 211      0.00133304042098
 212    1.3484769026157e-05
 213    -1.0237610616665e-05
 214    4.5243469813291e-06
 215    -2.10231413523e-06
 216    7.4075480559306e-07
 217    -5.655306028097e-05
 218    4.019545279797e-05
 219    -2.2379862272639e-05
 220    7.6788200820504e-07
 221    1.6256139816511e-06
 222    -1.9845543235244e-06
 223    -9.9960995568971e-07
 224    1.9742993114081e-06
 225    -0.0023744268231276
 226    -0.00082587667019294
 227    0.00011104842572818
 228    0.0001975391483316
 229    0.00013731744748493
 230    -0.0023749238668054
 231    -0.0008437756168443
 232    -0.00016906848558359
 233    7.5210387988255e-05
 234    -0.00019043077126779
 235      -1.0023584869019
 236    -0.0041833894555127
 237     0.010257370725507
 238    -0.00099902221558241
 239    0.00065126871391871
 240    0.00061977103153989
 241    -0.0013820195137448
 242    0.00044686273867627
 243    0.0010152336607981
 244    -2.7181134264362e-05
 245    -0.00017296298785036
 246    8.3632486621535e-05
 247    9.3998503116926e-05
 248    -0.00012896824579052
 249    5.9489847308255e-06
 250    8.9377690546843e-07
 251    2.5213747911032e-06
 252    -2.2812166456852e-06
 253    1.6454397546229e-06
 254    3.7641184386364e-06
 255    2.4367650641555e-06
 256    2.4932326484625e-06
 257    -1.8969763987677e-06
 258    2.3446734521356e-06
 259    0.00011744033967101
 260    7.6491722171679e-06
 261    -5.7991634345761e-05
 262    -1.1021254220163e-06
 263    8.0883485041295e-07