[Molden Format]
made by pyscf v[2.0.1]
[Atoms] (AU)
O   1   8     0.00000000000000     0.00000000000000     8.29613401107647
H   2   1     0.00000000000000     0.00000000000000     6.47273218917551
H   3   1    -0.05031916615174     1.78353065140343     8.67200570754314
O   4   8     0.00000000000000     0.00000000000000     2.31533471513237
C   5   6     0.00000000000000     0.00000000000000     0.00000000000000
C   6   6     2.01118073026938    -1.40227222164369    -1.50774939176400
C   7   6    -2.01249334291722     1.41331050329955    -1.50315905028694
H   8   1     3.32037363730244    -2.26721897153159    -0.13599698591495
C   9   6     3.45899267434009     0.28739631745591    -3.37437943254505
H   10   1     1.07662969841332    -2.94725144642667    -2.56541439481080
H   11   1    -2.67503415753480     0.18421555839588    -3.06194479365997
H   12   1    -1.07974048864772     3.03851734677796    -2.43674295017013
C   13   6    -4.21607110578555     2.32938802552922     0.11994162256091
H   14   1     4.24440173074564     1.93368664142019    -2.34976285512790
H   15   1     2.15020713235517     1.04714335134846    -4.81494497423699
C   16   6     5.60746363007797    -1.12419643481196    -4.70268606082550
H   17   1    -3.46838323670267     3.50951302338067     1.66946842715333
H   18   1    -5.11873485366228     0.68575958301209     1.04047743976495
C   19   6    -6.18314754751344     3.80909592987882    -1.39656589068747
H   20   1     6.93011263717176    -1.87550812453645    -3.26656317360070
C   21   6     7.06356622236532     0.52877932406334    -6.57829775293605
H   22   1     4.82318879258361    -2.78573437948532    -5.70504560381835
H   23   1    -6.91582688743803     2.61304780074712    -2.95074552451969
H   24   1    -5.26532430573853     5.45420349051338    -2.31005832200284
C   25   6    -8.39941882261433     4.73263980500213     0.21800571437956
H   26   1     7.83338371486801     2.19084139882824    -5.57093109900697
H   27   1     5.73544244039420     1.27376866537418    -8.01071492370229
C   28   6     9.21124858443101    -0.89699110072176    -7.88926949186242
H   29   1    -7.66272760055236     5.92277078003992     1.77035591474408
H   30   1    -9.31497248082589     3.08753015622020     1.12614408368786
C   31   6   -10.35481709231879     6.21833079391143    -1.30905206253246
H   32   1    10.58815905329501    -1.61074586756696    -6.49512691622620
H   33   1    10.23506248045667     0.32468009384095    -9.23072870921204
H   34   1     8.47665842847139    -2.53598436989925    -8.94921964622535
H   35   1    -9.48948872868064     7.90013588951020    -2.18823918416067
H   36   1   -11.93332513000955     6.86460487874102    -0.11255798845995
H   37   1   -11.15126291841033     5.04495968327630    -2.83849898862534
[GTO]
1 0
 s    8 1.00
                 11720  0.00070964594651845
                  1759  0.0054672722921914
                 400.8   0.027823118610189
                 113.7    0.10474773971146
                 37.03    0.28292084635691
                 13.27    0.44849523869833
                 5.025    0.27081688521277
                 1.013    0.01545029160744
 s    8 1.00
                 11720  -0.00031444341168873
                  1759  -0.0024821376810179
                 400.8  -0.012316355381583
                 113.7  -0.050538917343672
                 37.03   -0.13938490331632
                 13.27   -0.32507749481778
                 5.025   -0.22984830758785
                 1.013     1.0953793467883
 s    1 1.00
                0.3023                   1
 p    3 1.00
                  17.7   0.062679166281506
                 3.854    0.33353656587936
                 1.046    0.74123964163973
 p    1 1.00
                0.2753                   1
 d    1 1.00
                 1.185                   1

2 0
 s    3 1.00
                 13.01   0.033498726389998
                 1.962    0.23480080117413
                0.4446     0.8136829578829
 s    1 1.00
                 0.122                   1
 p    1 1.00
                 0.727                   1

3 0
 s    3 1.00
                 13.01   0.033498726389998
                 1.962    0.23480080117413
                0.4446     0.8136829578829
 s    1 1.00
                 0.122                   1
 p    1 1.00
                 0.727                   1

4 0
 s    8 1.00
                 11720  0.00070964594651845
                  1759  0.0054672722921914
                 400.8   0.027823118610189
                 113.7    0.10474773971146
                 37.03    0.28292084635691
                 13.27    0.44849523869833
                 5.025    0.27081688521277
                 1.013    0.01545029160744
 s    8 1.00
                 11720  -0.00031444341168873
                  1759  -0.0024821376810179
                 400.8  -0.012316355381583
                 113.7  -0.050538917343672
                 37.03   -0.13938490331632
                 13.27   -0.32507749481778
                 5.025   -0.22984830758785
                 1.013     1.0953793467883
 s    1 1.00
                0.3023                   1
 p    3 1.00
                  17.7   0.062679166281506
                 3.854    0.33353656587936
                 1.046    0.74123964163973
 p    1 1.00
                0.2753                   1
 d    1 1.00
                 1.185                   1

5 0
 s    8 1.00
                  6665  0.00069158396281299
                  1000  0.0053257961529341
                   228   0.027060721042034
                 64.71    0.10165684614077
                 21.06     0.2745748236174
                 7.495    0.44829431892377
                 2.797    0.28490261071525
                0.5215   0.015194859206082
 s    8 1.00
                  6665  -0.00029326965268655
                  1000  -0.0023180354739745
                   228  -0.011499786038565
                 64.71  -0.046826727009787
                 21.06   -0.12846616875047
                 7.495   -0.30126627246289
                 2.797   -0.25563070233011
                0.5215      1.093793361012
 s    1 1.00
                0.1596                   1
 p    3 1.00
                 9.439   0.056979251590039
                 2.002    0.31320721150073
                0.5456    0.76037674173753
 p    1 1.00
                0.1517                   1
 d    1 1.00
                  0.55                   1

6 0
 s    8 1.00
                  6665  0.00069158396281299
                  1000  0.0053257961529341
                   228   0.027060721042034
                 64.71    0.10165684614077
                 21.06     0.2745748236174
                 7.495    0.44829431892377
                 2.797    0.28490261071525
                0.5215   0.015194859206082
 s    8 1.00
                  6665  -0.00029326965268655
                  1000  -0.0023180354739745
                   228  -0.011499786038565
                 64.71  -0.046826727009787
                 21.06   -0.12846616875047
                 7.495   -0.30126627246289
                 2.797   -0.25563070233011
                0.5215      1.093793361012
 s    1 1.00
                0.1596                   1
 p    3 1.00
                 9.439   0.056979251590039
                 2.002    0.31320721150073
                0.5456    0.76037674173753
 p    1 1.00
                0.1517                   1
 d    1 1.00
                  0.55                   1

7 0
 s    8 1.00
                  6665  0.00069158396281299
                  1000  0.0053257961529341
                   228   0.027060721042034
                 64.71    0.10165684614077
                 21.06     0.2745748236174
                 7.495    0.44829431892377
                 2.797    0.28490261071525
                0.5215   0.015194859206082
 s    8 1.00
                  6665  -0.00029326965268655
                  1000  -0.0023180354739745
                   228  -0.011499786038565
                 64.71  -0.046826727009787
                 21.06   -0.12846616875047
                 7.495   -0.30126627246289
                 2.797   -0.25563070233011
                0.5215      1.093793361012
 s    1 1.00
                0.1596                   1
 p    3 1.00
                 9.439   0.056979251590039
                 2.002    0.31320721150073
                0.5456    0.76037674173753
 p    1 1.00
                0.1517                   1
 d    1 1.00
                  0.55                   1

8 0
 s    3 1.00
                 13.01   0.033498726389998
                 1.962    0.23480080117413
                0.4446     0.8136829578829
 s    1 1.00
                 0.122                   1
 p    1 1.00
                 0.727                   1

9 0
 s    8 1.00
                  6665  0.00069158396281299
                  1000  0.0053257961529341
                   228   0.027060721042034
                 64.71    0.10165684614077
                 21.06     0.2745748236174
                 7.495    0.44829431892377
                 2.797    0.28490261071525
                0.5215   0.015194859206082
 s    8 1.00
                  6665  -0.00029326965268655
                  1000  -0.0023180354739745
                   228  -0.011499786038565
                 64.71  -0.046826727009787
                 21.06   -0.12846616875047
                 7.495   -0.30126627246289
                 2.797   -0.25563070233011
                0.5215      1.093793361012
 s    1 1.00
                0.1596                   1
 p    3 1.00
                 9.439   0.056979251590039
                 2.002    0.31320721150073
                0.5456    0.76037674173753
 p    1 1.00
                0.1517                   1
 d    1 1.00
                  0.55                   1

10 0
 s    3 1.00
                 13.01   0.033498726389998
                 1.962    0.23480080117413
                0.4446     0.8136829578829
 s    1 1.00
                 0.122                   1
 p    1 1.00
                 0.727                   1

11 0
 s    3 1.00
                 13.01   0.033498726389998
                 1.962    0.23480080117413
                0.4446     0.8136829578829
 s    1 1.00
                 0.122                   1
 p    1 1.00
                 0.727                   1

12 0
 s    3 1.00
                 13.01   0.033498726389998
                 1.962    0.23480080117413
                0.4446     0.8136829578829
 s    1 1.00
                 0.122                   1
 p    1 1.00
                 0.727                   1

13 0
 s    8 1.00
                  6665  0.00069158396281299
                  1000  0.0053257961529341
                   228   0.027060721042034
                 64.71    0.10165684614077
                 21.06     0.2745748236174
                 7.495    0.44829431892377
                 2.797    0.28490261071525
                0.5215   0.015194859206082
 s    8 1.00
                  6665  -0.00029326965268655
                  1000  -0.0023180354739745
                   228  -0.011499786038565
                 64.71  -0.046826727009787
                 21.06   -0.12846616875047
                 7.495   -0.30126627246289
                 2.797   -0.25563070233011
                0.5215      1.093793361012
 s    1 1.00
                0.1596                   1
 p    3 1.00
                 9.439   0.056979251590039
                 2.002    0.31320721150073
                0.5456    0.76037674173753
 p    1 1.00
                0.1517                   1
 d    1 1.00
                  0.55                   1

14 0
 s    3 1.00
                 13.01   0.033498726389998
                 1.962    0.23480080117413
                0.4446     0.8136829578829
 s    1 1.00
                 0.122                   1
 p    1 1.00
                 0.727                   1

15 0
 s    3 1.00
                 13.01   0.033498726389998
                 1.962    0.23480080117413
                0.4446     0.8136829578829
 s    1 1.00
                 0.122                   1
 p    1 1.00
                 0.727                   1

16 0
 s    8 1.00
                  6665  0.00069158396281299
                  1000  0.0053257961529341
                   228   0.027060721042034
                 64.71    0.10165684614077
                 21.06     0.2745748236174
                 7.495    0.44829431892377
                 2.797    0.28490261071525
                0.5215   0.015194859206082
 s    8 1.00
                  6665  -0.00029326965268655
                  1000  -0.0023180354739745
                   228  -0.011499786038565
                 64.71  -0.046826727009787
                 21.06   -0.12846616875047
                 7.495   -0.30126627246289
                 2.797   -0.25563070233011
                0.5215      1.093793361012
 s    1 1.00
                0.1596                   1
 p    3 1.00
                 9.439   0.056979251590039
                 2.002    0.31320721150073
                0.5456    0.76037674173753
 p    1 1.00
                0.1517                   1
 d    1 1.00
                  0.55                   1

17 0
 s    3 1.00
                 13.01   0.033498726389998
                 1.962    0.23480080117413
                0.4446     0.8136829578829
 s    1 1.00
                 0.122                   1
 p    1 1.00
                 0.727                   1

18 0
 s    3 1.00
                 13.01   0.033498726389998
                 1.962    0.23480080117413
                0.4446     0.8136829578829
 s    1 1.00
                 0.122                   1
 p    1 1.00
                 0.727                   1

19 0
 s    8 1.00
                  6665  0.00069158396281299
                  1000  0.0053257961529341
                   228   0.027060721042034
                 64.71    0.10165684614077
                 21.06     0.2745748236174
                 7.495    0.44829431892377
                 2.797    0.28490261071525
                0.5215   0.015194859206082
 s    8 1.00
                  6665  -0.00029326965268655
                  1000  -0.0023180354739745
                   228  -0.011499786038565
                 64.71  -0.046826727009787
                 21.06   -0.12846616875047
                 7.495   -0.30126627246289
                 2.797   -0.25563070233011
                0.5215      1.093793361012
 s    1 1.00
                0.1596                   1
 p    3 1.00
                 9.439   0.056979251590039
                 2.002    0.31320721150073
                0.5456    0.76037674173753
 p    1 1.00
                0.1517                   1
 d    1 1.00
                  0.55                   1

20 0
 s    3 1.00
                 13.01   0.033498726389998
                 1.962    0.23480080117413
                0.4446     0.8136829578829
 s    1 1.00
                 0.122                   1
 p    1 1.00
                 0.727                   1

21 0
 s    8 1.00
                  6665  0.00069158396281299
                  1000  0.0053257961529341
                   228   0.027060721042034
                 64.71    0.10165684614077
                 21.06     0.2745748236174
                 7.495    0.44829431892377
                 2.797    0.28490261071525
                0.5215   0.015194859206082
 s    8 1.00
                  6665  -0.00029326965268655
                  1000  -0.0023180354739745
                   228  -0.011499786038565
                 64.71  -0.046826727009787
                 21.06   -0.12846616875047
                 7.495   -0.30126627246289
                 2.797   -0.25563070233011
                0.5215      1.093793361012
 s    1 1.00
                0.1596                   1
 p    3 1.00
                 9.439   0.056979251590039
                 2.002    0.31320721150073
                0.5456    0.76037674173753
 p    1 1.00
                0.1517                   1
 d    1 1.00
                  0.55                   1

22 0
 s    3 1.00
                 13.01   0.033498726389998
                 1.962    0.23480080117413
                0.4446     0.8136829578829
 s    1 1.00
                 0.122                   1
 p    1 1.00
                 0.727                   1

23 0
 s    3 1.00
                 13.01   0.033498726389998
                 1.962    0.23480080117413
                0.4446     0.8136829578829
 s    1 1.00
                 0.122                   1
 p    1 1.00
                 0.727                   1

24 0
 s    3 1.00
                 13.01   0.033498726389998
                 1.962    0.23480080117413
                0.4446     0.8136829578829
 s    1 1.00
                 0.122                   1
 p    1 1.00
                 0.727                   1

25 0
 s    8 1.00
                  6665  0.00069158396281299
                  1000  0.0053257961529341
                   228   0.027060721042034
                 64.71    0.10165684614077
                 21.06     0.2745748236174
                 7.495    0.44829431892377
                 2.797    0.28490261071525
                0.5215   0.015194859206082
 s    8 1.00
                  6665  -0.00029326965268655
                  1000  -0.0023180354739745
                   228  -0.011499786038565
                 64.71  -0.046826727009787
                 21.06   -0.12846616875047
                 7.495   -0.30126627246289
                 2.797   -0.25563070233011
                0.5215      1.093793361012
 s    1 1.00
                0.1596                   1
 p    3 1.00
                 9.439   0.056979251590039
                 2.002    0.31320721150073
                0.5456    0.76037674173753
 p    1 1.00
                0.1517                   1
 d    1 1.00
                  0.55                   1

26 0
 s    3 1.00
                 13.01   0.033498726389998
                 1.962    0.23480080117413
                0.4446     0.8136829578829
 s    1 1.00
                 0.122                   1
 p    1 1.00
                 0.727                   1

27 0
 s    3 1.00
                 13.01   0.033498726389998
                 1.962    0.23480080117413
                0.4446     0.8136829578829
 s    1 1.00
                 0.122                   1
 p    1 1.00
                 0.727                   1

28 0
 s    8 1.00
                  6665  0.00069158396281299
                  1000  0.0053257961529341
                   228   0.027060721042034
                 64.71    0.10165684614077
                 21.06     0.2745748236174
                 7.495    0.44829431892377
                 2.797    0.28490261071525
                0.5215   0.015194859206082
 s    8 1.00
                  6665  -0.00029326965268655
                  1000  -0.0023180354739745
                   228  -0.011499786038565
                 64.71  -0.046826727009787
                 21.06   -0.12846616875047
                 7.495   -0.30126627246289
                 2.797   -0.25563070233011
                0.5215      1.093793361012
 s    1 1.00
                0.1596                   1
 p    3 1.00
                 9.439   0.056979251590039
                 2.002    0.31320721150073
                0.5456    0.76037674173753
 p    1 1.00
                0.1517                   1
 d    1 1.00
                  0.55                   1

29 0
 s    3 1.00
                 13.01   0.033498726389998
                 1.962    0.23480080117413
                0.4446     0.8136829578829
 s    1 1.00
                 0.122                   1
 p    1 1.00
                 0.727                   1

30 0
 s    3 1.00
                 13.01   0.033498726389998
                 1.962    0.23480080117413
                0.4446     0.8136829578829
 s    1 1.00
                 0.122                   1
 p    1 1.00
                 0.727                   1

31 0
 s    8 1.00
                  6665  0.00069158396281299
                  1000  0.0053257961529341
                   228   0.027060721042034
                 64.71    0.10165684614077
                 21.06     0.2745748236174
                 7.495    0.44829431892377
                 2.797    0.28490261071525
                0.5215   0.015194859206082
 s    8 1.00
                  6665  -0.00029326965268655
                  1000  -0.0023180354739745
                   228  -0.011499786038565
                 64.71  -0.046826727009787
                 21.06   -0.12846616875047
                 7.495   -0.30126627246289
                 2.797   -0.25563070233011
                0.5215      1.093793361012
 s    1 1.00
                0.1596                   1
 p    3 1.00
                 9.439   0.056979251590039
                 2.002    0.31320721150073
                0.5456    0.76037674173753
 p    1 1.00
                0.1517                   1
 d    1 1.00
                  0.55                   1

32 0
 s    3 1.00
                 13.01   0.033498726389998
                 1.962    0.23480080117413
                0.4446     0.8136829578829
 s    1 1.00
                 0.122                   1
 p    1 1.00
                 0.727                   1

33 0
 s    3 1.00
                 13.01   0.033498726389998
                 1.962    0.23480080117413
                0.4446     0.8136829578829
 s    1 1.00
                 0.122                   1
 p    1 1.00
                 0.727                   1

34 0
 s    3 1.00
                 13.01   0.033498726389998
                 1.962    0.23480080117413
                0.4446     0.8136829578829
 s    1 1.00
                 0.122                   1
 p    1 1.00
                 0.727                   1

35 0
 s    3 1.00
                 13.01   0.033498726389998
                 1.962    0.23480080117413
                0.4446     0.8136829578829
 s    1 1.00
                 0.122                   1
 p    1 1.00
                 0.727                   1

36 0
 s    3 1.00
                 13.01   0.033498726389998
                 1.962    0.23480080117413
                0.4446     0.8136829578829
 s    1 1.00
                 0.122                   1
 p    1 1.00
                 0.727                   1

37 0
 s    3 1.00
                 13.01   0.033498726389998
                 1.962    0.23480080117413
                0.4446     0.8136829578829
 s    1 1.00
                 0.122                   1
 p    1 1.00
                 0.727                   1

[5d]
[7f]
[9g]

[MO]
 Sym= A
 Ene=               0
 Spin= Alpha
 Occup=    1.00000
   1    7.0099593661852e-05
   2    5.1288905461706e-05
   3    -0.00013383168883734
   4    -1.274343389988e-07
   5    -5.7237393502917e-06
   6    -1.3649350785246e-05
   7    -2.1705852955089e-07
   8    2.5186724623417e-05
   9    6.3891914063714e-05
  10    -3.4909822871195e-06
  11    1.5641179349147e-07
  12    -1.0925702116711e-06
  13    -8.7994680700837e-07
  14    -1.7441734453904e-08
  15    3.5535066704905e-05
  16    0.00022315920481118
  17    5.9114300508843e-07
  18    -2.5202851733294e-06
  19    -2.3053142027494e-05
  20    3.1858284028849e-06
  21    -6.1138224578031e-05
  22    -1.4440863372088e-07
  23    1.0090931851702e-06
  24    2.6577896168667e-06
  25       -1.001382275386
  26    -0.0019988536831131
  27    0.0069639837490947
  28    5.238292710957e-06
  29    -1.1375519611801e-05
  30     0.001635540640556
  31    3.2068101347525e-07
  32    3.180758214621e-06
  33    -0.0019721818103309
  34    -0.00010817222543535
  35    2.7918993658994e-06
  36    -1.5128125745059e-06
  37    -6.6237802322035e-05
  38    0.00017240228846357
  39    -0.00029136433222671
  40    -0.00041008769234308
  41     -0.00155272308967
  42    -1.6058898119025e-05
  43    9.9872370020565e-06
  44    -2.8183087877176e-05
  45    -8.3429757640276e-05
  46    6.6316424765069e-05
  47    -0.0036921797126242
  48    0.0005016448402392
  49    8.1835039806298e-06
  50    -2.6594178931351e-06
  51    -3.0227075134594e-05
  52    0.00011125064246201
  53    8.4255092812717e-05
  54    0.00016491500970612
  55    -0.0013892223160689
  56    -7.8735388955645e-05
  57    7.2246268781481e-06
  58    3.4134381549548e-05
  59    0.00042855379480568
  60    -0.00048317182122186
  61    0.0009797786278131
  62    0.00011583266108059
  63    -0.0001497566532218
  64    0.00014339860239282
  65    -5.412127731757e-05
  66    0.00012665460171317
  67    3.8283029507204e-05
  68    9.4942021737863e-05
  69    -0.00052098893462207
  70    6.2162848307951e-05
  71    -4.1318256907305e-05
  72    6.1709183622349e-05
  73    -0.0010192673417894
  74    0.00078355497007927
  75    0.00066504230660329
  76    0.00013922704195835
  77    0.00012146122819407
  78    -8.9798899590897e-05
  79    -5.8273054348862e-05
  80    0.00014956611719762
  81    5.8734007605657e-05
  82    -0.00021835279448137
  83    -6.7115625599866e-05
  84    4.9286260211437e-05
  85    -4.7024818248681e-05
  86    -2.5041685909068e-05
  87    -4.8984253721961e-05
  88    0.00062438130872235
  89    1.558437900629e-05
  90    1.7312679349384e-05
  91    -1.1158436709391e-05
  92    -0.00026281745011797
  93    -0.0006515317387876
  94    1.1075752999043e-05
  95    -1.9074887389206e-05
  96    -1.1569529663946e-05
  97    -8.1054988297786e-06
  98    1.9325433945312e-05
  99    4.8685755016209e-05
 100    4.124863594306e-05
 101    0.00016600535626238
 102    -6.3093964095274e-06
 103    1.077353317043e-05
 104    -7.7473825565494e-05
 105    1.9765835674761e-05
 106    0.00020739063129921
 107    6.3825665182752e-05
 108    -7.9873079829534e-06
 109    -7.6565438443122e-05
 110    -7.8195154301197e-05
 111    6.6561469220657e-05
 112    4.405405025047e-05
 113    -2.0214873620085e-05
 114    -7.159910136373e-05
 115    4.8209133163113e-05
 116    9.8366460832944e-05
 117    -0.00085492174773322
 118    2.4079245636832e-05
 119    1.1365758433288e-05
 120    -3.1891893815445e-05
 121    -0.00028340301949083
 122    -3.8695261755301e-05
 123    0.00015593959266111
 124    5.9492816146094e-06
 125    -1.0854883922456e-05
 126    -1.4844011794536e-05
 127    3.2356746428981e-05
 128    -5.1187829503834e-05
 129    2.006549897939e-05
 130    0.00033782984446595
 131    -8.1315829979223e-06
 132    -6.0042621503188e-06
 133    -2.9676473751494e-05
 134    -2.5668414052936e-05
 135    0.0001171004213356
 136    1.3827069818757e-05
 137    2.5321601592066e-05
 138    2.752466581193e-05
 139    2.2047029271146e-05
 140    4.0187808913385e-05
 141    -0.00030540039846662
 142    -7.6723075026913e-06
 143    2.9743198980668e-06
 144    5.9756408598725e-06
 145    0.00023195722601871
 146    -5.9457854793621e-05
 147    -5.9713085681029e-05
 148    2.5925547941862e-06
 149    -3.3156754641375e-06
 150    4.5697738908352e-06
 151    -1.2705008226658e-05
 152    4.7966201301716e-06
 153    9.7835045525571e-05
 154    9.6764777832127e-05
 155    2.6665796025749e-05
 156    -2.7973503972532e-05
 157    -1.9239264207256e-05
 158    2.6128951165185e-05
 159    8.6130760123414e-05
 160    5.913860404219e-05
 161    7.4424716535984e-06
 162    -6.7728170964257e-06
 163    1.2993144748805e-06
 164    4.3120279388163e-06
 165    0.00026440422332015
 166    1.6653733226878e-05
 167    -1.3879382358103e-05
 168    -5.8862114695363e-06
 169    -0.00023467820636071
 170    0.00021042708147401
 171    0.00014129927039686
 172    2.4357672973267e-06
 173    -9.8002065177483e-06
 174    1.3570664543464e-05
 175    -3.2108637905976e-06
 176    1.7861065055297e-05
 177    1.6544126651619e-05
 178    -8.65116102126e-05
 179    1.1902924518454e-06
 180    -1.6306868102659e-06
 181    4.6790511203517e-06
 182    -1.6112305540712e-05
 183    -2.8568482699014e-05
 184    7.8371689573424e-05
 185    4.7753075856868e-06
 186    -3.9972063705314e-06
 187    -5.5031716578728e-06
 188    -0.00013107817225366
 189    0.00010197903610606
 190    9.1011579649417e-05
 191    -1.1940249271722e-06
 192    -2.3600264998116e-06
 193    7.5784040455754e-06
 194    3.0619719521362e-06
 195    5.6760397114162e-06
 196    1.3243930816749e-05
 197    1.9454942293775e-05
 198    -5.6643922878462e-06
 199    -1.9251902784311e-06
 200    3.2162958534638e-06
 201    1.2946465958214e-05
 202    -1.7386140614504e-06
 203    1.3324923843651e-05
 204    -9.8267414199861e-06
 205    -1.1724918960728e-05
 206    -9.6002130653614e-06
 207    -6.9543598993176e-05
 208    1.601385963868e-05
 209    -3.8662280126425e-06
 210    -1.589562700332e-05
 211    4.208995522731e-06
 212    2.2549597888079e-05
 213    -0.00027364699040014
 214    3.073238531035e-07
 215    3.2223238819836e-06
 216    1.2808993799262e-06
 217    -0.00019136901053618
 218    5.2242242996718e-05
 219    7.7600009351283e-05
 220    2.2586420316441e-06
 221    1.6274952709617e-05
 222    -5.1110305230717e-06
 223    -9.1186026976791e-06
 224    1.7775745691048e-06
 225    -2.6687709066295e-05
 226    -5.6793840728921e-05
 227    1.2598682789799e-05
 228    2.1438961535735e-06
 229    9.7142551275868e-07
 230    -1.0292789338268e-05
 231    -5.4551049746787e-05
 232    4.1047141185055e-06
 233    -6.4998321178026e-06
 234    -1.2189719526561e-05
 235    -6.5477052321015e-07
 236    -2.0234581223931e-06
 237    7.8784298210081e-05
 238    -2.4583570245899e-06
 239    -4.2123766337889e-07
 240    3.5180524170904e-06
 241    -3.6631115088887e-05
 242    6.4603821172041e-05
 243    -1.8397491490077e-05
 244    -1.9886729288758e-06
 245    -2.0084225039761e-06
 246     1.84682820102e-06
 247    -1.2772195453202e-07
 248    -9.4345403620354e-07
 249    1.2611580445536e-05
 250    -1.0614218848015e-05
 251    4.7908908408552e-06
 252    1.3379740185737e-06
 253    2.4532321511666e-07
 254    6.5273078198707e-06
 255    -5.9066643173139e-05
 256    -5.7134228584091e-07
 257    -5.0650799575115e-06
 258    1.1126429197487e-06
 259    9.4981960408322e-06
 260    1.7051728725214e-05
 261    -7.3573023422562e-05
 262    1.0323457435964e-07
 263    -2.397269786138e-06