[Molden Format]
made by pyscf v[2.0.1]
[Atoms] (AU)
O   1   8     0.00000000000000     0.00000000000000     6.78435311142442
H   2   1     0.00000000000000     0.00000000000000     4.96095128952346
H   3   1    -0.05031916615174     1.78353065140343     7.16022480789109
O   4   8     0.00000000000000     0.00000000000000     2.31533471513237
C   5   6     0.00000000000000     0.00000000000000     0.00000000000000
C   6   6     2.01118073026938    -1.40227222164369    -1.50774939176400
C   7   6    -2.01249334291722     1.41331050329955    -1.50315905028694
H   8   1     3.32037363730244    -2.26721897153159    -0.13599698591495
C   9   6     3.45899267434009     0.28739631745591    -3.37437943254505
H   10   1     1.07662969841332    -2.94725144642667    -2.56541439481080
H   11   1    -2.67503415753480     0.18421555839588    -3.06194479365997
H   12   1    -1.07974048864772     3.03851734677796    -2.43674295017013
C   13   6    -4.21607110578555     2.32938802552922     0.11994162256091
H   14   1     4.24440173074564     1.93368664142019    -2.34976285512790
H   15   1     2.15020713235517     1.04714335134846    -4.81494497423699
C   16   6     5.60746363007797    -1.12419643481196    -4.70268606082550
H   17   1    -3.46838323670267     3.50951302338067     1.66946842715333
H   18   1    -5.11873485366228     0.68575958301209     1.04047743976495
C   19   6    -6.18314754751344     3.80909592987882    -1.39656589068747
H   20   1     6.93011263717176    -1.87550812453645    -3.26656317360070
C   21   6     7.06356622236532     0.52877932406334    -6.57829775293605
H   22   1     4.82318879258361    -2.78573437948532    -5.70504560381835
H   23   1    -6.91582688743803     2.61304780074712    -2.95074552451969
H   24   1    -5.26532430573853     5.45420349051338    -2.31005832200284
C   25   6    -8.39941882261433     4.73263980500213     0.21800571437956
H   26   1     7.83338371486801     2.19084139882824    -5.57093109900697
H   27   1     5.73544244039420     1.27376866537418    -8.01071492370229
C   28   6     9.21124858443101    -0.89699110072176    -7.88926949186242
H   29   1    -7.66272760055236     5.92277078003992     1.77035591474408
H   30   1    -9.31497248082589     3.08753015622020     1.12614408368786
C   31   6   -10.35481709231879     6.21833079391143    -1.30905206253246
H   32   1    10.58815905329501    -1.61074586756696    -6.49512691622620
H   33   1    10.23506248045667     0.32468009384095    -9.23072870921204
H   34   1     8.47665842847139    -2.53598436989925    -8.94921964622535
H   35   1    -9.48948872868064     7.90013588951020    -2.18823918416067
H   36   1   -11.93332513000955     6.86460487874102    -0.11255798845995
H   37   1   -11.15126291841033     5.04495968327630    -2.83849898862534
[GTO]
1 0
 s    8 1.00
                 11720  0.00070964594651845
                  1759  0.0054672722921914
                 400.8   0.027823118610189
                 113.7    0.10474773971146
                 37.03    0.28292084635691
                 13.27    0.44849523869833
                 5.025    0.27081688521277
                 1.013    0.01545029160744
 s    8 1.00
                 11720  -0.00031444341168873
                  1759  -0.0024821376810179
                 400.8  -0.012316355381583
                 113.7  -0.050538917343672
                 37.03   -0.13938490331632
                 13.27   -0.32507749481778
                 5.025   -0.22984830758785
                 1.013     1.0953793467883
 s    1 1.00
                0.3023                   1
 p    3 1.00
                  17.7   0.062679166281506
                 3.854    0.33353656587936
                 1.046    0.74123964163973
 p    1 1.00
                0.2753                   1
 d    1 1.00
                 1.185                   1

2 0
 s    3 1.00
                 13.01   0.033498726389998
                 1.962    0.23480080117413
                0.4446     0.8136829578829
 s    1 1.00
                 0.122                   1
 p    1 1.00
                 0.727                   1

3 0
 s    3 1.00
                 13.01   0.033498726389998
                 1.962    0.23480080117413
                0.4446     0.8136829578829
 s    1 1.00
                 0.122                   1
 p    1 1.00
                 0.727                   1

4 0
 s    8 1.00
                 11720  0.00070964594651845
                  1759  0.0054672722921914
                 400.8   0.027823118610189
                 113.7    0.10474773971146
                 37.03    0.28292084635691
                 13.27    0.44849523869833
                 5.025    0.27081688521277
                 1.013    0.01545029160744
 s    8 1.00
                 11720  -0.00031444341168873
                  1759  -0.0024821376810179
                 400.8  -0.012316355381583
                 113.7  -0.050538917343672
                 37.03   -0.13938490331632
                 13.27   -0.32507749481778
                 5.025   -0.22984830758785
                 1.013     1.0953793467883
 s    1 1.00
                0.3023                   1
 p    3 1.00
                  17.7   0.062679166281506
                 3.854    0.33353656587936
                 1.046    0.74123964163973
 p    1 1.00
                0.2753                   1
 d    1 1.00
                 1.185                   1

5 0
 s    8 1.00
                  6665  0.00069158396281299
                  1000  0.0053257961529341
                   228   0.027060721042034
                 64.71    0.10165684614077
                 21.06     0.2745748236174
                 7.495    0.44829431892377
                 2.797    0.28490261071525
                0.5215   0.015194859206082
 s    8 1.00
                  6665  -0.00029326965268655
                  1000  -0.0023180354739745
                   228  -0.011499786038565
                 64.71  -0.046826727009787
                 21.06   -0.12846616875047
                 7.495   -0.30126627246289
                 2.797   -0.25563070233011
                0.5215      1.093793361012
 s    1 1.00
                0.1596                   1
 p    3 1.00
                 9.439   0.056979251590039
                 2.002    0.31320721150073
                0.5456    0.76037674173753
 p    1 1.00
                0.1517                   1
 d    1 1.00
                  0.55                   1

6 0
 s    8 1.00
                  6665  0.00069158396281299
                  1000  0.0053257961529341
                   228   0.027060721042034
                 64.71    0.10165684614077
                 21.06     0.2745748236174
                 7.495    0.44829431892377
                 2.797    0.28490261071525
                0.5215   0.015194859206082
 s    8 1.00
                  6665  -0.00029326965268655
                  1000  -0.0023180354739745
                   228  -0.011499786038565
                 64.71  -0.046826727009787
                 21.06   -0.12846616875047
                 7.495   -0.30126627246289
                 2.797   -0.25563070233011
                0.5215      1.093793361012
 s    1 1.00
                0.1596                   1
 p    3 1.00
                 9.439   0.056979251590039
                 2.002    0.31320721150073
                0.5456    0.76037674173753
 p    1 1.00
                0.1517                   1
 d    1 1.00
                  0.55                   1

7 0
 s    8 1.00
                  6665  0.00069158396281299
                  1000  0.0053257961529341
                   228   0.027060721042034
                 64.71    0.10165684614077
                 21.06     0.2745748236174
                 7.495    0.44829431892377
                 2.797    0.28490261071525
                0.5215   0.015194859206082
 s    8 1.00
                  6665  -0.00029326965268655
                  1000  -0.0023180354739745
                   228  -0.011499786038565
                 64.71  -0.046826727009787
                 21.06   -0.12846616875047
                 7.495   -0.30126627246289
                 2.797   -0.25563070233011
                0.5215      1.093793361012
 s    1 1.00
                0.1596                   1
 p    3 1.00
                 9.439   0.056979251590039
                 2.002    0.31320721150073
                0.5456    0.76037674173753
 p    1 1.00
                0.1517                   1
 d    1 1.00
                  0.55                   1

8 0
 s    3 1.00
                 13.01   0.033498726389998
                 1.962    0.23480080117413
                0.4446     0.8136829578829
 s    1 1.00
                 0.122                   1
 p    1 1.00
                 0.727                   1

9 0
 s    8 1.00
                  6665  0.00069158396281299
                  1000  0.0053257961529341
                   228   0.027060721042034
                 64.71    0.10165684614077
                 21.06     0.2745748236174
                 7.495    0.44829431892377
                 2.797    0.28490261071525
                0.5215   0.015194859206082
 s    8 1.00
                  6665  -0.00029326965268655
                  1000  -0.0023180354739745
                   228  -0.011499786038565
                 64.71  -0.046826727009787
                 21.06   -0.12846616875047
                 7.495   -0.30126627246289
                 2.797   -0.25563070233011
                0.5215      1.093793361012
 s    1 1.00
                0.1596                   1
 p    3 1.00
                 9.439   0.056979251590039
                 2.002    0.31320721150073
                0.5456    0.76037674173753
 p    1 1.00
                0.1517                   1
 d    1 1.00
                  0.55                   1

10 0
 s    3 1.00
                 13.01   0.033498726389998
                 1.962    0.23480080117413
                0.4446     0.8136829578829
 s    1 1.00
                 0.122                   1
 p    1 1.00
                 0.727                   1

11 0
 s    3 1.00
                 13.01   0.033498726389998
                 1.962    0.23480080117413
                0.4446     0.8136829578829
 s    1 1.00
                 0.122                   1
 p    1 1.00
                 0.727                   1

12 0
 s    3 1.00
                 13.01   0.033498726389998
                 1.962    0.23480080117413
                0.4446     0.8136829578829
 s    1 1.00
                 0.122                   1
 p    1 1.00
                 0.727                   1

13 0
 s    8 1.00
                  6665  0.00069158396281299
                  1000  0.0053257961529341
                   228   0.027060721042034
                 64.71    0.10165684614077
                 21.06     0.2745748236174
                 7.495    0.44829431892377
                 2.797    0.28490261071525
                0.5215   0.015194859206082
 s    8 1.00
                  6665  -0.00029326965268655
                  1000  -0.0023180354739745
                   228  -0.011499786038565
                 64.71  -0.046826727009787
                 21.06   -0.12846616875047
                 7.495   -0.30126627246289
                 2.797   -0.25563070233011
                0.5215      1.093793361012
 s    1 1.00
                0.1596                   1
 p    3 1.00
                 9.439   0.056979251590039
                 2.002    0.31320721150073
                0.5456    0.76037674173753
 p    1 1.00
                0.1517                   1
 d    1 1.00
                  0.55                   1

14 0
 s    3 1.00
                 13.01   0.033498726389998
                 1.962    0.23480080117413
                0.4446     0.8136829578829
 s    1 1.00
                 0.122                   1
 p    1 1.00
                 0.727                   1

15 0
 s    3 1.00
                 13.01   0.033498726389998
                 1.962    0.23480080117413
                0.4446     0.8136829578829
 s    1 1.00
                 0.122                   1
 p    1 1.00
                 0.727                   1

16 0
 s    8 1.00
                  6665  0.00069158396281299
                  1000  0.0053257961529341
                   228   0.027060721042034
                 64.71    0.10165684614077
                 21.06     0.2745748236174
                 7.495    0.44829431892377
                 2.797    0.28490261071525
                0.5215   0.015194859206082
 s    8 1.00
                  6665  -0.00029326965268655
                  1000  -0.0023180354739745
                   228  -0.011499786038565
                 64.71  -0.046826727009787
                 21.06   -0.12846616875047
                 7.495   -0.30126627246289
                 2.797   -0.25563070233011
                0.5215      1.093793361012
 s    1 1.00
                0.1596                   1
 p    3 1.00
                 9.439   0.056979251590039
                 2.002    0.31320721150073
                0.5456    0.76037674173753
 p    1 1.00
                0.1517                   1
 d    1 1.00
                  0.55                   1

17 0
 s    3 1.00
                 13.01   0.033498726389998
                 1.962    0.23480080117413
                0.4446     0.8136829578829
 s    1 1.00
                 0.122                   1
 p    1 1.00
                 0.727                   1

18 0
 s    3 1.00
                 13.01   0.033498726389998
                 1.962    0.23480080117413
                0.4446     0.8136829578829
 s    1 1.00
                 0.122                   1
 p    1 1.00
                 0.727                   1

19 0
 s    8 1.00
                  6665  0.00069158396281299
                  1000  0.0053257961529341
                   228   0.027060721042034
                 64.71    0.10165684614077
                 21.06     0.2745748236174
                 7.495    0.44829431892377
                 2.797    0.28490261071525
                0.5215   0.015194859206082
 s    8 1.00
                  6665  -0.00029326965268655
                  1000  -0.0023180354739745
                   228  -0.011499786038565
                 64.71  -0.046826727009787
                 21.06   -0.12846616875047
                 7.495   -0.30126627246289
                 2.797   -0.25563070233011
                0.5215      1.093793361012
 s    1 1.00
                0.1596                   1
 p    3 1.00
                 9.439   0.056979251590039
                 2.002    0.31320721150073
                0.5456    0.76037674173753
 p    1 1.00
                0.1517                   1
 d    1 1.00
                  0.55                   1

20 0
 s    3 1.00
                 13.01   0.033498726389998
                 1.962    0.23480080117413
                0.4446     0.8136829578829
 s    1 1.00
                 0.122                   1
 p    1 1.00
                 0.727                   1

21 0
 s    8 1.00
                  6665  0.00069158396281299
                  1000  0.0053257961529341
                   228   0.027060721042034
                 64.71    0.10165684614077
                 21.06     0.2745748236174
                 7.495    0.44829431892377
                 2.797    0.28490261071525
                0.5215   0.015194859206082
 s    8 1.00
                  6665  -0.00029326965268655
                  1000  -0.0023180354739745
                   228  -0.011499786038565
                 64.71  -0.046826727009787
                 21.06   -0.12846616875047
                 7.495   -0.30126627246289
                 2.797   -0.25563070233011
                0.5215      1.093793361012
 s    1 1.00
                0.1596                   1
 p    3 1.00
                 9.439   0.056979251590039
                 2.002    0.31320721150073
                0.5456    0.76037674173753
 p    1 1.00
                0.1517                   1
 d    1 1.00
                  0.55                   1

22 0
 s    3 1.00
                 13.01   0.033498726389998
                 1.962    0.23480080117413
                0.4446     0.8136829578829
 s    1 1.00
                 0.122                   1
 p    1 1.00
                 0.727                   1

23 0
 s    3 1.00
                 13.01   0.033498726389998
                 1.962    0.23480080117413
                0.4446     0.8136829578829
 s    1 1.00
                 0.122                   1
 p    1 1.00
                 0.727                   1

24 0
 s    3 1.00
                 13.01   0.033498726389998
                 1.962    0.23480080117413
                0.4446     0.8136829578829
 s    1 1.00
                 0.122                   1
 p    1 1.00
                 0.727                   1

25 0
 s    8 1.00
                  6665  0.00069158396281299
                  1000  0.0053257961529341
                   228   0.027060721042034
                 64.71    0.10165684614077
                 21.06     0.2745748236174
                 7.495    0.44829431892377
                 2.797    0.28490261071525
                0.5215   0.015194859206082
 s    8 1.00
                  6665  -0.00029326965268655
                  1000  -0.0023180354739745
                   228  -0.011499786038565
                 64.71  -0.046826727009787
                 21.06   -0.12846616875047
                 7.495   -0.30126627246289
                 2.797   -0.25563070233011
                0.5215      1.093793361012
 s    1 1.00
                0.1596                   1
 p    3 1.00
                 9.439   0.056979251590039
                 2.002    0.31320721150073
                0.5456    0.76037674173753
 p    1 1.00
                0.1517                   1
 d    1 1.00
                  0.55                   1

26 0
 s    3 1.00
                 13.01   0.033498726389998
                 1.962    0.23480080117413
                0.4446     0.8136829578829
 s    1 1.00
                 0.122                   1
 p    1 1.00
                 0.727                   1

27 0
 s    3 1.00
                 13.01   0.033498726389998
                 1.962    0.23480080117413
                0.4446     0.8136829578829
 s    1 1.00
                 0.122                   1
 p    1 1.00
                 0.727                   1

28 0
 s    8 1.00
                  6665  0.00069158396281299
                  1000  0.0053257961529341
                   228   0.027060721042034
                 64.71    0.10165684614077
                 21.06     0.2745748236174
                 7.495    0.44829431892377
                 2.797    0.28490261071525
                0.5215   0.015194859206082
 s    8 1.00
                  6665  -0.00029326965268655
                  1000  -0.0023180354739745
                   228  -0.011499786038565
                 64.71  -0.046826727009787
                 21.06   -0.12846616875047
                 7.495   -0.30126627246289
                 2.797   -0.25563070233011
                0.5215      1.093793361012
 s    1 1.00
                0.1596                   1
 p    3 1.00
                 9.439   0.056979251590039
                 2.002    0.31320721150073
                0.5456    0.76037674173753
 p    1 1.00
                0.1517                   1
 d    1 1.00
                  0.55                   1

29 0
 s    3 1.00
                 13.01   0.033498726389998
                 1.962    0.23480080117413
                0.4446     0.8136829578829
 s    1 1.00
                 0.122                   1
 p    1 1.00
                 0.727                   1

30 0
 s    3 1.00
                 13.01   0.033498726389998
                 1.962    0.23480080117413
                0.4446     0.8136829578829
 s    1 1.00
                 0.122                   1
 p    1 1.00
                 0.727                   1

31 0
 s    8 1.00
                  6665  0.00069158396281299
                  1000  0.0053257961529341
                   228   0.027060721042034
                 64.71    0.10165684614077
                 21.06     0.2745748236174
                 7.495    0.44829431892377
                 2.797    0.28490261071525
                0.5215   0.015194859206082
 s    8 1.00
                  6665  -0.00029326965268655
                  1000  -0.0023180354739745
                   228  -0.011499786038565
                 64.71  -0.046826727009787
                 21.06   -0.12846616875047
                 7.495   -0.30126627246289
                 2.797   -0.25563070233011
                0.5215      1.093793361012
 s    1 1.00
                0.1596                   1
 p    3 1.00
                 9.439   0.056979251590039
                 2.002    0.31320721150073
                0.5456    0.76037674173753
 p    1 1.00
                0.1517                   1
 d    1 1.00
                  0.55                   1

32 0
 s    3 1.00
                 13.01   0.033498726389998
                 1.962    0.23480080117413
                0.4446     0.8136829578829
 s    1 1.00
                 0.122                   1
 p    1 1.00
                 0.727                   1

33 0
 s    3 1.00
                 13.01   0.033498726389998
                 1.962    0.23480080117413
                0.4446     0.8136829578829
 s    1 1.00
                 0.122                   1
 p    1 1.00
                 0.727                   1

34 0
 s    3 1.00
                 13.01   0.033498726389998
                 1.962    0.23480080117413
                0.4446     0.8136829578829
 s    1 1.00
                 0.122                   1
 p    1 1.00
                 0.727                   1

35 0
 s    3 1.00
                 13.01   0.033498726389998
                 1.962    0.23480080117413
                0.4446     0.8136829578829
 s    1 1.00
                 0.122                   1
 p    1 1.00
                 0.727                   1

36 0
 s    3 1.00
                 13.01   0.033498726389998
                 1.962    0.23480080117413
                0.4446     0.8136829578829
 s    1 1.00
                 0.122                   1
 p    1 1.00
                 0.727                   1

37 0
 s    3 1.00
                 13.01   0.033498726389998
                 1.962    0.23480080117413
                0.4446     0.8136829578829
 s    1 1.00
                 0.122                   1
 p    1 1.00
                 0.727                   1

[5d]
[7f]
[9g]

[MO]
 Sym= A
 Ene=               0
 Spin= Alpha
 Occup=    1.00000
   1    7.7417478519684e-05
   2    2.2007791179167e-06
   3    0.00012917891324354
   4    -1.1753777394986e-06
   5    -4.6002001307474e-07
   6    -5.2718177130971e-05
   7    2.1509909701042e-06
   8    1.4735718624918e-05
   9    -0.00013689115511845
  10    6.1341241454412e-05
  11    2.8132461595769e-07
  12    -2.8233602673043e-06
  13    -4.6548984128373e-06
  14    -2.023588630603e-07
  15    -4.7120591526778e-05
  16    0.00012406141178643
  17    1.5022277922489e-06
  18    -5.1138059281432e-06
  19    -0.00016187985918999
  20    -2.8393173350573e-05
  21    8.8156501743267e-06
  22    -2.3444383198472e-07
  23    -6.0377753538497e-06
  24    1.0123227472126e-05
  25      -1.0014127712339
  26    -0.002123919833217
  27    0.0070310368838105
  28    5.3699063542411e-06
  29    -1.6823708432301e-05
  30    0.0015700445638276
  31    -1.2055774724033e-06
  32    4.6942581161226e-06
  33    -0.0021226756067376
  34    -0.00013955903871681
  35    2.6456813914748e-06
  36    -1.0839210286249e-06
  37    -6.2034877787743e-05
  38    0.00016258481378409
  39    -0.00030013337794757
  40    -0.00042695819029429
  41    -0.0017244772708252
  42    -1.6454683127266e-05
  43    1.0465576852851e-05
  44    -5.250906735199e-05
  45    -7.1152413033969e-05
  46    5.8973205800168e-05
  47    -0.0037357105091298
  48    0.00049093246547163
  49    7.7191806290207e-06
  50    -1.7858430180561e-06
  51    -3.3208071193421e-05
  52    0.00011877757335938
  53    8.4141994229296e-05
  54    0.00016516739159763
  55    -0.001378621407676
  56    -8.0603834976575e-05
  57    8.5777468031424e-06
  58    3.5616559401773e-05
  59    0.00040825318895861
  60    -0.00047529768969525
  61    0.00099332774718907
  62    0.00011346138804985
  63    -0.00015294293987082
  64    0.00014613954032262
  65    -5.3816623075229e-05
  66    0.00012511885622208
  67    3.587663767515e-05
  68    9.1421530873329e-05
  69    -0.00047052144286692
  70    6.4603672050783e-05
  71    -4.3066222679535e-05
  72    6.3751451853264e-05
  73    -0.0010101590420425
  74    0.00077321049958782
  75    0.0006905785164939
  76    0.00013654948194927
  77    0.00012478194745866
  78    -9.1558345999776e-05
  79    -5.7586725742064e-05
  80    0.00014729308235605
  81    6.0296138848526e-05
  82    -0.00021232357574897
  83    -6.8152432607586e-05
  84    5.0206970101875e-05
  85    -4.8265967792138e-05
  86    -2.4734986607851e-05
  87    -4.8527336042071e-05
  88    0.00061972837791641
  89    1.5319109365927e-05
  90    1.7240911347502e-05
  91    -1.1939285142186e-05
  92    -0.0002651674429242
  93    -0.00065143634344907
  94    2.0664069776556e-05
  95    -1.9357625502595e-05
  96    -1.1302062920013e-05
  97    -8.3147230863804e-06
  98    1.8479851635559e-05
  99    5.0407001364233e-05
 100    3.9756087259904e-05
 101    0.00016740492285331
 102    -4.7310754817242e-06
 103    1.0553864584301e-05
 104    -7.8060266660201e-05
 105    1.8360716923367e-05
 106    0.00020719371836649
 107    6.2913798395404e-05
 108    -6.0772459636587e-06
 109    -7.7876106016981e-05
 110    -8.0389928446511e-05
 111    7.2030284514187e-05
 112    4.3081068314449e-05
 113    -2.0793354799977e-05
 114    -7.2266835416486e-05
 115    5.1206641212247e-05
 116    0.00010351422712873
 117    -0.00090152067951977
 118    2.3892987156138e-05
 119    1.1707706571055e-05
 120    -3.2403401486235e-05
 121    -0.00027549736269397
 122    -4.5826617219634e-05
 123    0.00017078481686667
 124    5.3295572379305e-06
 125    -1.1534070648736e-05
 126    -1.4071056309726e-05
 127    3.2598606352877e-05
 128    -5.1121103396186e-05
 129    1.7640566625361e-05
 130    0.00034021575072254
 131    -8.1705182562268e-06
 132    -5.8007547973271e-06
 133    -3.0056937269448e-05
 134    -2.3600477011017e-05
 135    0.00011539944799702
 136    1.4810111009316e-05
 137    2.5354072479524e-05
 138    2.623937420605e-05
 139    2.1103554539493e-05
 140    3.8558432647576e-05
 141    -0.00029863160471638
 142    -7.3220977055695e-06
 143    3.5155037497618e-06
 144    6.2108169347025e-06
 145    0.00021884723064924
 146    -6.3153299645702e-05
 147    -5.6189668825563e-05
 148    2.3868854613124e-06
 149    -3.8764435713398e-06
 150    5.1200311204997e-06
 151    -1.2394878598561e-05
 152    4.2030412559768e-06
 153    9.8625878945062e-05
 154    9.8341084220622e-05
 155    2.6168843262881e-05
 156    -2.7798623398687e-05
 157    -2.0213459669766e-05
 158    2.6256236636125e-05
 159    9.1516276778315e-05
 160    5.9196901798284e-05
 161    8.5086073178381e-06
 162    -7.8596838210964e-06
 163    -1.1243386667908e-06
 164    1.9027936140421e-07
 165    0.00029521109886861
 166    1.7017409699625e-05
 167    -1.4146733424893e-05
 168    -5.4230245219355e-06
 169    -0.00021740093475741
 170    0.00019994084725469
 171    0.00014725916098541
 172    1.728028026305e-06
 173    -8.9821842115034e-06
 174    1.2995927544882e-05
 175    -2.7733028074334e-06
 176     1.66580606083e-05
 177    1.7134361811229e-05
 178    -8.6166298923789e-05
 179    1.8897540181169e-06
 180    -1.2003477273861e-06
 181    4.3215847049884e-06
 182    -1.6565722385218e-05
 183    -2.937643584235e-05
 184    8.3193725895016e-05
 185    4.6516975707379e-06
 186    -4.1474761390076e-06
 187    -5.5616463103913e-06
 188    -0.00013255681949955
 189    0.00010263939479077
 190    9.8335865057175e-05
 191    -8.4868676150853e-07
 192    -2.4895144158957e-06
 193    7.2995262015318e-06
 194    2.8922717136017e-06
 195    5.900339578201e-06
 196    1.1051451556579e-05
 197    1.7807805345244e-05
 198    -5.2900419142441e-06
 199    -1.9327182044267e-06
 200    3.0050692149222e-06
 201    1.1439955959653e-05
 202    -4.4179613584694e-07
 203    1.2858078756733e-05
 204     -9.3805144647e-06
 205    -1.1603889453825e-05
 206    -1.1068917030578e-05
 207    -7.0526331817037e-05
 208    1.5330171695059e-05
 209    -3.4164331570193e-06
 210    -1.5998549608485e-05
 211    5.8026858224335e-06
 212    2.3743418977894e-05
 213    -0.00027169474885013
 214    -1.8888460443569e-07
 215    3.3151941093419e-06
 216    2.2526465286758e-06
 217    -0.00019247560842931
 218    5.2831226484141e-05
 219    7.8483299719082e-05
 220    2.2870484039234e-06
 221    1.6425584753602e-05
 222    -5.1440458454747e-06
 223    -9.2529414307366e-06
 224    1.8475699451002e-06
 225    -2.7590627415057e-05
 226    -5.9021142776465e-05
 227    1.2795377915498e-05
 228    2.3191894234945e-06
 229    8.227017535758e-07
 230    -1.0279865448593e-05
 231    -5.210655117838e-05
 232    4.2882121495575e-06
 233    -6.7025614013897e-06
 234    -1.2281877992957e-05
 235    -1.0689994593645e-06
 236    -2.7545707033634e-06
 237    8.2740115148846e-05
 238    -2.4097499112941e-06
 239    -5.5808352444323e-07
 240    3.4042551738888e-06
 241    -3.9868330019757e-05
 242    6.4421501996823e-05
 243    -1.7215280735129e-05
 244    -2.0961674740436e-06
 245    -2.1684242856966e-06
 246    1.742107926092e-06
 247    9.8052976893022e-08
 248    -1.1051832076925e-06
 249    1.3751852637783e-05
 250    -1.1143022936392e-05
 251    4.756605409412e-06
 252    1.3316804878767e-06
 253    3.3251303874061e-07
 254    7.8689020525168e-06
 255    -6.0432221406941e-05
 256    -7.0406809030637e-07
 257    -5.0959987838582e-06
 258    1.205738336188e-06
 259    8.7941196195519e-06
 260    1.6211904529811e-05
 261    -7.1361984218999e-05
 262    3.0294368095203e-07