[Molden Format]
made by pyscf v[2.0.1]
[Atoms] (AU)
O   1   8     0.00000000000000     0.00000000000000     7.16229833633744
H   2   1     0.00000000000000     0.00000000000000     5.33889651443647
H   3   1    -0.05031916615174     1.78353065140343     7.53817003280410
O   4   8     0.00000000000000     0.00000000000000     2.31533471513237
C   5   6     0.00000000000000     0.00000000000000     0.00000000000000
C   6   6     2.01118073026938    -1.40227222164369    -1.50774939176400
C   7   6    -2.01249334291722     1.41331050329955    -1.50315905028694
H   8   1     3.32037363730244    -2.26721897153159    -0.13599698591495
C   9   6     3.45899267434009     0.28739631745591    -3.37437943254505
H   10   1     1.07662969841332    -2.94725144642667    -2.56541439481080
H   11   1    -2.67503415753480     0.18421555839588    -3.06194479365997
H   12   1    -1.07974048864772     3.03851734677796    -2.43674295017013
C   13   6    -4.21607110578555     2.32938802552922     0.11994162256091
H   14   1     4.24440173074564     1.93368664142019    -2.34976285512790
H   15   1     2.15020713235517     1.04714335134846    -4.81494497423699
C   16   6     5.60746363007797    -1.12419643481196    -4.70268606082550
H   17   1    -3.46838323670267     3.50951302338067     1.66946842715333
H   18   1    -5.11873485366228     0.68575958301209     1.04047743976495
C   19   6    -6.18314754751344     3.80909592987882    -1.39656589068747
H   20   1     6.93011263717176    -1.87550812453645    -3.26656317360070
C   21   6     7.06356622236532     0.52877932406334    -6.57829775293605
H   22   1     4.82318879258361    -2.78573437948532    -5.70504560381835
H   23   1    -6.91582688743803     2.61304780074712    -2.95074552451969
H   24   1    -5.26532430573853     5.45420349051338    -2.31005832200284
C   25   6    -8.39941882261433     4.73263980500213     0.21800571437956
H   26   1     7.83338371486801     2.19084139882824    -5.57093109900697
H   27   1     5.73544244039420     1.27376866537418    -8.01071492370229
C   28   6     9.21124858443101    -0.89699110072176    -7.88926949186242
H   29   1    -7.66272760055236     5.92277078003992     1.77035591474408
H   30   1    -9.31497248082589     3.08753015622020     1.12614408368786
C   31   6   -10.35481709231879     6.21833079391143    -1.30905206253246
H   32   1    10.58815905329501    -1.61074586756696    -6.49512691622620
H   33   1    10.23506248045667     0.32468009384095    -9.23072870921204
H   34   1     8.47665842847139    -2.53598436989925    -8.94921964622535
H   35   1    -9.48948872868064     7.90013588951020    -2.18823918416067
H   36   1   -11.93332513000955     6.86460487874102    -0.11255798845995
H   37   1   -11.15126291841033     5.04495968327630    -2.83849898862534
[GTO]
1 0
 s    8 1.00
                 11720  0.00070964594651845
                  1759  0.0054672722921914
                 400.8   0.027823118610189
                 113.7    0.10474773971146
                 37.03    0.28292084635691
                 13.27    0.44849523869833
                 5.025    0.27081688521277
                 1.013    0.01545029160744
 s    8 1.00
                 11720  -0.00031444341168873
                  1759  -0.0024821376810179
                 400.8  -0.012316355381583
                 113.7  -0.050538917343672
                 37.03   -0.13938490331632
                 13.27   -0.32507749481778
                 5.025   -0.22984830758785
                 1.013     1.0953793467883
 s    1 1.00
                0.3023                   1
 p    3 1.00
                  17.7   0.062679166281506
                 3.854    0.33353656587936
                 1.046    0.74123964163973
 p    1 1.00
                0.2753                   1
 d    1 1.00
                 1.185                   1

2 0
 s    3 1.00
                 13.01   0.033498726389998
                 1.962    0.23480080117413
                0.4446     0.8136829578829
 s    1 1.00
                 0.122                   1
 p    1 1.00
                 0.727                   1

3 0
 s    3 1.00
                 13.01   0.033498726389998
                 1.962    0.23480080117413
                0.4446     0.8136829578829
 s    1 1.00
                 0.122                   1
 p    1 1.00
                 0.727                   1

4 0
 s    8 1.00
                 11720  0.00070964594651845
                  1759  0.0054672722921914
                 400.8   0.027823118610189
                 113.7    0.10474773971146
                 37.03    0.28292084635691
                 13.27    0.44849523869833
                 5.025    0.27081688521277
                 1.013    0.01545029160744
 s    8 1.00
                 11720  -0.00031444341168873
                  1759  -0.0024821376810179
                 400.8  -0.012316355381583
                 113.7  -0.050538917343672
                 37.03   -0.13938490331632
                 13.27   -0.32507749481778
                 5.025   -0.22984830758785
                 1.013     1.0953793467883
 s    1 1.00
                0.3023                   1
 p    3 1.00
                  17.7   0.062679166281506
                 3.854    0.33353656587936
                 1.046    0.74123964163973
 p    1 1.00
                0.2753                   1
 d    1 1.00
                 1.185                   1

5 0
 s    8 1.00
                  6665  0.00069158396281299
                  1000  0.0053257961529341
                   228   0.027060721042034
                 64.71    0.10165684614077
                 21.06     0.2745748236174
                 7.495    0.44829431892377
                 2.797    0.28490261071525
                0.5215   0.015194859206082
 s    8 1.00
                  6665  -0.00029326965268655
                  1000  -0.0023180354739745
                   228  -0.011499786038565
                 64.71  -0.046826727009787
                 21.06   -0.12846616875047
                 7.495   -0.30126627246289
                 2.797   -0.25563070233011
                0.5215      1.093793361012
 s    1 1.00
                0.1596                   1
 p    3 1.00
                 9.439   0.056979251590039
                 2.002    0.31320721150073
                0.5456    0.76037674173753
 p    1 1.00
                0.1517                   1
 d    1 1.00
                  0.55                   1

6 0
 s    8 1.00
                  6665  0.00069158396281299
                  1000  0.0053257961529341
                   228   0.027060721042034
                 64.71    0.10165684614077
                 21.06     0.2745748236174
                 7.495    0.44829431892377
                 2.797    0.28490261071525
                0.5215   0.015194859206082
 s    8 1.00
                  6665  -0.00029326965268655
                  1000  -0.0023180354739745
                   228  -0.011499786038565
                 64.71  -0.046826727009787
                 21.06   -0.12846616875047
                 7.495   -0.30126627246289
                 2.797   -0.25563070233011
                0.5215      1.093793361012
 s    1 1.00
                0.1596                   1
 p    3 1.00
                 9.439   0.056979251590039
                 2.002    0.31320721150073
                0.5456    0.76037674173753
 p    1 1.00
                0.1517                   1
 d    1 1.00
                  0.55                   1

7 0
 s    8 1.00
                  6665  0.00069158396281299
                  1000  0.0053257961529341
                   228   0.027060721042034
                 64.71    0.10165684614077
                 21.06     0.2745748236174
                 7.495    0.44829431892377
                 2.797    0.28490261071525
                0.5215   0.015194859206082
 s    8 1.00
                  6665  -0.00029326965268655
                  1000  -0.0023180354739745
                   228  -0.011499786038565
                 64.71  -0.046826727009787
                 21.06   -0.12846616875047
                 7.495   -0.30126627246289
                 2.797   -0.25563070233011
                0.5215      1.093793361012
 s    1 1.00
                0.1596                   1
 p    3 1.00
                 9.439   0.056979251590039
                 2.002    0.31320721150073
                0.5456    0.76037674173753
 p    1 1.00
                0.1517                   1
 d    1 1.00
                  0.55                   1

8 0
 s    3 1.00
                 13.01   0.033498726389998
                 1.962    0.23480080117413
                0.4446     0.8136829578829
 s    1 1.00
                 0.122                   1
 p    1 1.00
                 0.727                   1

9 0
 s    8 1.00
                  6665  0.00069158396281299
                  1000  0.0053257961529341
                   228   0.027060721042034
                 64.71    0.10165684614077
                 21.06     0.2745748236174
                 7.495    0.44829431892377
                 2.797    0.28490261071525
                0.5215   0.015194859206082
 s    8 1.00
                  6665  -0.00029326965268655
                  1000  -0.0023180354739745
                   228  -0.011499786038565
                 64.71  -0.046826727009787
                 21.06   -0.12846616875047
                 7.495   -0.30126627246289
                 2.797   -0.25563070233011
                0.5215      1.093793361012
 s    1 1.00
                0.1596                   1
 p    3 1.00
                 9.439   0.056979251590039
                 2.002    0.31320721150073
                0.5456    0.76037674173753
 p    1 1.00
                0.1517                   1
 d    1 1.00
                  0.55                   1

10 0
 s    3 1.00
                 13.01   0.033498726389998
                 1.962    0.23480080117413
                0.4446     0.8136829578829
 s    1 1.00
                 0.122                   1
 p    1 1.00
                 0.727                   1

11 0
 s    3 1.00
                 13.01   0.033498726389998
                 1.962    0.23480080117413
                0.4446     0.8136829578829
 s    1 1.00
                 0.122                   1
 p    1 1.00
                 0.727                   1

12 0
 s    3 1.00
                 13.01   0.033498726389998
                 1.962    0.23480080117413
                0.4446     0.8136829578829
 s    1 1.00
                 0.122                   1
 p    1 1.00
                 0.727                   1

13 0
 s    8 1.00
                  6665  0.00069158396281299
                  1000  0.0053257961529341
                   228   0.027060721042034
                 64.71    0.10165684614077
                 21.06     0.2745748236174
                 7.495    0.44829431892377
                 2.797    0.28490261071525
                0.5215   0.015194859206082
 s    8 1.00
                  6665  -0.00029326965268655
                  1000  -0.0023180354739745
                   228  -0.011499786038565
                 64.71  -0.046826727009787
                 21.06   -0.12846616875047
                 7.495   -0.30126627246289
                 2.797   -0.25563070233011
                0.5215      1.093793361012
 s    1 1.00
                0.1596                   1
 p    3 1.00
                 9.439   0.056979251590039
                 2.002    0.31320721150073
                0.5456    0.76037674173753
 p    1 1.00
                0.1517                   1
 d    1 1.00
                  0.55                   1

14 0
 s    3 1.00
                 13.01   0.033498726389998
                 1.962    0.23480080117413
                0.4446     0.8136829578829
 s    1 1.00
                 0.122                   1
 p    1 1.00
                 0.727                   1

15 0
 s    3 1.00
                 13.01   0.033498726389998
                 1.962    0.23480080117413
                0.4446     0.8136829578829
 s    1 1.00
                 0.122                   1
 p    1 1.00
                 0.727                   1

16 0
 s    8 1.00
                  6665  0.00069158396281299
                  1000  0.0053257961529341
                   228   0.027060721042034
                 64.71    0.10165684614077
                 21.06     0.2745748236174
                 7.495    0.44829431892377
                 2.797    0.28490261071525
                0.5215   0.015194859206082
 s    8 1.00
                  6665  -0.00029326965268655
                  1000  -0.0023180354739745
                   228  -0.011499786038565
                 64.71  -0.046826727009787
                 21.06   -0.12846616875047
                 7.495   -0.30126627246289
                 2.797   -0.25563070233011
                0.5215      1.093793361012
 s    1 1.00
                0.1596                   1
 p    3 1.00
                 9.439   0.056979251590039
                 2.002    0.31320721150073
                0.5456    0.76037674173753
 p    1 1.00
                0.1517                   1
 d    1 1.00
                  0.55                   1

17 0
 s    3 1.00
                 13.01   0.033498726389998
                 1.962    0.23480080117413
                0.4446     0.8136829578829
 s    1 1.00
                 0.122                   1
 p    1 1.00
                 0.727                   1

18 0
 s    3 1.00
                 13.01   0.033498726389998
                 1.962    0.23480080117413
                0.4446     0.8136829578829
 s    1 1.00
                 0.122                   1
 p    1 1.00
                 0.727                   1

19 0
 s    8 1.00
                  6665  0.00069158396281299
                  1000  0.0053257961529341
                   228   0.027060721042034
                 64.71    0.10165684614077
                 21.06     0.2745748236174
                 7.495    0.44829431892377
                 2.797    0.28490261071525
                0.5215   0.015194859206082
 s    8 1.00
                  6665  -0.00029326965268655
                  1000  -0.0023180354739745
                   228  -0.011499786038565
                 64.71  -0.046826727009787
                 21.06   -0.12846616875047
                 7.495   -0.30126627246289
                 2.797   -0.25563070233011
                0.5215      1.093793361012
 s    1 1.00
                0.1596                   1
 p    3 1.00
                 9.439   0.056979251590039
                 2.002    0.31320721150073
                0.5456    0.76037674173753
 p    1 1.00
                0.1517                   1
 d    1 1.00
                  0.55                   1

20 0
 s    3 1.00
                 13.01   0.033498726389998
                 1.962    0.23480080117413
                0.4446     0.8136829578829
 s    1 1.00
                 0.122                   1
 p    1 1.00
                 0.727                   1

21 0
 s    8 1.00
                  6665  0.00069158396281299
                  1000  0.0053257961529341
                   228   0.027060721042034
                 64.71    0.10165684614077
                 21.06     0.2745748236174
                 7.495    0.44829431892377
                 2.797    0.28490261071525
                0.5215   0.015194859206082
 s    8 1.00
                  6665  -0.00029326965268655
                  1000  -0.0023180354739745
                   228  -0.011499786038565
                 64.71  -0.046826727009787
                 21.06   -0.12846616875047
                 7.495   -0.30126627246289
                 2.797   -0.25563070233011
                0.5215      1.093793361012
 s    1 1.00
                0.1596                   1
 p    3 1.00
                 9.439   0.056979251590039
                 2.002    0.31320721150073
                0.5456    0.76037674173753
 p    1 1.00
                0.1517                   1
 d    1 1.00
                  0.55                   1

22 0
 s    3 1.00
                 13.01   0.033498726389998
                 1.962    0.23480080117413
                0.4446     0.8136829578829
 s    1 1.00
                 0.122                   1
 p    1 1.00
                 0.727                   1

23 0
 s    3 1.00
                 13.01   0.033498726389998
                 1.962    0.23480080117413
                0.4446     0.8136829578829
 s    1 1.00
                 0.122                   1
 p    1 1.00
                 0.727                   1

24 0
 s    3 1.00
                 13.01   0.033498726389998
                 1.962    0.23480080117413
                0.4446     0.8136829578829
 s    1 1.00
                 0.122                   1
 p    1 1.00
                 0.727                   1

25 0
 s    8 1.00
                  6665  0.00069158396281299
                  1000  0.0053257961529341
                   228   0.027060721042034
                 64.71    0.10165684614077
                 21.06     0.2745748236174
                 7.495    0.44829431892377
                 2.797    0.28490261071525
                0.5215   0.015194859206082
 s    8 1.00
                  6665  -0.00029326965268655
                  1000  -0.0023180354739745
                   228  -0.011499786038565
                 64.71  -0.046826727009787
                 21.06   -0.12846616875047
                 7.495   -0.30126627246289
                 2.797   -0.25563070233011
                0.5215      1.093793361012
 s    1 1.00
                0.1596                   1
 p    3 1.00
                 9.439   0.056979251590039
                 2.002    0.31320721150073
                0.5456    0.76037674173753
 p    1 1.00
                0.1517                   1
 d    1 1.00
                  0.55                   1

26 0
 s    3 1.00
                 13.01   0.033498726389998
                 1.962    0.23480080117413
                0.4446     0.8136829578829
 s    1 1.00
                 0.122                   1
 p    1 1.00
                 0.727                   1

27 0
 s    3 1.00
                 13.01   0.033498726389998
                 1.962    0.23480080117413
                0.4446     0.8136829578829
 s    1 1.00
                 0.122                   1
 p    1 1.00
                 0.727                   1

28 0
 s    8 1.00
                  6665  0.00069158396281299
                  1000  0.0053257961529341
                   228   0.027060721042034
                 64.71    0.10165684614077
                 21.06     0.2745748236174
                 7.495    0.44829431892377
                 2.797    0.28490261071525
                0.5215   0.015194859206082
 s    8 1.00
                  6665  -0.00029326965268655
                  1000  -0.0023180354739745
                   228  -0.011499786038565
                 64.71  -0.046826727009787
                 21.06   -0.12846616875047
                 7.495   -0.30126627246289
                 2.797   -0.25563070233011
                0.5215      1.093793361012
 s    1 1.00
                0.1596                   1
 p    3 1.00
                 9.439   0.056979251590039
                 2.002    0.31320721150073
                0.5456    0.76037674173753
 p    1 1.00
                0.1517                   1
 d    1 1.00
                  0.55                   1

29 0
 s    3 1.00
                 13.01   0.033498726389998
                 1.962    0.23480080117413
                0.4446     0.8136829578829
 s    1 1.00
                 0.122                   1
 p    1 1.00
                 0.727                   1

30 0
 s    3 1.00
                 13.01   0.033498726389998
                 1.962    0.23480080117413
                0.4446     0.8136829578829
 s    1 1.00
                 0.122                   1
 p    1 1.00
                 0.727                   1

31 0
 s    8 1.00
                  6665  0.00069158396281299
                  1000  0.0053257961529341
                   228   0.027060721042034
                 64.71    0.10165684614077
                 21.06     0.2745748236174
                 7.495    0.44829431892377
                 2.797    0.28490261071525
                0.5215   0.015194859206082
 s    8 1.00
                  6665  -0.00029326965268655
                  1000  -0.0023180354739745
                   228  -0.011499786038565
                 64.71  -0.046826727009787
                 21.06   -0.12846616875047
                 7.495   -0.30126627246289
                 2.797   -0.25563070233011
                0.5215      1.093793361012
 s    1 1.00
                0.1596                   1
 p    3 1.00
                 9.439   0.056979251590039
                 2.002    0.31320721150073
                0.5456    0.76037674173753
 p    1 1.00
                0.1517                   1
 d    1 1.00
                  0.55                   1

32 0
 s    3 1.00
                 13.01   0.033498726389998
                 1.962    0.23480080117413
                0.4446     0.8136829578829
 s    1 1.00
                 0.122                   1
 p    1 1.00
                 0.727                   1

33 0
 s    3 1.00
                 13.01   0.033498726389998
                 1.962    0.23480080117413
                0.4446     0.8136829578829
 s    1 1.00
                 0.122                   1
 p    1 1.00
                 0.727                   1

34 0
 s    3 1.00
                 13.01   0.033498726389998
                 1.962    0.23480080117413
                0.4446     0.8136829578829
 s    1 1.00
                 0.122                   1
 p    1 1.00
                 0.727                   1

35 0
 s    3 1.00
                 13.01   0.033498726389998
                 1.962    0.23480080117413
                0.4446     0.8136829578829
 s    1 1.00
                 0.122                   1
 p    1 1.00
                 0.727                   1

36 0
 s    3 1.00
                 13.01   0.033498726389998
                 1.962    0.23480080117413
                0.4446     0.8136829578829
 s    1 1.00
                 0.122                   1
 p    1 1.00
                 0.727                   1

37 0
 s    3 1.00
                 13.01   0.033498726389998
                 1.962    0.23480080117413
                0.4446     0.8136829578829
 s    1 1.00
                 0.122                   1
 p    1 1.00
                 0.727                   1

[5d]
[7f]
[9g]

[MO]
 Sym= A
 Ene=               0
 Spin= Alpha
 Occup=    1.00000
   1    6.5568795896456e-05
   2    1.0323294035129e-05
   3    -3.6043427102464e-05
   4    -7.9354390511579e-07
   5    -2.5501906053652e-06
   6    -8.6150869376955e-06
   7    1.2165500601353e-06
   8    1.7813442207798e-05
   9    -2.9473615393371e-05
  10    1.5652194975476e-05
  11    3.1760141839132e-07
  12    -2.9300698519547e-06
  13    -2.9052940410133e-06
  14    -1.0054899341802e-07
  15    3.6088508159095e-05
  16    0.00018804472598286
  17    1.3447488420655e-06
  18    -4.0693457529957e-06
  19    -3.5101197933003e-05
  20    -1.3856607948467e-05
  21    -1.9102821429256e-05
  22    -1.9778398101834e-07
  23    -4.0166220326445e-06
  24    9.3531530652779e-06
  25      -1.0014027315121
  26    -0.0020697415616387
  27    0.0070477224064483
  28    5.6461344547339e-06
  29    -1.5249571282529e-05
  30     0.001597579468387
  31    -4.5855138257339e-07
  32    4.6484151769237e-06
  33    -0.0020618051971162
  34    -0.00010892147542926
  35    2.7076693569473e-06
  36    -1.3927536788327e-06
  37    -6.3698944386387e-05
  38    0.00016621945422209
  39    -0.00029929817007712
  40    -0.00042654646374671
  41    -0.0016424639622903
  42    -1.6494259327763e-05
  43    1.0125816642898e-05
  44    -4.6683748475901e-05
  45    -8.2045358627928e-05
  46    6.5741212632803e-05
  47    -0.0037719758481358
  48    0.00048500151569227
  49    8.0808247090226e-06
  50    -2.4625710983865e-06
  51    -3.1304429683701e-05
  52    0.00011413202708538
  53    8.3808945996761e-05
  54    0.00016416212420109
  55    -0.0013977030723949
  56    -7.9267365177985e-05
  57    7.2348409335304e-06
  58    3.3624374285826e-05
  59    0.00043014494158912
  60    -0.00048598905279035
  61     0.001004925046502
  62    0.00011505951645472
  63    -0.00015021496620411
  64    0.00014410579072807
  65    -5.3853019112091e-05
  66    0.00012531226156644
  67    3.6739430929297e-05
  68     9.23712408798e-05
  69    -0.00051427030219807
  70    6.3027625426987e-05
  71    -4.2255425654364e-05
  72    6.171539075942e-05
  73    -0.0010299727393966
  74    0.00079109763962185
  75    0.00068429256794582
  76    0.00013849167731762
  77    0.00012214990004651
  78    -9.0053567501146e-05
  79    -5.7951106796597e-05
  80    0.00014854853809768
  81    5.6664874164679e-05
  82    -0.00022384455814766
  83    -6.7867336586492e-05
  84    4.9811388650893e-05
  85    -4.635044330628e-05
  86    -2.4874928526302e-05
  87    -4.8711055259681e-05
  88    0.00063055588331148
  89    1.5511732128042e-05
  90    1.7434450680511e-05
  91    -1.0994017846624e-05
  92    -0.00026551086528087
  93    -0.00066290827670459
  94    9.6204249240948e-06
  95    -1.956866011736e-05
  96    -1.160381771841e-05
  97    -8.4163829429585e-06
  98    1.8547874555911e-05
  99    5.0338134411135e-05
 100    4.2558650028353e-05
 101    0.00016963286205278
 102    -4.8303327101319e-06
 103    1.1055716028174e-05
 104    -7.8955794965847e-05
 105    2.0152294062795e-05
 106    0.00021050981734616
 107    6.3535295289888e-05
 108    -6.4387159555223e-06
 109    -7.7991186461359e-05
 110    -7.9447159109132e-05
 111    7.0020865172545e-05
 112    4.3425593649677e-05
 113    -2.102396531026e-05
 114    -7.2858918628087e-05
 115    4.8711371371146e-05
 116    9.9158645040573e-05
 117    -0.00087579046038335
 118    2.3445919699634e-05
 119    1.1972128355518e-05
 120    -3.1710602147851e-05
 121    -0.00028271178526074
 122    -4.2399511722632e-05
 123    0.00016425171285987
 124    5.5431098388633e-06
 125    -1.0048463845645e-05
 126    -1.4851324194389e-05
 127    3.2674595604449e-05
 128    -5.2190973258572e-05
 129    2.0090819790712e-05
 130    0.0003449413240822
 131    -8.3894348884046e-06
 132    -5.9740654777041e-06
 133    -2.9935669102226e-05
 134    -2.5137906858911e-05
 135    0.00011746107173171
 136    1.4124246650069e-05
 137    2.5788468533089e-05
 138    2.785531957944e-05
 139    2.2297565828593e-05
 140    4.0655322237958e-05
 141    -0.00031191635787231
 142    -7.5851703676882e-06
 143    3.2875325742962e-06
 144    6.0041080219349e-06
 145    0.00023099915214409
 146    -6.2779880944184e-05
 147    -5.7927744378379e-05
 148    2.6094920730703e-06
 149    -3.5524695998629e-06
 150    5.1296734514607e-06
 151    -1.299842003006e-05
 152    4.6174528101778e-06
 153    9.9238255284989e-05
 154    9.4143534991886e-05
 155    2.667701747537e-05
 156    -2.7590205699198e-05
 157    -1.9635794716592e-05
 158    2.6649188549003e-05
 159    8.6578201170928e-05
 160    5.9447997544394e-05
 161    7.9497654683861e-06
 162    -7.2320745188905e-06
 163    3.835532202059e-07
 164    2.6936455945536e-06
 165    0.00027714726438095
 166    1.6980765842801e-05
 167    -1.4039674614589e-05
 168    -6.1256012839811e-06
 169    -0.00023188084287905
 170    0.00020972158180589
 171    0.00014537382763664
 172    2.2033068863736e-06
 173    -9.8350581150348e-06
 174    1.3646861148896e-05
 175    -3.0689429995779e-06
 176    1.7769593404544e-05
 177    1.6940855098356e-05
 178    -8.7413721956379e-05
 179    1.4375404775365e-06
 180    -1.4322022027534e-06
 181    4.4973023109931e-06
 182    -1.6601464040692e-05
 183    -2.940506508227e-05
 184    8.3981648501017e-05
 185    4.6286428602998e-06
 186    -4.1455131551047e-06
 187    -5.4352852911858e-06
 188    -0.00013299399834215
 189    0.0001023632289079
 190    9.4596765530003e-05
 191    -1.1183011587617e-06
 192    -2.4855849749987e-06
 193    7.5291092573035e-06
 194    3.0164000326487e-06
 195    5.9065656372337e-06
 196    1.267448217759e-05
 197    1.9590410672505e-05
 198    -5.6338906139818e-06
 199    -1.9337084838849e-06
 200    3.0846188833751e-06
 201    1.2724792332715e-05
 202    -6.6652986517571e-07
 203    1.3450066411572e-05
 204    -9.7653048702889e-06
 205    -1.1764583688538e-05
 206    -1.0122454754273e-05
 207    -7.0459328694444e-05
 208    1.5967361200749e-05
 209    -3.8176066842175e-06
 210    -1.6134479907272e-05
 211    5.673947775641e-06
 212    2.401274743322e-05
 213    -0.00027809955578693
 214    -3.6031645972486e-07
 215    3.4453169610084e-06
 216    2.0041227618362e-06
 217    -0.00019255756557267
 218    5.1954946695039e-05
 219    7.940314437286e-05
 220    2.3259989430132e-06
 221    1.6414611964563e-05
 222    -5.1503837016914e-06
 223    -9.2873057007907e-06
 224    1.8634251250093e-06
 225    -2.7363057894842e-05
 226    -5.8276502138824e-05
 227    1.276993927091e-05
 228    2.2827689125141e-06
 229    9.5689619320964e-07
 230    -1.0461985221072e-05
 231    -5.4506888097507e-05
 232    4.179863386404e-06
 233    -6.6073951949898e-06
 234    -1.2342335779413e-05
 235    -6.9495353647607e-07
 236    -2.1151678860152e-06
 237    7.9904392582823e-05
 238    -2.4206632607433e-06
 239    -6.3367246216485e-07
 240    3.4834917438872e-06
 241    -3.7697201659725e-05
 242    6.4974328302088e-05
 243    -1.8504177898707e-05
 244    -2.0430138960304e-06
 245    -2.0650330379185e-06
 246    1.8185684606739e-06
 247    -7.7163807648089e-08
 248    -9.604481345025e-07
 249    1.3546354181616e-05
 250    -9.8162859919995e-06
 251    4.709113986368e-06
 252    1.3108920389408e-06
 253    1.265205439854e-07
 254    7.5872624233631e-06
 255    -5.9625798407005e-05
 256    -6.8622527501341e-07
 257    -4.9938536656264e-06
 258    1.0749061822749e-06
 259    9.2707120323664e-06
 260    1.6938909725653e-05
 261    -7.1335820515429e-05
 262    5.1915879275583e-07