[Molden Format]
made by pyscf v[2.0.1]
[Atoms] (AU)
O   1   8     0.00000000000000     0.00000000000000    11.69764103529358
H   2   1     0.00000000000000     0.00000000000000     9.87423921339262
H   3   1    -0.05031916615174     1.78353065140343    12.07351273176025
O   4   8     0.00000000000000     0.00000000000000     2.31533471513237
C   5   6     0.00000000000000     0.00000000000000     0.00000000000000
C   6   6     2.01118073026938    -1.40227222164369    -1.50774939176400
C   7   6    -2.01249334291722     1.41331050329955    -1.50315905028694
H   8   1     3.32037363730244    -2.26721897153159    -0.13599698591495
C   9   6     3.45899267434009     0.28739631745591    -3.37437943254505
H   10   1     1.07662969841332    -2.94725144642667    -2.56541439481080
H   11   1    -2.67503415753480     0.18421555839588    -3.06194479365997
H   12   1    -1.07974048864772     3.03851734677796    -2.43674295017013
C   13   6    -4.21607110578555     2.32938802552922     0.11994162256091
H   14   1     4.24440173074564     1.93368664142019    -2.34976285512790
H   15   1     2.15020713235517     1.04714335134846    -4.81494497423699
C   16   6     5.60746363007797    -1.12419643481196    -4.70268606082550
H   17   1    -3.46838323670267     3.50951302338067     1.66946842715333
H   18   1    -5.11873485366228     0.68575958301209     1.04047743976495
C   19   6    -6.18314754751344     3.80909592987882    -1.39656589068747
H   20   1     6.93011263717176    -1.87550812453645    -3.26656317360070
C   21   6     7.06356622236532     0.52877932406334    -6.57829775293605
H   22   1     4.82318879258361    -2.78573437948532    -5.70504560381835
H   23   1    -6.91582688743803     2.61304780074712    -2.95074552451969
H   24   1    -5.26532430573853     5.45420349051338    -2.31005832200284
C   25   6    -8.39941882261433     4.73263980500213     0.21800571437956
H   26   1     7.83338371486801     2.19084139882824    -5.57093109900697
H   27   1     5.73544244039420     1.27376866537418    -8.01071492370229
C   28   6     9.21124858443101    -0.89699110072176    -7.88926949186242
H   29   1    -7.66272760055236     5.92277078003992     1.77035591474408
H   30   1    -9.31497248082589     3.08753015622020     1.12614408368786
C   31   6   -10.35481709231879     6.21833079391143    -1.30905206253246
H   32   1    10.58815905329501    -1.61074586756696    -6.49512691622620
H   33   1    10.23506248045667     0.32468009384095    -9.23072870921204
H   34   1     8.47665842847139    -2.53598436989925    -8.94921964622535
H   35   1    -9.48948872868064     7.90013588951020    -2.18823918416067
H   36   1   -11.93332513000955     6.86460487874102    -0.11255798845995
H   37   1   -11.15126291841033     5.04495968327630    -2.83849898862534
[GTO]
1 0
 s    8 1.00
                 11720  0.00070964594651845
                  1759  0.0054672722921914
                 400.8   0.027823118610189
                 113.7    0.10474773971146
                 37.03    0.28292084635691
                 13.27    0.44849523869833
                 5.025    0.27081688521277
                 1.013    0.01545029160744
 s    8 1.00
                 11720  -0.00031444341168873
                  1759  -0.0024821376810179
                 400.8  -0.012316355381583
                 113.7  -0.050538917343672
                 37.03   -0.13938490331632
                 13.27   -0.32507749481778
                 5.025   -0.22984830758785
                 1.013     1.0953793467883
 s    1 1.00
                0.3023                   1
 p    3 1.00
                  17.7   0.062679166281506
                 3.854    0.33353656587936
                 1.046    0.74123964163973
 p    1 1.00
                0.2753                   1
 d    1 1.00
                 1.185                   1

2 0
 s    3 1.00
                 13.01   0.033498726389998
                 1.962    0.23480080117413
                0.4446     0.8136829578829
 s    1 1.00
                 0.122                   1
 p    1 1.00
                 0.727                   1

3 0
 s    3 1.00
                 13.01   0.033498726389998
                 1.962    0.23480080117413
                0.4446     0.8136829578829
 s    1 1.00
                 0.122                   1
 p    1 1.00
                 0.727                   1

4 0
 s    8 1.00
                 11720  0.00070964594651845
                  1759  0.0054672722921914
                 400.8   0.027823118610189
                 113.7    0.10474773971146
                 37.03    0.28292084635691
                 13.27    0.44849523869833
                 5.025    0.27081688521277
                 1.013    0.01545029160744
 s    8 1.00
                 11720  -0.00031444341168873
                  1759  -0.0024821376810179
                 400.8  -0.012316355381583
                 113.7  -0.050538917343672
                 37.03   -0.13938490331632
                 13.27   -0.32507749481778
                 5.025   -0.22984830758785
                 1.013     1.0953793467883
 s    1 1.00
                0.3023                   1
 p    3 1.00
                  17.7   0.062679166281506
                 3.854    0.33353656587936
                 1.046    0.74123964163973
 p    1 1.00
                0.2753                   1
 d    1 1.00
                 1.185                   1

5 0
 s    8 1.00
                  6665  0.00069158396281299
                  1000  0.0053257961529341
                   228   0.027060721042034
                 64.71    0.10165684614077
                 21.06     0.2745748236174
                 7.495    0.44829431892377
                 2.797    0.28490261071525
                0.5215   0.015194859206082
 s    8 1.00
                  6665  -0.00029326965268655
                  1000  -0.0023180354739745
                   228  -0.011499786038565
                 64.71  -0.046826727009787
                 21.06   -0.12846616875047
                 7.495   -0.30126627246289
                 2.797   -0.25563070233011
                0.5215      1.093793361012
 s    1 1.00
                0.1596                   1
 p    3 1.00
                 9.439   0.056979251590039
                 2.002    0.31320721150073
                0.5456    0.76037674173753
 p    1 1.00
                0.1517                   1
 d    1 1.00
                  0.55                   1

6 0
 s    8 1.00
                  6665  0.00069158396281299
                  1000  0.0053257961529341
                   228   0.027060721042034
                 64.71    0.10165684614077
                 21.06     0.2745748236174
                 7.495    0.44829431892377
                 2.797    0.28490261071525
                0.5215   0.015194859206082
 s    8 1.00
                  6665  -0.00029326965268655
                  1000  -0.0023180354739745
                   228  -0.011499786038565
                 64.71  -0.046826727009787
                 21.06   -0.12846616875047
                 7.495   -0.30126627246289
                 2.797   -0.25563070233011
                0.5215      1.093793361012
 s    1 1.00
                0.1596                   1
 p    3 1.00
                 9.439   0.056979251590039
                 2.002    0.31320721150073
                0.5456    0.76037674173753
 p    1 1.00
                0.1517                   1
 d    1 1.00
                  0.55                   1

7 0
 s    8 1.00
                  6665  0.00069158396281299
                  1000  0.0053257961529341
                   228   0.027060721042034
                 64.71    0.10165684614077
                 21.06     0.2745748236174
                 7.495    0.44829431892377
                 2.797    0.28490261071525
                0.5215   0.015194859206082
 s    8 1.00
                  6665  -0.00029326965268655
                  1000  -0.0023180354739745
                   228  -0.011499786038565
                 64.71  -0.046826727009787
                 21.06   -0.12846616875047
                 7.495   -0.30126627246289
                 2.797   -0.25563070233011
                0.5215      1.093793361012
 s    1 1.00
                0.1596                   1
 p    3 1.00
                 9.439   0.056979251590039
                 2.002    0.31320721150073
                0.5456    0.76037674173753
 p    1 1.00
                0.1517                   1
 d    1 1.00
                  0.55                   1

8 0
 s    3 1.00
                 13.01   0.033498726389998
                 1.962    0.23480080117413
                0.4446     0.8136829578829
 s    1 1.00
                 0.122                   1
 p    1 1.00
                 0.727                   1

9 0
 s    8 1.00
                  6665  0.00069158396281299
                  1000  0.0053257961529341
                   228   0.027060721042034
                 64.71    0.10165684614077
                 21.06     0.2745748236174
                 7.495    0.44829431892377
                 2.797    0.28490261071525
                0.5215   0.015194859206082
 s    8 1.00
                  6665  -0.00029326965268655
                  1000  -0.0023180354739745
                   228  -0.011499786038565
                 64.71  -0.046826727009787
                 21.06   -0.12846616875047
                 7.495   -0.30126627246289
                 2.797   -0.25563070233011
                0.5215      1.093793361012
 s    1 1.00
                0.1596                   1
 p    3 1.00
                 9.439   0.056979251590039
                 2.002    0.31320721150073
                0.5456    0.76037674173753
 p    1 1.00
                0.1517                   1
 d    1 1.00
                  0.55                   1

10 0
 s    3 1.00
                 13.01   0.033498726389998
                 1.962    0.23480080117413
                0.4446     0.8136829578829
 s    1 1.00
                 0.122                   1
 p    1 1.00
                 0.727                   1

11 0
 s    3 1.00
                 13.01   0.033498726389998
                 1.962    0.23480080117413
                0.4446     0.8136829578829
 s    1 1.00
                 0.122                   1
 p    1 1.00
                 0.727                   1

12 0
 s    3 1.00
                 13.01   0.033498726389998
                 1.962    0.23480080117413
                0.4446     0.8136829578829
 s    1 1.00
                 0.122                   1
 p    1 1.00
                 0.727                   1

13 0
 s    8 1.00
                  6665  0.00069158396281299
                  1000  0.0053257961529341
                   228   0.027060721042034
                 64.71    0.10165684614077
                 21.06     0.2745748236174
                 7.495    0.44829431892377
                 2.797    0.28490261071525
                0.5215   0.015194859206082
 s    8 1.00
                  6665  -0.00029326965268655
                  1000  -0.0023180354739745
                   228  -0.011499786038565
                 64.71  -0.046826727009787
                 21.06   -0.12846616875047
                 7.495   -0.30126627246289
                 2.797   -0.25563070233011
                0.5215      1.093793361012
 s    1 1.00
                0.1596                   1
 p    3 1.00
                 9.439   0.056979251590039
                 2.002    0.31320721150073
                0.5456    0.76037674173753
 p    1 1.00
                0.1517                   1
 d    1 1.00
                  0.55                   1

14 0
 s    3 1.00
                 13.01   0.033498726389998
                 1.962    0.23480080117413
                0.4446     0.8136829578829
 s    1 1.00
                 0.122                   1
 p    1 1.00
                 0.727                   1

15 0
 s    3 1.00
                 13.01   0.033498726389998
                 1.962    0.23480080117413
                0.4446     0.8136829578829
 s    1 1.00
                 0.122                   1
 p    1 1.00
                 0.727                   1

16 0
 s    8 1.00
                  6665  0.00069158396281299
                  1000  0.0053257961529341
                   228   0.027060721042034
                 64.71    0.10165684614077
                 21.06     0.2745748236174
                 7.495    0.44829431892377
                 2.797    0.28490261071525
                0.5215   0.015194859206082
 s    8 1.00
                  6665  -0.00029326965268655
                  1000  -0.0023180354739745
                   228  -0.011499786038565
                 64.71  -0.046826727009787
                 21.06   -0.12846616875047
                 7.495   -0.30126627246289
                 2.797   -0.25563070233011
                0.5215      1.093793361012
 s    1 1.00
                0.1596                   1
 p    3 1.00
                 9.439   0.056979251590039
                 2.002    0.31320721150073
                0.5456    0.76037674173753
 p    1 1.00
                0.1517                   1
 d    1 1.00
                  0.55                   1

17 0
 s    3 1.00
                 13.01   0.033498726389998
                 1.962    0.23480080117413
                0.4446     0.8136829578829
 s    1 1.00
                 0.122                   1
 p    1 1.00
                 0.727                   1

18 0
 s    3 1.00
                 13.01   0.033498726389998
                 1.962    0.23480080117413
                0.4446     0.8136829578829
 s    1 1.00
                 0.122                   1
 p    1 1.00
                 0.727                   1

19 0
 s    8 1.00
                  6665  0.00069158396281299
                  1000  0.0053257961529341
                   228   0.027060721042034
                 64.71    0.10165684614077
                 21.06     0.2745748236174
                 7.495    0.44829431892377
                 2.797    0.28490261071525
                0.5215   0.015194859206082
 s    8 1.00
                  6665  -0.00029326965268655
                  1000  -0.0023180354739745
                   228  -0.011499786038565
                 64.71  -0.046826727009787
                 21.06   -0.12846616875047
                 7.495   -0.30126627246289
                 2.797   -0.25563070233011
                0.5215      1.093793361012
 s    1 1.00
                0.1596                   1
 p    3 1.00
                 9.439   0.056979251590039
                 2.002    0.31320721150073
                0.5456    0.76037674173753
 p    1 1.00
                0.1517                   1
 d    1 1.00
                  0.55                   1

20 0
 s    3 1.00
                 13.01   0.033498726389998
                 1.962    0.23480080117413
                0.4446     0.8136829578829
 s    1 1.00
                 0.122                   1
 p    1 1.00
                 0.727                   1

21 0
 s    8 1.00
                  6665  0.00069158396281299
                  1000  0.0053257961529341
                   228   0.027060721042034
                 64.71    0.10165684614077
                 21.06     0.2745748236174
                 7.495    0.44829431892377
                 2.797    0.28490261071525
                0.5215   0.015194859206082
 s    8 1.00
                  6665  -0.00029326965268655
                  1000  -0.0023180354739745
                   228  -0.011499786038565
                 64.71  -0.046826727009787
                 21.06   -0.12846616875047
                 7.495   -0.30126627246289
                 2.797   -0.25563070233011
                0.5215      1.093793361012
 s    1 1.00
                0.1596                   1
 p    3 1.00
                 9.439   0.056979251590039
                 2.002    0.31320721150073
                0.5456    0.76037674173753
 p    1 1.00
                0.1517                   1
 d    1 1.00
                  0.55                   1

22 0
 s    3 1.00
                 13.01   0.033498726389998
                 1.962    0.23480080117413
                0.4446     0.8136829578829
 s    1 1.00
                 0.122                   1
 p    1 1.00
                 0.727                   1

23 0
 s    3 1.00
                 13.01   0.033498726389998
                 1.962    0.23480080117413
                0.4446     0.8136829578829
 s    1 1.00
                 0.122                   1
 p    1 1.00
                 0.727                   1

24 0
 s    3 1.00
                 13.01   0.033498726389998
                 1.962    0.23480080117413
                0.4446     0.8136829578829
 s    1 1.00
                 0.122                   1
 p    1 1.00
                 0.727                   1

25 0
 s    8 1.00
                  6665  0.00069158396281299
                  1000  0.0053257961529341
                   228   0.027060721042034
                 64.71    0.10165684614077
                 21.06     0.2745748236174
                 7.495    0.44829431892377
                 2.797    0.28490261071525
                0.5215   0.015194859206082
 s    8 1.00
                  6665  -0.00029326965268655
                  1000  -0.0023180354739745
                   228  -0.011499786038565
                 64.71  -0.046826727009787
                 21.06   -0.12846616875047
                 7.495   -0.30126627246289
                 2.797   -0.25563070233011
                0.5215      1.093793361012
 s    1 1.00
                0.1596                   1
 p    3 1.00
                 9.439   0.056979251590039
                 2.002    0.31320721150073
                0.5456    0.76037674173753
 p    1 1.00
                0.1517                   1
 d    1 1.00
                  0.55                   1

26 0
 s    3 1.00
                 13.01   0.033498726389998
                 1.962    0.23480080117413
                0.4446     0.8136829578829
 s    1 1.00
                 0.122                   1
 p    1 1.00
                 0.727                   1

27 0
 s    3 1.00
                 13.01   0.033498726389998
                 1.962    0.23480080117413
                0.4446     0.8136829578829
 s    1 1.00
                 0.122                   1
 p    1 1.00
                 0.727                   1

28 0
 s    8 1.00
                  6665  0.00069158396281299
                  1000  0.0053257961529341
                   228   0.027060721042034
                 64.71    0.10165684614077
                 21.06     0.2745748236174
                 7.495    0.44829431892377
                 2.797    0.28490261071525
                0.5215   0.015194859206082
 s    8 1.00
                  6665  -0.00029326965268655
                  1000  -0.0023180354739745
                   228  -0.011499786038565
                 64.71  -0.046826727009787
                 21.06   -0.12846616875047
                 7.495   -0.30126627246289
                 2.797   -0.25563070233011
                0.5215      1.093793361012
 s    1 1.00
                0.1596                   1
 p    3 1.00
                 9.439   0.056979251590039
                 2.002    0.31320721150073
                0.5456    0.76037674173753
 p    1 1.00
                0.1517                   1
 d    1 1.00
                  0.55                   1

29 0
 s    3 1.00
                 13.01   0.033498726389998
                 1.962    0.23480080117413
                0.4446     0.8136829578829
 s    1 1.00
                 0.122                   1
 p    1 1.00
                 0.727                   1

30 0
 s    3 1.00
                 13.01   0.033498726389998
                 1.962    0.23480080117413
                0.4446     0.8136829578829
 s    1 1.00
                 0.122                   1
 p    1 1.00
                 0.727                   1

31 0
 s    8 1.00
                  6665  0.00069158396281299
                  1000  0.0053257961529341
                   228   0.027060721042034
                 64.71    0.10165684614077
                 21.06     0.2745748236174
                 7.495    0.44829431892377
                 2.797    0.28490261071525
                0.5215   0.015194859206082
 s    8 1.00
                  6665  -0.00029326965268655
                  1000  -0.0023180354739745
                   228  -0.011499786038565
                 64.71  -0.046826727009787
                 21.06   -0.12846616875047
                 7.495   -0.30126627246289
                 2.797   -0.25563070233011
                0.5215      1.093793361012
 s    1 1.00
                0.1596                   1
 p    3 1.00
                 9.439   0.056979251590039
                 2.002    0.31320721150073
                0.5456    0.76037674173753
 p    1 1.00
                0.1517                   1
 d    1 1.00
                  0.55                   1

32 0
 s    3 1.00
                 13.01   0.033498726389998
                 1.962    0.23480080117413
                0.4446     0.8136829578829
 s    1 1.00
                 0.122                   1
 p    1 1.00
                 0.727                   1

33 0
 s    3 1.00
                 13.01   0.033498726389998
                 1.962    0.23480080117413
                0.4446     0.8136829578829
 s    1 1.00
                 0.122                   1
 p    1 1.00
                 0.727                   1

34 0
 s    3 1.00
                 13.01   0.033498726389998
                 1.962    0.23480080117413
                0.4446     0.8136829578829
 s    1 1.00
                 0.122                   1
 p    1 1.00
                 0.727                   1

35 0
 s    3 1.00
                 13.01   0.033498726389998
                 1.962    0.23480080117413
                0.4446     0.8136829578829
 s    1 1.00
                 0.122                   1
 p    1 1.00
                 0.727                   1

36 0
 s    3 1.00
                 13.01   0.033498726389998
                 1.962    0.23480080117413
                0.4446     0.8136829578829
 s    1 1.00
                 0.122                   1
 p    1 1.00
                 0.727                   1

37 0
 s    3 1.00
                 13.01   0.033498726389998
                 1.962    0.23480080117413
                0.4446     0.8136829578829
 s    1 1.00
                 0.122                   1
 p    1 1.00
                 0.727                   1

[5d]
[7f]
[9g]

[MO]
 Sym= A
 Ene=               0
 Spin= Alpha
 Occup=    1.00000
   1    -1.8446168855039e-05
   2    -8.1102842984214e-06
   3    3.2736281883751e-05
   4    -3.2371408273388e-08
   5    1.2337674537548e-06
   6    -3.5540952169464e-07
   7    2.2639355104951e-07
   8    -8.1620850913499e-06
   9    -2.5479630735062e-05
  10    4.8572387624472e-06
  11    9.6775615048052e-09
  12    -3.8839143703792e-07
  13    4.2099896543965e-07
  14    2.3411489954435e-08
  15    -3.6295957132888e-06
  16    -5.0089262992679e-05
  17    -1.879804483262e-08
  18    5.1094653323463e-07
  19    -1.5693811264824e-05
  20    -1.7062794554589e-06
  21    2.1401226790384e-05
  22    8.1981718050855e-08
  23    -2.860666645688e-06
  24    6.6504839145589e-07
  25       1.0013572069012
  26    0.0019416155167205
  27    -0.0067486206307737
  28    -4.450759569668e-06
  29    7.1479795020121e-06
  30    -0.0016625117635913
  31    -4.0046545833265e-07
  32    -9.8998452855218e-07
  33    0.0018023931923511
  34    0.00013187102865942
  35    -3.054242076997e-06
  36    1.298170682178e-06
  37    6.7819399967598e-05
  38    -0.00017667323301307
  39     0.000270628261256
  40    0.0003653653792066
  41    0.0013851796726005
  42    1.4711057218906e-05
  43    -9.9041614431768e-06
  44    -1.7541681816353e-05
  45    8.2636119896348e-05
  46    -6.3159948682408e-05
  47    0.0035222147883755
  48    -0.00054301193971963
  49    -8.6362196716918e-06
  50    2.4898858985874e-06
  51    2.8367696135258e-05
  52    -0.00010649450715745
  53    -8.5129830934563e-05
  54    -0.00016653594811778
  55    0.0013644471643682
  56    7.8118250687484e-05
  57    -7.5382896872406e-06
  58    -3.6499229670286e-05
  59    -0.00042316002338091
  60    0.00047534262266357
  61    -0.00091670624987567
  62    -0.00011815090762756
  63    0.00015034185175581
  64    -0.00014285085414438
  65    5.5373521334319e-05
  66    -0.00013096084004749
  67    -4.0789147641177e-05
  68    -9.9374566444585e-05
  69    0.00051092128602292
  70    -6.059256277272e-05
  71    3.9594836328441e-05
  72    -6.2848581664505e-05
  73    0.00099659447481686
  74    -0.00076850995698897
  75    -0.00063121278518869
  76    -0.0001417285411955
  77    -0.00012061252293431
  78    8.9665262286128e-05
  79    5.9350171780776e-05
  80    -0.00015273396499601
  81    -6.5807896526192e-05
  82    0.00020578256474716
  83    6.5773945749881e-05
  84    -4.8295281751699e-05
  85    4.9339452121567e-05
  86    2.4974632273436e-05
  87    4.8946602121818e-05
  88    -0.00060044453195832
  89    -1.5920746402202e-05
  90    -1.7102923824622e-05
  91    1.2302520801135e-05
  92    0.0002553542226592
  93    0.00061958098037007
  94    -2.0183131894805e-05
  95    1.7883438779386e-05
  96    1.1083688360473e-05
  97    7.0179511511836e-06
  98    -2.0924913382166e-05
  99    -4.5093834524696e-05
 100    -3.6362915936121e-05
 101    -0.00015679252692297
 102    9.8938459116194e-06
 103    -9.6343655084902e-06
 104    7.3873415725874e-05
 105    -1.7623030621463e-05
 106    -0.00019941510980515
 107    -6.4592629448674e-05
 108    1.1865779757526e-05
 109    7.4286612261974e-05
 110    7.7107285674979e-05
 111    -5.709837480765e-05
 112    -4.5825724782034e-05
 113    1.8086126193611e-05
 114    6.925184248248e-05
 115    -5.0076158414805e-05
 116    -0.00010192850200336
 117    0.00083688674602186
 118    -2.6325876792775e-05
 119    -9.6738100802408e-06
 120    3.2507158424096e-05
 121    0.0002994773941482
 122    2.8852564475864e-05
 123    -0.00012992493465239
 124    -6.4028242323464e-06
 125    1.281516600024e-05
 126    1.6075663962261e-05
 127    -3.2258000076126e-05
 128    4.9864310799871e-05
 129    -1.8792064718649e-05
 130    -0.00031892036848762
 131    7.3859483884063e-06
 132    5.8331114584239e-06
 133    2.9079745388407e-05
 134    2.5931917385696e-05
 135    -0.00011876871617801
 136    -1.3402597585444e-05
 137    -2.3824610221374e-05
 138    -2.6436689413192e-05
 139    -2.0993590701184e-05
 140    -3.8301447176292e-05
 141    0.00028301978069412
 142    7.9175267805055e-06
 143    -2.3928888525371e-06
 144    -6.1445944612134e-06
 145    -0.00022924692320742
 146    5.0225707972158e-05
 147    6.5054108420564e-05
 148    -2.3444711933395e-06
 149    3.0243618665941e-06
 150    -3.3029325854683e-06
 151    1.1768764548958e-05
 152    -4.9968982479141e-06
 153    -9.7101580518893e-05
 154    -0.0001168147239185
 155    -2.5595331557063e-05
 156    3.0375129657483e-05
 157    2.0796401650883e-05
 158    -2.5869362450373e-05
 159    -8.9791502585807e-05
 160    -5.9584865658968e-05
 161    -7.1284233940159e-06
 162    5.9380330709997e-06
 163    -3.3444918481343e-06
 164    -7.9533120116348e-06
 165    -0.0002335293750913
 166    -1.6072483626568e-05
 167    1.3733987659119e-05
 168    5.4711918318122e-06
 169    0.00024079299090422
 170    -0.00021589262116466
 171    -0.00013056311957047
 172    -3.0770607095818e-06
 173    9.8438806721328e-06
 174    -1.3680317339888e-05
 175    3.4391587720838e-06
 176    -1.8427379616308e-05
 177    -1.5880800186101e-05
 178    8.2818204095066e-05
 179    -6.6547790547272e-07
 180    2.0427918914636e-06
 181    -5.0072299490674e-06
 182    1.4855314560876e-05
 183    2.6421540202883e-05
 184    -6.3327291575667e-05
 185    -5.0773792812418e-06
 186    3.6088376437867e-06
 187    5.7290491823923e-06
 188    0.0001254863679756
 189    -0.00010218328543129
 190    -8.320404832042e-05
 191    1.2757832896113e-06
 192    1.9670457464898e-06
 193    -7.6765967991787e-06
 194    -3.1251747134485e-06
 195    -5.0252153296982e-06
 196    -1.3936314944983e-05
 197    -1.836776865339e-05
 198    5.6336836124632e-06
 199    1.9698290576343e-06
 200    -3.6447183383433e-06
 201    -1.3587888909268e-05
 202    4.1755263409269e-06
 203    -1.2835931888787e-05
 204    1.0118834891732e-05
 205    1.1751560141409e-05
 206    8.9276682646168e-06
 207    6.9282633020175e-05
 208    -1.6244071102633e-05
 209    3.9352088056199e-06
 210    1.5474572338474e-05
 211    -2.4688035498322e-06
 212    -2.0878996079151e-05
 213    0.00025799600051487
 214    -1.7335690715164e-06
 215    -2.828727336927e-06
 216    -1.573861793675e-06
 217    0.00019289911901352
 218    -5.4149757767866e-05
 219    -7.4326571525203e-05
 220    -2.1820320771258e-06
 221    -1.6415318174912e-05
 222    5.0753014622311e-06
 223    8.9440892257082e-06
 224    -1.6577354017257e-06
 225    2.5167495468668e-05
 226    5.379340745632e-05
 227    -1.2181838354878e-05
 228    -1.8370180598382e-06
 229    -9.9524374126378e-07
 230    9.6719257428485e-06
 231    5.4527243548804e-05
 232    -3.9288595017176e-06
 233    6.2580703511187e-06
 234    1.1930123361735e-05
 235    5.8837654664246e-07
 236    1.8487750641192e-06
 237    -7.7384166301915e-05
 238    2.5868959031082e-06
 239    2.5899955791641e-07
 240    -3.5672070043159e-06
 241    3.5128352482492e-05
 242    -6.3106616535841e-05
 243    1.774973739425e-05
 244    1.8748106605571e-06
 245    1.8936587058746e-06
 246    -1.8869934432327e-06
 247    1.5662936489553e-07
 248    9.3684779933828e-07
 249    -1.3035416639034e-05
 250    1.4312261904179e-05
 251    -5.026313274602e-06
 252    -1.4990248353122e-06
 253    -6.6269525613514e-07
 254    -5.7483449621187e-06
 255    5.9159726842943e-05
 256    1.6602298756564e-07
 257    5.2689990777201e-06
 258    -1.2752679122803e-06
 259    -1.0275628538369e-05
 260    -1.8035685887842e-05
 261    8.3027458666903e-05
 262    5.2657437730345e-07