[Molden Format]
made by pyscf v[2.0.1]
[Atoms] (AU)
O   1   8     0.00000000000000     0.00000000000000     6.40640788651141
H   2   1     0.00000000000000     0.00000000000000     4.58300606461044
H   3   1    -0.05031916615174     1.78353439551780     6.78227958297808
O   4   8     0.00000000000000     0.00000000000000     2.31533471513237
C   5   6     0.00000000000000     0.00000000000000     0.00000000000000
C   6   6     2.01118073026938    -1.40227222164369    -1.50774939176400
C   7   6    -2.01249334291722     1.41331050329955    -1.50319235519811
H   8   1     3.32037363730244    -2.26721897153159    -0.13599698591495
C   9   6     3.45899267434009     0.28739631745591    -3.37437943254505
H   10   1     1.07662969841332    -2.94725144642667    -2.56541439481080
H   11   1    -2.67503415753480     0.18421555839588    -3.06194479365997
H   12   1    -1.08005520873877     3.03851734677796    -2.43674295017013
C   13   6    -4.21607110578555     2.32938802552922     0.11994192435017
H   14   1     4.24440173074564     1.93368664387684    -2.34976285512790
H   15   1     2.18907033049676     1.04714335134846    -4.81494497423699
C   16   6     5.60746363007797    -1.12419643481196    -4.70268606082550
H   17   1    -3.46838323670267     3.50951302338067     1.66946842715333
H   18   1    -5.11873485366228     0.68575958301209     1.04047743976495
C   19   6    -6.18314754751344     3.80909592987882    -1.39656589068747
H   20   1     6.93011263717176    -1.87550812453645    -3.26656317360070
C   21   6     7.10306991577580     0.52877932406334    -6.57829775293605
H   22   1     4.82318879258361    -2.78573437948532    -5.70504560381835
H   23   1    -6.91582688743803     2.61304780074712    -2.95074552451969
H   24   1    -5.26532430573853     5.45420349051338    -2.31005832200284
C   25   6    -8.39941882261433     4.73263980500213     0.21800571437956
H   26   1     7.83338371486801     2.19084139882824    -5.57093109900697
H   27   1     5.73544244039420     1.27376866537418    -8.01071492370229
C   28   6     9.21124858443101    -0.89699110072176    -7.88926949186242
H   29   1    -7.66272760055236     5.92277078003992     1.77035591474408
H   30   1    -9.31497248082589     3.08753015622020     1.12614408368786
C   31   6   -10.35481709231879     6.21833079391143    -1.30905206253246
H   32   1    10.58815905329501    -1.61099162890610    -6.52093739071026
H   33   1    10.23506248045667     0.32468009384095    -9.23072870921204
H   34   1     8.47665842847139    -2.53598436989925    -8.94921964622535
H   35   1    -9.48948872868064     7.90013588951020    -2.18823918416067
H   36   1   -11.93332774482359     6.86460487874102    -0.11255798845995
H   37   1   -11.15126291841033     5.04495968327630    -2.83849898862534
[GTO]
1 0
 s    8 1.00
                 11720  0.00070964594651845
                  1759  0.0054672722921914
                 400.8   0.027823118610189
                 113.7    0.10474773971146
                 37.03    0.28292084635691
                 13.27    0.44849523869833
                 5.025    0.27081688521277
                 1.013    0.01545029160744
 s    8 1.00
                 11720  -0.00031444341168873
                  1759  -0.0024821376810179
                 400.8  -0.012316355381583
                 113.7  -0.050538917343672
                 37.03   -0.13938490331632
                 13.27   -0.32507749481778
                 5.025   -0.22984830758785
                 1.013     1.0953793467883
 s    1 1.00
                0.3023                   1
 p    3 1.00
                  17.7   0.062679166281506
                 3.854    0.33353656587936
                 1.046    0.74123964163973
 p    1 1.00
                0.2753                   1
 d    1 1.00
                 1.185                   1

2 0
 s    3 1.00
                 13.01   0.033498726389998
                 1.962    0.23480080117413
                0.4446     0.8136829578829
 s    1 1.00
                 0.122                   1
 p    1 1.00
                 0.727                   1

3 0
 s    3 1.00
                 13.01   0.033498726389998
                 1.962    0.23480080117413
                0.4446     0.8136829578829
 s    1 1.00
                 0.122                   1
 p    1 1.00
                 0.727                   1

4 0
 s    8 1.00
                 11720  0.00070964594651845
                  1759  0.0054672722921914
                 400.8   0.027823118610189
                 113.7    0.10474773971146
                 37.03    0.28292084635691
                 13.27    0.44849523869833
                 5.025    0.27081688521277
                 1.013    0.01545029160744
 s    8 1.00
                 11720  -0.00031444341168873
                  1759  -0.0024821376810179
                 400.8  -0.012316355381583
                 113.7  -0.050538917343672
                 37.03   -0.13938490331632
                 13.27   -0.32507749481778
                 5.025   -0.22984830758785
                 1.013     1.0953793467883
 s    1 1.00
                0.3023                   1
 p    3 1.00
                  17.7   0.062679166281506
                 3.854    0.33353656587936
                 1.046    0.74123964163973
 p    1 1.00
                0.2753                   1
 d    1 1.00
                 1.185                   1

5 0
 s    8 1.00
                  6665  0.00069158396281299
                  1000  0.0053257961529341
                   228   0.027060721042034
                 64.71    0.10165684614077
                 21.06     0.2745748236174
                 7.495    0.44829431892377
                 2.797    0.28490261071525
                0.5215   0.015194859206082
 s    8 1.00
                  6665  -0.00029326965268655
                  1000  -0.0023180354739745
                   228  -0.011499786038565
                 64.71  -0.046826727009787
                 21.06   -0.12846616875047
                 7.495   -0.30126627246289
                 2.797   -0.25563070233011
                0.5215      1.093793361012
 s    1 1.00
                0.1596                   1
 p    3 1.00
                 9.439   0.056979251590039
                 2.002    0.31320721150073
                0.5456    0.76037674173753
 p    1 1.00
                0.1517                   1
 d    1 1.00
                  0.55                   1

6 0
 s    8 1.00
                  6665  0.00069158396281299
                  1000  0.0053257961529341
                   228   0.027060721042034
                 64.71    0.10165684614077
                 21.06     0.2745748236174
                 7.495    0.44829431892377
                 2.797    0.28490261071525
                0.5215   0.015194859206082
 s    8 1.00
                  6665  -0.00029326965268655
                  1000  -0.0023180354739745
                   228  -0.011499786038565
                 64.71  -0.046826727009787
                 21.06   -0.12846616875047
                 7.495   -0.30126627246289
                 2.797   -0.25563070233011
                0.5215      1.093793361012
 s    1 1.00
                0.1596                   1
 p    3 1.00
                 9.439   0.056979251590039
                 2.002    0.31320721150073
                0.5456    0.76037674173753
 p    1 1.00
                0.1517                   1
 d    1 1.00
                  0.55                   1

7 0
 s    8 1.00
                  6665  0.00069158396281299
                  1000  0.0053257961529341
                   228   0.027060721042034
                 64.71    0.10165684614077
                 21.06     0.2745748236174
                 7.495    0.44829431892377
                 2.797    0.28490261071525
                0.5215   0.015194859206082
 s    8 1.00
                  6665  -0.00029326965268655
                  1000  -0.0023180354739745
                   228  -0.011499786038565
                 64.71  -0.046826727009787
                 21.06   -0.12846616875047
                 7.495   -0.30126627246289
                 2.797   -0.25563070233011
                0.5215      1.093793361012
 s    1 1.00
                0.1596                   1
 p    3 1.00
                 9.439   0.056979251590039
                 2.002    0.31320721150073
                0.5456    0.76037674173753
 p    1 1.00
                0.1517                   1
 d    1 1.00
                  0.55                   1

8 0
 s    3 1.00
                 13.01   0.033498726389998
                 1.962    0.23480080117413
                0.4446     0.8136829578829
 s    1 1.00
                 0.122                   1
 p    1 1.00
                 0.727                   1

9 0
 s    8 1.00
                  6665  0.00069158396281299
                  1000  0.0053257961529341
                   228   0.027060721042034
                 64.71    0.10165684614077
                 21.06     0.2745748236174
                 7.495    0.44829431892377
                 2.797    0.28490261071525
                0.5215   0.015194859206082
 s    8 1.00
                  6665  -0.00029326965268655
                  1000  -0.0023180354739745
                   228  -0.011499786038565
                 64.71  -0.046826727009787
                 21.06   -0.12846616875047
                 7.495   -0.30126627246289
                 2.797   -0.25563070233011
                0.5215      1.093793361012
 s    1 1.00
                0.1596                   1
 p    3 1.00
                 9.439   0.056979251590039
                 2.002    0.31320721150073
                0.5456    0.76037674173753
 p    1 1.00
                0.1517                   1
 d    1 1.00
                  0.55                   1

10 0
 s    3 1.00
                 13.01   0.033498726389998
                 1.962    0.23480080117413
                0.4446     0.8136829578829
 s    1 1.00
                 0.122                   1
 p    1 1.00
                 0.727                   1

11 0
 s    3 1.00
                 13.01   0.033498726389998
                 1.962    0.23480080117413
                0.4446     0.8136829578829
 s    1 1.00
                 0.122                   1
 p    1 1.00
                 0.727                   1

12 0
 s    3 1.00
                 13.01   0.033498726389998
                 1.962    0.23480080117413
                0.4446     0.8136829578829
 s    1 1.00
                 0.122                   1
 p    1 1.00
                 0.727                   1

13 0
 s    8 1.00
                  6665  0.00069158396281299
                  1000  0.0053257961529341
                   228   0.027060721042034
                 64.71    0.10165684614077
                 21.06     0.2745748236174
                 7.495    0.44829431892377
                 2.797    0.28490261071525
                0.5215   0.015194859206082
 s    8 1.00
                  6665  -0.00029326965268655
                  1000  -0.0023180354739745
                   228  -0.011499786038565
                 64.71  -0.046826727009787
                 21.06   -0.12846616875047
                 7.495   -0.30126627246289
                 2.797   -0.25563070233011
                0.5215      1.093793361012
 s    1 1.00
                0.1596                   1
 p    3 1.00
                 9.439   0.056979251590039
                 2.002    0.31320721150073
                0.5456    0.76037674173753
 p    1 1.00
                0.1517                   1
 d    1 1.00
                  0.55                   1

14 0
 s    3 1.00
                 13.01   0.033498726389998
                 1.962    0.23480080117413
                0.4446     0.8136829578829
 s    1 1.00
                 0.122                   1
 p    1 1.00
                 0.727                   1

15 0
 s    3 1.00
                 13.01   0.033498726389998
                 1.962    0.23480080117413
                0.4446     0.8136829578829
 s    1 1.00
                 0.122                   1
 p    1 1.00
                 0.727                   1

16 0
 s    8 1.00
                  6665  0.00069158396281299
                  1000  0.0053257961529341
                   228   0.027060721042034
                 64.71    0.10165684614077
                 21.06     0.2745748236174
                 7.495    0.44829431892377
                 2.797    0.28490261071525
                0.5215   0.015194859206082
 s    8 1.00
                  6665  -0.00029326965268655
                  1000  -0.0023180354739745
                   228  -0.011499786038565
                 64.71  -0.046826727009787
                 21.06   -0.12846616875047
                 7.495   -0.30126627246289
                 2.797   -0.25563070233011
                0.5215      1.093793361012
 s    1 1.00
                0.1596                   1
 p    3 1.00
                 9.439   0.056979251590039
                 2.002    0.31320721150073
                0.5456    0.76037674173753
 p    1 1.00
                0.1517                   1
 d    1 1.00
                  0.55                   1

17 0
 s    3 1.00
                 13.01   0.033498726389998
                 1.962    0.23480080117413
                0.4446     0.8136829578829
 s    1 1.00
                 0.122                   1
 p    1 1.00
                 0.727                   1

18 0
 s    3 1.00
                 13.01   0.033498726389998
                 1.962    0.23480080117413
                0.4446     0.8136829578829
 s    1 1.00
                 0.122                   1
 p    1 1.00
                 0.727                   1

19 0
 s    8 1.00
                  6665  0.00069158396281299
                  1000  0.0053257961529341
                   228   0.027060721042034
                 64.71    0.10165684614077
                 21.06     0.2745748236174
                 7.495    0.44829431892377
                 2.797    0.28490261071525
                0.5215   0.015194859206082
 s    8 1.00
                  6665  -0.00029326965268655
                  1000  -0.0023180354739745
                   228  -0.011499786038565
                 64.71  -0.046826727009787
                 21.06   -0.12846616875047
                 7.495   -0.30126627246289
                 2.797   -0.25563070233011
                0.5215      1.093793361012
 s    1 1.00
                0.1596                   1
 p    3 1.00
                 9.439   0.056979251590039
                 2.002    0.31320721150073
                0.5456    0.76037674173753
 p    1 1.00
                0.1517                   1
 d    1 1.00
                  0.55                   1

20 0
 s    3 1.00
                 13.01   0.033498726389998
                 1.962    0.23480080117413
                0.4446     0.8136829578829
 s    1 1.00
                 0.122                   1
 p    1 1.00
                 0.727                   1

21 0
 s    8 1.00
                  6665  0.00069158396281299
                  1000  0.0053257961529341
                   228   0.027060721042034
                 64.71    0.10165684614077
                 21.06     0.2745748236174
                 7.495    0.44829431892377
                 2.797    0.28490261071525
                0.5215   0.015194859206082
 s    8 1.00
                  6665  -0.00029326965268655
                  1000  -0.0023180354739745
                   228  -0.011499786038565
                 64.71  -0.046826727009787
                 21.06   -0.12846616875047
                 7.495   -0.30126627246289
                 2.797   -0.25563070233011
                0.5215      1.093793361012
 s    1 1.00
                0.1596                   1
 p    3 1.00
                 9.439   0.056979251590039
                 2.002    0.31320721150073
                0.5456    0.76037674173753
 p    1 1.00
                0.1517                   1
 d    1 1.00
                  0.55                   1

22 0
 s    3 1.00
                 13.01   0.033498726389998
                 1.962    0.23480080117413
                0.4446     0.8136829578829
 s    1 1.00
                 0.122                   1
 p    1 1.00
                 0.727                   1

23 0
 s    3 1.00
                 13.01   0.033498726389998
                 1.962    0.23480080117413
                0.4446     0.8136829578829
 s    1 1.00
                 0.122                   1
 p    1 1.00
                 0.727                   1

24 0
 s    3 1.00
                 13.01   0.033498726389998
                 1.962    0.23480080117413
                0.4446     0.8136829578829
 s    1 1.00
                 0.122                   1
 p    1 1.00
                 0.727                   1

25 0
 s    8 1.00
                  6665  0.00069158396281299
                  1000  0.0053257961529341
                   228   0.027060721042034
                 64.71    0.10165684614077
                 21.06     0.2745748236174
                 7.495    0.44829431892377
                 2.797    0.28490261071525
                0.5215   0.015194859206082
 s    8 1.00
                  6665  -0.00029326965268655
                  1000  -0.0023180354739745
                   228  -0.011499786038565
                 64.71  -0.046826727009787
                 21.06   -0.12846616875047
                 7.495   -0.30126627246289
                 2.797   -0.25563070233011
                0.5215      1.093793361012
 s    1 1.00
                0.1596                   1
 p    3 1.00
                 9.439   0.056979251590039
                 2.002    0.31320721150073
                0.5456    0.76037674173753
 p    1 1.00
                0.1517                   1
 d    1 1.00
                  0.55                   1

26 0
 s    3 1.00
                 13.01   0.033498726389998
                 1.962    0.23480080117413
                0.4446     0.8136829578829
 s    1 1.00
                 0.122                   1
 p    1 1.00
                 0.727                   1

27 0
 s    3 1.00
                 13.01   0.033498726389998
                 1.962    0.23480080117413
                0.4446     0.8136829578829
 s    1 1.00
                 0.122                   1
 p    1 1.00
                 0.727                   1

28 0
 s    8 1.00
                  6665  0.00069158396281299
                  1000  0.0053257961529341
                   228   0.027060721042034
                 64.71    0.10165684614077
                 21.06     0.2745748236174
                 7.495    0.44829431892377
                 2.797    0.28490261071525
                0.5215   0.015194859206082
 s    8 1.00
                  6665  -0.00029326965268655
                  1000  -0.0023180354739745
                   228  -0.011499786038565
                 64.71  -0.046826727009787
                 21.06   -0.12846616875047
                 7.495   -0.30126627246289
                 2.797   -0.25563070233011
                0.5215      1.093793361012
 s    1 1.00
                0.1596                   1
 p    3 1.00
                 9.439   0.056979251590039
                 2.002    0.31320721150073
                0.5456    0.76037674173753
 p    1 1.00
                0.1517                   1
 d    1 1.00
                  0.55                   1

29 0
 s    3 1.00
                 13.01   0.033498726389998
                 1.962    0.23480080117413
                0.4446     0.8136829578829
 s    1 1.00
                 0.122                   1
 p    1 1.00
                 0.727                   1

30 0
 s    3 1.00
                 13.01   0.033498726389998
                 1.962    0.23480080117413
                0.4446     0.8136829578829
 s    1 1.00
                 0.122                   1
 p    1 1.00
                 0.727                   1

31 0
 s    8 1.00
                  6665  0.00069158396281299
                  1000  0.0053257961529341
                   228   0.027060721042034
                 64.71    0.10165684614077
                 21.06     0.2745748236174
                 7.495    0.44829431892377
                 2.797    0.28490261071525
                0.5215   0.015194859206082
 s    8 1.00
                  6665  -0.00029326965268655
                  1000  -0.0023180354739745
                   228  -0.011499786038565
                 64.71  -0.046826727009787
                 21.06   -0.12846616875047
                 7.495   -0.30126627246289
                 2.797   -0.25563070233011
                0.5215      1.093793361012
 s    1 1.00
                0.1596                   1
 p    3 1.00
                 9.439   0.056979251590039
                 2.002    0.31320721150073
                0.5456    0.76037674173753
 p    1 1.00
                0.1517                   1
 d    1 1.00
                  0.55                   1

32 0
 s    3 1.00
                 13.01   0.033498726389998
                 1.962    0.23480080117413
                0.4446     0.8136829578829
 s    1 1.00
                 0.122                   1
 p    1 1.00
                 0.727                   1

33 0
 s    3 1.00
                 13.01   0.033498726389998
                 1.962    0.23480080117413
                0.4446     0.8136829578829
 s    1 1.00
                 0.122                   1
 p    1 1.00
                 0.727                   1

34 0
 s    3 1.00
                 13.01   0.033498726389998
                 1.962    0.23480080117413
                0.4446     0.8136829578829
 s    1 1.00
                 0.122                   1
 p    1 1.00
                 0.727                   1

35 0
 s    3 1.00
                 13.01   0.033498726389998
                 1.962    0.23480080117413
                0.4446     0.8136829578829
 s    1 1.00
                 0.122                   1
 p    1 1.00
                 0.727                   1

36 0
 s    3 1.00
                 13.01   0.033498726389998
                 1.962    0.23480080117413
                0.4446     0.8136829578829
 s    1 1.00
                 0.122                   1
 p    1 1.00
                 0.727                   1

37 0
 s    3 1.00
                 13.01   0.033498726389998
                 1.962    0.23480080117413
                0.4446     0.8136829578829
 s    1 1.00
                 0.122                   1
 p    1 1.00
                 0.727                   1

[5d]
[7f]
[9g]

[MO]
 Sym= A
 Ene=               0
 Spin= Alpha
 Occup=    1.00000
   1    -3.046320528131e-06
   2    -9.7054915901887e-06
   3    2.6374831190914e-05
   4    -9.8772883412365e-06
   5    6.7707357852167e-06
   6    -7.4152082271226e-06
   7    -5.630328968377e-06
   8    -1.6412214425769e-06
   9    -2.1578440869551e-05
  10    2.9875591623579e-06
  11    5.2725920108972e-07
  12    -6.7209138759412e-07
  13    7.0429392040101e-08
  14    -3.2187479121432e-08
  15    2.7788878395239e-06
  16    -4.0368792561096e-05
  17    2.0138871281245e-06
  18    -2.3608472346948e-06
  19    -9.2449175815715e-06
  20    3.2062827424997e-06
  21    8.3643884735201e-06
  22    -5.6706642401468e-07
  23    -6.6365683084553e-07
  24    -2.9406925384244e-07
  25    2.6896787098513e-06
  26    1.056724679322e-05
  27    5.2754679608418e-05
  28    -1.7115277186271e-05
  29    -1.0727242815173e-05
  30    -2.0013703496606e-05
  31    -4.5180391847901e-05
  32    1.7747616593328e-05
  33    -3.0488009654924e-05
  34    -5.5041273977998e-07
  35    2.3237432797325e-06
  36    -1.2094968689477e-06
  37    -3.3762238607676e-06
  38    5.1149067327317e-06
  39    2.7805221450698e-05
  40    9.0657177426194e-05
  41    -0.00029475287307253
  42    -7.0924547278279e-05
  43    5.465860302917e-05
  44    -2.9937309375962e-05
  45    0.00045657371439302
  46    -0.00029814222873106
  47    1.146032372646e-05
  48    7.002487348736e-06
  49    -1.9460296327757e-05
  50    1.1363334381614e-05
  51    -1.6794970832913e-05
  52    3.1565620207141e-05
  53    3.2960255329715e-05
  54    2.9927778091156e-05
  55    -0.00044196842595432
  56    4.1918014469276e-05
  57    -2.9699357319203e-05
  58    -1.2624776189807e-05
  59    0.0001506257430545
  60    -0.00016438738056215
  61    -0.00015466450219266
  62    -2.147998585741e-06
  63    1.3975444607966e-05
  64    -6.5527804096747e-06
  65    -3.7875527111875e-06
  66    3.598852269201e-06
  67    2.1057557019551e-06
  68    -0.00017574795061682
  69    0.00015309375417259
  70    0.00028403749856264
  71    -0.00010736021027756
  72    -0.00022651965211851
  73    0.00064815864660246
  74    -0.00033969562838854
  75    5.1518247286365e-05
  76    -1.9302743853704e-05
  77    4.7227466923169e-05
  78    -1.7970934694356e-05
  79    -2.5719066057424e-06
  80    -1.0475656050047e-05
  81    4.1070374833614e-05
  82    -4.5900367767498e-06
  83    6.7457336183363e-06
  84    -1.7683182452102e-06
  85    5.1294936364501e-07
  86    -2.3676230964131e-06
  87    -1.2051636070745e-05
  88    8.8453173503719e-05
  89    6.5505535210722e-06
  90    -3.3483802554837e-06
  91    1.8478388731404e-06
  92    7.5019114348134e-05
  93    -3.3893778353912e-05
  94    4.9285079796403e-05
  95    -6.8909155264644e-07
  96    -6.0548862642772e-06
  97    3.5879839787585e-06
  98    1.3164876767948e-06
  99    -1.3850478025222e-06
 100    8.5040404772279e-07
 101    -1.6919982925888e-05
 102    -7.616456620112e-06
 103    2.3187101137994e-06
 104    3.9589313006726e-06
 105    4.2152181901453e-05
 106    -4.6505869981959e-06
 107    -1.2443869206226e-05
 108    1.3464613596969e-05
 109    -1.7110432397256e-05
 110    3.851942441398e-05
 111    -2.8045550661096e-05
 112    -1.2577874877396e-05
 113    6.5729862155645e-06
 114    -1.8384030043212e-05
 115    8.7343537811103e-05
 116    0.0007488315372752
 117    -0.00088121944182894
 118    -0.00077225839956876
 119    0.00044013326047623
 120    6.7704669867445e-05
 121    0.0004021499474253
 122    -0.00030698336430652
 123    0.00028654700473735
 124    -2.8318332012917e-08
 125    5.585819176806e-06
 126    2.4880283459532e-06
 127    -5.0835731808351e-06
 128    7.7916373638256e-06
 129    -8.8940718174378e-06
 130    -6.3612184704393e-06
 131    -5.6448329203766e-06
 132    2.7819449124573e-06
 133    -9.8798783169833e-07
 134    3.2051978522433e-06
 135    3.8127528665658e-05
 136    3.0817193371124e-06
 137    -1.3887552986653e-06
 138    1.3785306730217e-06
 139    8.6051364650604e-06
 140    1.3851812558149e-05
 141    -8.440500315123e-05
 142    -2.4286402593581e-06
 143    7.0085187140359e-07
 144    6.3283651261874e-07
 145    4.6433962196759e-05
 146    -7.3475351825321e-06
 147    -8.8770505743361e-05
 148    -7.7991749411667e-07
 149    4.0790354521455e-06
 150    -3.4038675854891e-06
 151    -1.7151578662953e-06
 152    3.8358038332326e-06
 153    0.00034314001106628
 154    1.4309647126723e-05
 155    -5.6190228645004e-05
 156    2.8164503773905e-06
 157    -3.3454369148953e-05
 158    0.00033361293534348
 159    -5.1218956288899e-06
 160    -2.4509583181732e-05
 161    5.7146710161756e-05
 162    -2.0541823974044e-05
 163    0.00060608754301219
 164    0.00025955163664742
 165    0.00035400347959239
 166    0.00029304331933458
 167    -0.00038160096111092
 168    0.00081143717644613
 169    0.0014261038355112
 170    -0.0010500227429878
 171    0.00094230808684141
 172    1.903687038456e-06
 173    7.9898660000257e-05
 174    -4.554008045095e-05
 175    -1.0906213812233e-05
 176    -1.3799723160802e-05
 177    4.5213511949452e-06
 178    1.4796055911705e-05
 179    -2.6604917765751e-06
 180    -3.5685672893161e-07
 181    2.3931252001178e-06
 182    1.184463120414e-06
 183    2.580245619501e-06
 184    -1.8432053370614e-05
 185    -3.3708040284158e-07
 186    -8.4904361635292e-07
 187    1.1787619247272e-06
 188    1.0876344522528e-05
 189    1.4537323558784e-05
 190    -3.3621093635563e-07
 191    8.6326687289188e-07
 192    2.3327575694648e-07
 193    8.338876250403e-07
 194    6.4765311841021e-07
 195    -1.9594898357242e-06
 196    2.7748496835183e-06
 197    -1.6645218594388e-05
 198    -1.9037988488594e-06
 199    -2.2113903060663e-06
 200    2.4687269808091e-06
 201    -0.00032928924269628
 202    4.1137366208258e-05
 203    -8.3811359565062e-05
 204    4.7944307488842e-05
 205    -3.5739998655442e-05
 206    -0.00036483486537314
 207    1.9855665492365e-05
 208    -7.5554800703522e-05
 209    6.177294581857e-05
 210    -3.445663032769e-05
 211     0.030066211364658
 212    0.0001636055725544
 213    -0.0020863033070866
 214    0.00012831897704989
 215    -9.9430936010899e-05
 216    2.7124383709521e-05
 217    0.0010930616618791
 218    -0.00074102836020601
 219    0.00042044220588893
 220    -1.2684273901377e-05
 221    7.6061086317806e-05
 222    -7.749067269045e-05
 223    6.1810368515194e-05
 224    -0.00015253988592745
 225    5.2791347812194e-07
 226    -6.085884859573e-06
 227    -1.1287118479901e-07
 228    -5.2742164907452e-07
 229    3.7979602302708e-07
 230    2.6406466735119e-08
 231    -3.0291499234699e-06
 232    -1.582519210349e-07
 233    -4.9028042404696e-07
 234    -7.5374178844584e-07
 235    8.216073238042e-05
 236    4.6151661484883e-06
 237    -9.1782876963977e-06
 238    -2.6668293924273e-07
 239    -1.1142680805454e-06
 240    1.1931415081648e-06
 241    9.7150764800005e-06
 242    6.365754576243e-06
 243    -1.2893947152846e-05
 244    -9.6796478444501e-08
 245    1.3344207945981e-06
 246    -4.5516012168917e-07
 247    -3.0652150920527e-08
 248    -9.9870852003736e-08
 249    7.0390655017239e-05
 250    -0.00014337769819015
 251    2.8254251444284e-05
 252    -7.9019294939082e-06
 253    5.1850133956489e-05
 254    9.1755900599335e-05
 255    -0.00013760501527471
 256    1.1771902860471e-05
 257    -3.5982101828359e-05
 258    4.4086418898763e-05
 259       -1.001966428535
 260    -0.0048471656265908
 261    0.0099420666230298
 262    0.0001449245979107