[Molden Format]
made by pyscf v[2.0.1]
[Atoms] (AU)
O   1   8     0.00000000000000     0.00000000000000     7.16229833633744
H   2   1     0.00000000000000     0.00000000000000     5.33889651443647
H   3   1    -0.05031916615174     1.78353065140343     7.53817003280410
O   4   8     0.00000000000000     0.00000000000000     2.31533471513237
C   5   6     0.00000000000000     0.00000000000000     0.00000000000000
C   6   6     2.01118073026938    -1.40227222164369    -1.50774939176400
C   7   6    -2.01249334291722     1.41331050329955    -1.50315905028694
H   8   1     3.32037363730244    -2.26721897153159    -0.13599698591495
C   9   6     3.45899267434009     0.28739631745591    -3.37437943254505
H   10   1     1.07662969841332    -2.94725144642667    -2.56541439481080
H   11   1    -2.67503415753480     0.18421555839588    -3.06194479365997
H   12   1    -1.07974048864772     3.03851734677796    -2.43674295017013
C   13   6    -4.21607110578555     2.32938802552922     0.11994162256091
H   14   1     4.24440173074564     1.93368664142019    -2.34976285512790
H   15   1     2.15020713235517     1.04714335134846    -4.81494497423699
C   16   6     5.60746363007797    -1.12419643481196    -4.70268606082550
H   17   1    -3.46838323670267     3.50951302338067     1.66946842715333
H   18   1    -5.11873485366228     0.68575958301209     1.04047743976495
C   19   6    -6.18314754751344     3.80909592987882    -1.39656589068747
H   20   1     6.93011263717176    -1.87550812453645    -3.26656317360070
C   21   6     7.06356622236532     0.52877932406334    -6.57829775293605
H   22   1     4.82318879258361    -2.78573437948532    -5.70504560381835
H   23   1    -6.91582688743803     2.61304780074712    -2.95074552451969
H   24   1    -5.26532430573853     5.45420349051338    -2.31005832200284
C   25   6    -8.39941882261433     4.73263980500213     0.21800571437956
H   26   1     7.83338371486801     2.19084139882824    -5.57093109900697
H   27   1     5.73544244039420     1.27376866537418    -8.01071492370229
C   28   6     9.21124858443101    -0.89699110072176    -7.88926949186242
H   29   1    -7.66272760055236     5.92277078003992     1.77035591474408
H   30   1    -9.31497248082589     3.08753015622020     1.12614408368786
C   31   6   -10.35481709231879     6.21833079391143    -1.30905206253246
H   32   1    10.58815905329501    -1.61074586756696    -6.49512691622620
H   33   1    10.23506248045667     0.32468009384095    -9.23072870921204
H   34   1     8.47665842847139    -2.53598436989925    -8.94921964622535
H   35   1    -9.48948872868064     7.90013588951020    -2.18823918416067
H   36   1   -11.93332513000955     6.86460487874102    -0.11255798845995
H   37   1   -11.15126291841033     5.04495968327630    -2.83849898862534
[GTO]
1 0
 s    8 1.00
                 11720  0.00070964594651845
                  1759  0.0054672722921914
                 400.8   0.027823118610189
                 113.7    0.10474773971146
                 37.03    0.28292084635691
                 13.27    0.44849523869833
                 5.025    0.27081688521277
                 1.013    0.01545029160744
 s    8 1.00
                 11720  -0.00031444341168873
                  1759  -0.0024821376810179
                 400.8  -0.012316355381583
                 113.7  -0.050538917343672
                 37.03   -0.13938490331632
                 13.27   -0.32507749481778
                 5.025   -0.22984830758785
                 1.013     1.0953793467883
 s    1 1.00
                0.3023                   1
 p    3 1.00
                  17.7   0.062679166281506
                 3.854    0.33353656587936
                 1.046    0.74123964163973
 p    1 1.00
                0.2753                   1
 d    1 1.00
                 1.185                   1

2 0
 s    3 1.00
                 13.01   0.033498726389998
                 1.962    0.23480080117413
                0.4446     0.8136829578829
 s    1 1.00
                 0.122                   1
 p    1 1.00
                 0.727                   1

3 0
 s    3 1.00
                 13.01   0.033498726389998
                 1.962    0.23480080117413
                0.4446     0.8136829578829
 s    1 1.00
                 0.122                   1
 p    1 1.00
                 0.727                   1

4 0
 s    8 1.00
                 11720  0.00070964594651845
                  1759  0.0054672722921914
                 400.8   0.027823118610189
                 113.7    0.10474773971146
                 37.03    0.28292084635691
                 13.27    0.44849523869833
                 5.025    0.27081688521277
                 1.013    0.01545029160744
 s    8 1.00
                 11720  -0.00031444341168873
                  1759  -0.0024821376810179
                 400.8  -0.012316355381583
                 113.7  -0.050538917343672
                 37.03   -0.13938490331632
                 13.27   -0.32507749481778
                 5.025   -0.22984830758785
                 1.013     1.0953793467883
 s    1 1.00
                0.3023                   1
 p    3 1.00
                  17.7   0.062679166281506
                 3.854    0.33353656587936
                 1.046    0.74123964163973
 p    1 1.00
                0.2753                   1
 d    1 1.00
                 1.185                   1

5 0
 s    8 1.00
                  6665  0.00069158396281299
                  1000  0.0053257961529341
                   228   0.027060721042034
                 64.71    0.10165684614077
                 21.06     0.2745748236174
                 7.495    0.44829431892377
                 2.797    0.28490261071525
                0.5215   0.015194859206082
 s    8 1.00
                  6665  -0.00029326965268655
                  1000  -0.0023180354739745
                   228  -0.011499786038565
                 64.71  -0.046826727009787
                 21.06   -0.12846616875047
                 7.495   -0.30126627246289
                 2.797   -0.25563070233011
                0.5215      1.093793361012
 s    1 1.00
                0.1596                   1
 p    3 1.00
                 9.439   0.056979251590039
                 2.002    0.31320721150073
                0.5456    0.76037674173753
 p    1 1.00
                0.1517                   1
 d    1 1.00
                  0.55                   1

6 0
 s    8 1.00
                  6665  0.00069158396281299
                  1000  0.0053257961529341
                   228   0.027060721042034
                 64.71    0.10165684614077
                 21.06     0.2745748236174
                 7.495    0.44829431892377
                 2.797    0.28490261071525
                0.5215   0.015194859206082
 s    8 1.00
                  6665  -0.00029326965268655
                  1000  -0.0023180354739745
                   228  -0.011499786038565
                 64.71  -0.046826727009787
                 21.06   -0.12846616875047
                 7.495   -0.30126627246289
                 2.797   -0.25563070233011
                0.5215      1.093793361012
 s    1 1.00
                0.1596                   1
 p    3 1.00
                 9.439   0.056979251590039
                 2.002    0.31320721150073
                0.5456    0.76037674173753
 p    1 1.00
                0.1517                   1
 d    1 1.00
                  0.55                   1

7 0
 s    8 1.00
                  6665  0.00069158396281299
                  1000  0.0053257961529341
                   228   0.027060721042034
                 64.71    0.10165684614077
                 21.06     0.2745748236174
                 7.495    0.44829431892377
                 2.797    0.28490261071525
                0.5215   0.015194859206082
 s    8 1.00
                  6665  -0.00029326965268655
                  1000  -0.0023180354739745
                   228  -0.011499786038565
                 64.71  -0.046826727009787
                 21.06   -0.12846616875047
                 7.495   -0.30126627246289
                 2.797   -0.25563070233011
                0.5215      1.093793361012
 s    1 1.00
                0.1596                   1
 p    3 1.00
                 9.439   0.056979251590039
                 2.002    0.31320721150073
                0.5456    0.76037674173753
 p    1 1.00
                0.1517                   1
 d    1 1.00
                  0.55                   1

8 0
 s    3 1.00
                 13.01   0.033498726389998
                 1.962    0.23480080117413
                0.4446     0.8136829578829
 s    1 1.00
                 0.122                   1
 p    1 1.00
                 0.727                   1

9 0
 s    8 1.00
                  6665  0.00069158396281299
                  1000  0.0053257961529341
                   228   0.027060721042034
                 64.71    0.10165684614077
                 21.06     0.2745748236174
                 7.495    0.44829431892377
                 2.797    0.28490261071525
                0.5215   0.015194859206082
 s    8 1.00
                  6665  -0.00029326965268655
                  1000  -0.0023180354739745
                   228  -0.011499786038565
                 64.71  -0.046826727009787
                 21.06   -0.12846616875047
                 7.495   -0.30126627246289
                 2.797   -0.25563070233011
                0.5215      1.093793361012
 s    1 1.00
                0.1596                   1
 p    3 1.00
                 9.439   0.056979251590039
                 2.002    0.31320721150073
                0.5456    0.76037674173753
 p    1 1.00
                0.1517                   1
 d    1 1.00
                  0.55                   1

10 0
 s    3 1.00
                 13.01   0.033498726389998
                 1.962    0.23480080117413
                0.4446     0.8136829578829
 s    1 1.00
                 0.122                   1
 p    1 1.00
                 0.727                   1

11 0
 s    3 1.00
                 13.01   0.033498726389998
                 1.962    0.23480080117413
                0.4446     0.8136829578829
 s    1 1.00
                 0.122                   1
 p    1 1.00
                 0.727                   1

12 0
 s    3 1.00
                 13.01   0.033498726389998
                 1.962    0.23480080117413
                0.4446     0.8136829578829
 s    1 1.00
                 0.122                   1
 p    1 1.00
                 0.727                   1

13 0
 s    8 1.00
                  6665  0.00069158396281299
                  1000  0.0053257961529341
                   228   0.027060721042034
                 64.71    0.10165684614077
                 21.06     0.2745748236174
                 7.495    0.44829431892377
                 2.797    0.28490261071525
                0.5215   0.015194859206082
 s    8 1.00
                  6665  -0.00029326965268655
                  1000  -0.0023180354739745
                   228  -0.011499786038565
                 64.71  -0.046826727009787
                 21.06   -0.12846616875047
                 7.495   -0.30126627246289
                 2.797   -0.25563070233011
                0.5215      1.093793361012
 s    1 1.00
                0.1596                   1
 p    3 1.00
                 9.439   0.056979251590039
                 2.002    0.31320721150073
                0.5456    0.76037674173753
 p    1 1.00
                0.1517                   1
 d    1 1.00
                  0.55                   1

14 0
 s    3 1.00
                 13.01   0.033498726389998
                 1.962    0.23480080117413
                0.4446     0.8136829578829
 s    1 1.00
                 0.122                   1
 p    1 1.00
                 0.727                   1

15 0
 s    3 1.00
                 13.01   0.033498726389998
                 1.962    0.23480080117413
                0.4446     0.8136829578829
 s    1 1.00
                 0.122                   1
 p    1 1.00
                 0.727                   1

16 0
 s    8 1.00
                  6665  0.00069158396281299
                  1000  0.0053257961529341
                   228   0.027060721042034
                 64.71    0.10165684614077
                 21.06     0.2745748236174
                 7.495    0.44829431892377
                 2.797    0.28490261071525
                0.5215   0.015194859206082
 s    8 1.00
                  6665  -0.00029326965268655
                  1000  -0.0023180354739745
                   228  -0.011499786038565
                 64.71  -0.046826727009787
                 21.06   -0.12846616875047
                 7.495   -0.30126627246289
                 2.797   -0.25563070233011
                0.5215      1.093793361012
 s    1 1.00
                0.1596                   1
 p    3 1.00
                 9.439   0.056979251590039
                 2.002    0.31320721150073
                0.5456    0.76037674173753
 p    1 1.00
                0.1517                   1
 d    1 1.00
                  0.55                   1

17 0
 s    3 1.00
                 13.01   0.033498726389998
                 1.962    0.23480080117413
                0.4446     0.8136829578829
 s    1 1.00
                 0.122                   1
 p    1 1.00
                 0.727                   1

18 0
 s    3 1.00
                 13.01   0.033498726389998
                 1.962    0.23480080117413
                0.4446     0.8136829578829
 s    1 1.00
                 0.122                   1
 p    1 1.00
                 0.727                   1

19 0
 s    8 1.00
                  6665  0.00069158396281299
                  1000  0.0053257961529341
                   228   0.027060721042034
                 64.71    0.10165684614077
                 21.06     0.2745748236174
                 7.495    0.44829431892377
                 2.797    0.28490261071525
                0.5215   0.015194859206082
 s    8 1.00
                  6665  -0.00029326965268655
                  1000  -0.0023180354739745
                   228  -0.011499786038565
                 64.71  -0.046826727009787
                 21.06   -0.12846616875047
                 7.495   -0.30126627246289
                 2.797   -0.25563070233011
                0.5215      1.093793361012
 s    1 1.00
                0.1596                   1
 p    3 1.00
                 9.439   0.056979251590039
                 2.002    0.31320721150073
                0.5456    0.76037674173753
 p    1 1.00
                0.1517                   1
 d    1 1.00
                  0.55                   1

20 0
 s    3 1.00
                 13.01   0.033498726389998
                 1.962    0.23480080117413
                0.4446     0.8136829578829
 s    1 1.00
                 0.122                   1
 p    1 1.00
                 0.727                   1

21 0
 s    8 1.00
                  6665  0.00069158396281299
                  1000  0.0053257961529341
                   228   0.027060721042034
                 64.71    0.10165684614077
                 21.06     0.2745748236174
                 7.495    0.44829431892377
                 2.797    0.28490261071525
                0.5215   0.015194859206082
 s    8 1.00
                  6665  -0.00029326965268655
                  1000  -0.0023180354739745
                   228  -0.011499786038565
                 64.71  -0.046826727009787
                 21.06   -0.12846616875047
                 7.495   -0.30126627246289
                 2.797   -0.25563070233011
                0.5215      1.093793361012
 s    1 1.00
                0.1596                   1
 p    3 1.00
                 9.439   0.056979251590039
                 2.002    0.31320721150073
                0.5456    0.76037674173753
 p    1 1.00
                0.1517                   1
 d    1 1.00
                  0.55                   1

22 0
 s    3 1.00
                 13.01   0.033498726389998
                 1.962    0.23480080117413
                0.4446     0.8136829578829
 s    1 1.00
                 0.122                   1
 p    1 1.00
                 0.727                   1

23 0
 s    3 1.00
                 13.01   0.033498726389998
                 1.962    0.23480080117413
                0.4446     0.8136829578829
 s    1 1.00
                 0.122                   1
 p    1 1.00
                 0.727                   1

24 0
 s    3 1.00
                 13.01   0.033498726389998
                 1.962    0.23480080117413
                0.4446     0.8136829578829
 s    1 1.00
                 0.122                   1
 p    1 1.00
                 0.727                   1

25 0
 s    8 1.00
                  6665  0.00069158396281299
                  1000  0.0053257961529341
                   228   0.027060721042034
                 64.71    0.10165684614077
                 21.06     0.2745748236174
                 7.495    0.44829431892377
                 2.797    0.28490261071525
                0.5215   0.015194859206082
 s    8 1.00
                  6665  -0.00029326965268655
                  1000  -0.0023180354739745
                   228  -0.011499786038565
                 64.71  -0.046826727009787
                 21.06   -0.12846616875047
                 7.495   -0.30126627246289
                 2.797   -0.25563070233011
                0.5215      1.093793361012
 s    1 1.00
                0.1596                   1
 p    3 1.00
                 9.439   0.056979251590039
                 2.002    0.31320721150073
                0.5456    0.76037674173753
 p    1 1.00
                0.1517                   1
 d    1 1.00
                  0.55                   1

26 0
 s    3 1.00
                 13.01   0.033498726389998
                 1.962    0.23480080117413
                0.4446     0.8136829578829
 s    1 1.00
                 0.122                   1
 p    1 1.00
                 0.727                   1

27 0
 s    3 1.00
                 13.01   0.033498726389998
                 1.962    0.23480080117413
                0.4446     0.8136829578829
 s    1 1.00
                 0.122                   1
 p    1 1.00
                 0.727                   1

28 0
 s    8 1.00
                  6665  0.00069158396281299
                  1000  0.0053257961529341
                   228   0.027060721042034
                 64.71    0.10165684614077
                 21.06     0.2745748236174
                 7.495    0.44829431892377
                 2.797    0.28490261071525
                0.5215   0.015194859206082
 s    8 1.00
                  6665  -0.00029326965268655
                  1000  -0.0023180354739745
                   228  -0.011499786038565
                 64.71  -0.046826727009787
                 21.06   -0.12846616875047
                 7.495   -0.30126627246289
                 2.797   -0.25563070233011
                0.5215      1.093793361012
 s    1 1.00
                0.1596                   1
 p    3 1.00
                 9.439   0.056979251590039
                 2.002    0.31320721150073
                0.5456    0.76037674173753
 p    1 1.00
                0.1517                   1
 d    1 1.00
                  0.55                   1

29 0
 s    3 1.00
                 13.01   0.033498726389998
                 1.962    0.23480080117413
                0.4446     0.8136829578829
 s    1 1.00
                 0.122                   1
 p    1 1.00
                 0.727                   1

30 0
 s    3 1.00
                 13.01   0.033498726389998
                 1.962    0.23480080117413
                0.4446     0.8136829578829
 s    1 1.00
                 0.122                   1
 p    1 1.00
                 0.727                   1

31 0
 s    8 1.00
                  6665  0.00069158396281299
                  1000  0.0053257961529341
                   228   0.027060721042034
                 64.71    0.10165684614077
                 21.06     0.2745748236174
                 7.495    0.44829431892377
                 2.797    0.28490261071525
                0.5215   0.015194859206082
 s    8 1.00
                  6665  -0.00029326965268655
                  1000  -0.0023180354739745
                   228  -0.011499786038565
                 64.71  -0.046826727009787
                 21.06   -0.12846616875047
                 7.495   -0.30126627246289
                 2.797   -0.25563070233011
                0.5215      1.093793361012
 s    1 1.00
                0.1596                   1
 p    3 1.00
                 9.439   0.056979251590039
                 2.002    0.31320721150073
                0.5456    0.76037674173753
 p    1 1.00
                0.1517                   1
 d    1 1.00
                  0.55                   1

32 0
 s    3 1.00
                 13.01   0.033498726389998
                 1.962    0.23480080117413
                0.4446     0.8136829578829
 s    1 1.00
                 0.122                   1
 p    1 1.00
                 0.727                   1

33 0
 s    3 1.00
                 13.01   0.033498726389998
                 1.962    0.23480080117413
                0.4446     0.8136829578829
 s    1 1.00
                 0.122                   1
 p    1 1.00
                 0.727                   1

34 0
 s    3 1.00
                 13.01   0.033498726389998
                 1.962    0.23480080117413
                0.4446     0.8136829578829
 s    1 1.00
                 0.122                   1
 p    1 1.00
                 0.727                   1

35 0
 s    3 1.00
                 13.01   0.033498726389998
                 1.962    0.23480080117413
                0.4446     0.8136829578829
 s    1 1.00
                 0.122                   1
 p    1 1.00
                 0.727                   1

36 0
 s    3 1.00
                 13.01   0.033498726389998
                 1.962    0.23480080117413
                0.4446     0.8136829578829
 s    1 1.00
                 0.122                   1
 p    1 1.00
                 0.727                   1

37 0
 s    3 1.00
                 13.01   0.033498726389998
                 1.962    0.23480080117413
                0.4446     0.8136829578829
 s    1 1.00
                 0.122                   1
 p    1 1.00
                 0.727                   1

[5d]
[7f]
[9g]

[MO]
 Sym= A
 Ene=               0
 Spin= Alpha
 Occup=    1.00000
   1    1.1275711780034e-06
   2    4.8897388383171e-06
   3    -1.4256899473034e-05
   4    6.1249115573264e-06
   5    -4.1964549364678e-06
   6    4.9682295733164e-06
   7      3.9324260277e-06
   8    2.3846784933545e-09
   9    1.2799423012634e-05
  10    -2.2357624771175e-06
  11    -3.8271994322282e-07
  12    5.0400465943592e-07
  13    5.1406063162544e-08
  14    6.8207954872942e-08
  15    -2.4974552189203e-06
  16    2.0406780022036e-05
  17    -1.0979938032672e-06
  18    1.2955621424985e-06
  19    8.992220997225e-06
  20    -1.6396206569544e-06
  21    -4.051777674692e-06
  22    3.687380573812e-07
  23    3.9456035186694e-07
  24    -6.8864445457996e-08
  25    -1.7716243891707e-06
  26    -9.4707231278379e-06
  27    -6.4083421555069e-05
  28    1.8721982039978e-05
  29    9.7163589952127e-06
  30    1.8242204763428e-05
  31    4.402084946597e-05
  32    -1.6939001752907e-05
  33    3.6956052632463e-05
  34    -2.4466826823442e-06
  35    -2.5735957039651e-06
  36    1.2816032268249e-06
  37    3.3764775522724e-06
  38    -5.1046890669813e-06
  39    -2.6567373206439e-05
  40    -8.8057240539047e-05
  41    0.00029472635020876
  42    7.045373122075e-05
  43    -5.2907646359826e-05
  44    3.0482740095128e-05
  45    -0.00044761033973497
  46    0.00029323162274813
  47    1.1029993249149e-05
  48    -4.4527728449517e-06
  49    1.9508726460115e-05
  50    -1.1320154304791e-05
  51    1.6472732488256e-05
  52    -3.0978932938846e-05
  53    -3.2547344833667e-05
  54    -2.9272135655131e-05
  55    0.00044094266527312
  56    -4.1667102072056e-05
  57    2.9460586501911e-05
  58    1.2927814925877e-05
  59    -0.0001545215848923
  60    0.00016577809129468
  61    0.00014599371572894
  62    1.6116791181995e-06
  63    -1.3987080979259e-05
  64    6.565137552872e-06
  65    3.7890986123901e-06
  66    -3.7401040410949e-06
  67    -2.5782557986078e-06
  68    0.00017453578423446
  69    -0.00014301989849159
  70    -0.00028395371913707
  71    0.00010724291447912
  72    0.00022627474492182
  73    -0.00063829521426505
  74    0.00033272662540033
  75    -5.3152287248535e-05
  76    1.8528746586471e-05
  77    -4.6772596341364e-05
  78    1.7818270040245e-05
  79    2.9737054631875e-06
  80    9.7799367423337e-06
  81    -3.9737468723744e-05
  82    8.8337215802782e-06
  83    -6.7046496046447e-06
  84    1.7690174251797e-06
  85    -9.3020523037254e-07
  86    2.3007352130197e-06
  87    1.1989621191957e-05
  88    -9.0235207897139e-05
  89    -6.770684493462e-06
  90    3.4281352306752e-06
  91    -2.2855113638366e-06
  92    -7.3991382514024e-05
  93    3.7115890979103e-05
  94    -4.699797933165e-05
  95    8.1051152257237e-07
  96    6.0651586161467e-06
  97    -3.5390733438958e-06
  98    -1.218191177164e-06
  99    1.0959978073714e-06
 100    -1.1101329147872e-06
 101    1.5719244036532e-05
 102    7.4803266879277e-06
 103    -2.4407348944759e-06
 104    -3.4226186839233e-06
 105    -4.2915800457005e-05
 106    3.0682001975509e-06
 107    1.2213819074159e-05
 108    -1.3514191417146e-05
 109    1.7354201043415e-05
 110    -3.9469574814241e-05
 111    2.6935592768264e-05
 112    1.2503798077584e-05
 113    -6.3994476646192e-06
 114    1.8643571487546e-05
 115    -8.6481731776105e-05
 116    -0.0007461077564838
 117    0.00088318646059761
 118    0.00077368427328293
 119    -0.00044053651984979
 120    -7.0210006357334e-05
 121    -0.00039883042572562
 122    0.00030592074300874
 123    -0.00028928002610593
 124    4.5636592369875e-07
 125    -5.9118459546236e-06
 126    -2.3965011334621e-06
 127    4.6967252950042e-06
 128    -7.085536666149e-06
 129    8.3779993191942e-06
 130    4.4055745007364e-06
 131    5.6636974364675e-06
 132    -2.7364779573372e-06
 133    9.754998925942e-07
 134    -2.5253277495126e-06
 135    -3.8189224688983e-05
 136    -3.310038292586e-06
 137    1.2796582727377e-06
 138    -1.6931482687472e-06
 139    -8.7858681235234e-06
 140    -1.4192922206667e-05
 141    8.6747219773919e-05
 142    2.4851600657889e-06
 143    -6.9186667556493e-07
 144    -5.7325036166597e-07
 145    -4.7394897054358e-05
 146    7.4143414178174e-06
 147    8.827514871945e-05
 148    6.8867486793727e-07
 149    -4.0390898969019e-06
 150    3.2981212608348e-06
 151    1.8570339535157e-06
 152    -3.8720241752725e-06
 153    -0.00034344223788765
 154    -1.1940328307553e-05
 155    5.6265624689164e-05
 156    -3.0413440027043e-06
 157    3.3222717135525e-05
 158    -0.00033380657300794
 159    6.8746271783604e-06
 160    2.4581725940674e-05
 161    -5.7023539349192e-05
 162    2.0294818426878e-05
 163    -0.00060663536928167
 164    -0.00026330809825885
 165    -0.00035552179018679
 166    -0.00028805778694428
 167    0.00038093119374183
 168    -0.00081790400887324
 169    -0.0014205437706624
 170    0.0010476500118372
 171    -0.00094629074405526
 172    -2.2214827407027e-06
 173    -7.8992318052287e-05
 174    4.5111391321238e-05
 175    1.0617657841747e-05
 176    1.3847448787609e-05
 177    -4.4608301171041e-06
 178    -1.4888916098942e-05
 179    2.7241521681556e-06
 180    3.6101927897763e-07
 181    -2.3547902474317e-06
 182    -1.0269918519281e-06
 183    -2.3592311341972e-06
 184    1.731131984795e-05
 185    4.9943523035429e-07
 186    7.3970323282008e-07
 187    -1.164067404324e-06
 188    -1.0131598996683e-05
 189    -1.4246737212336e-05
 190    9.2934707232387e-07
 191    -8.2444622980859e-07
 192    -2.0569076764264e-07
 193    -8.2058778627735e-07
 194    -7.195388991754e-07
 195    1.9500491092674e-06
 196    -2.9920768207179e-06
 197    1.6155294583641e-05
 198    1.9220608735285e-06
 199    2.2115906640959e-06
 200    -2.4681072848938e-06
 201    0.00033038053239184
 202    -3.9975520421232e-05
 203    8.3593699448754e-05
 204    -4.7720486560922e-05
 205    3.5674893774942e-05
 206    0.00036702013420846
 207    -1.8064458467999e-05
 208    7.5251956843851e-05
 209    -6.1682174666989e-05
 210    3.4433744550517e-05
 211    -0.029607358570241
 212    -0.00016654269352608
 213    0.0020836839268714
 214    -0.0001339366583851
 215    0.00010191362499125
 216    -2.3449067814354e-05
 217    -0.001096854121085
 218    0.00074337474362737
 219    -0.00041974779354914
 220    1.2665024656864e-05
 221    -7.5113803483115e-05
 222    7.6899659051434e-05
 223    -6.1923133400269e-05
 224    0.00015236293659738
 225    -6.0710022294645e-07
 226    5.8055099319346e-06
 227    9.6118326527282e-08
 228    5.7188299804465e-07
 229    -3.8546636285461e-07
 230    -6.7193597803208e-09
 231    3.5278545392141e-06
 232    2.064352817569e-07
 233    4.8154948077367e-07
 234    7.902021026418e-07
 235    -8.9181046277234e-05
 236    -4.6448668118572e-06
 237    9.7934179546995e-06
 238    2.0684108426552e-07
 239    1.1771539751678e-06
 240    -1.1441984851893e-06
 241    -1.0235848059067e-05
 242    -6.5011094827268e-06
 243    1.2867210016017e-05
 244    7.6979611711718e-08
 245    -1.3481121288015e-06
 246    4.3119513437679e-07
 247    8.7672268283359e-08
 248    8.4715819032184e-08
 249    -6.9923092205184e-05
 250    0.00014447927689698
 251    -2.8259529247237e-05
 252    8.0030221313351e-06
 253    -5.1525255807973e-05
 254    -9.1276573754696e-05
 255    0.00013910139546149
 256    -1.189956953547e-05
 257    3.5828896640051e-05
 258    -4.3832780308403e-05
 259       1.0019800978352
 260    0.0048470376046692
 261    -0.0099437137509405
 262    -0.00014830104890867