[Molden Format]
made by pyscf v[2.0.1]
[Atoms] (AU)
O   1   8     0.00000000000000     0.00000000000000     7.91818878616346
H   2   1     0.00000000000000     0.00000000000000     6.09478696426249
H   3   1    -0.05031916615174     1.78353065140343     8.29406048263013
O   4   8     0.00000000000000     0.00000000000000     2.31533471513237
C   5   6     0.00000000000000     0.00000000000000     0.00000000000000
C   6   6     2.01118073026938    -1.40227222164369    -1.50774939176400
C   7   6    -2.01249334291722     1.41331050329955    -1.50315905028694
H   8   1     3.32037363730244    -2.26721897153159    -0.13599698591495
C   9   6     3.45899267434009     0.28739631745591    -3.37437943254505
H   10   1     1.07662969841332    -2.94725144642667    -2.56541439481080
H   11   1    -2.67503415753480     0.18421555839588    -3.06194479365997
H   12   1    -1.07974048864772     3.03851734677796    -2.43674295017013
C   13   6    -4.21607110578555     2.32938802552922     0.11994162256091
H   14   1     4.24440173074564     1.93368664142019    -2.34976285512790
H   15   1     2.15020713235517     1.04714335134846    -4.81494497423699
C   16   6     5.60746363007797    -1.12419643481196    -4.70268606082550
H   17   1    -3.46838323670267     3.50951302338067     1.66946842715333
H   18   1    -5.11873485366228     0.68575958301209     1.04047743976495
C   19   6    -6.18314754751344     3.80909592987882    -1.39656589068747
H   20   1     6.93011263717176    -1.87550812453645    -3.26656317360070
C   21   6     7.06356622236532     0.52877932406334    -6.57829775293605
H   22   1     4.82318879258361    -2.78573437948532    -5.70504560381835
H   23   1    -6.91582688743803     2.61304780074712    -2.95074552451969
H   24   1    -5.26532430573853     5.45420349051338    -2.31005832200284
C   25   6    -8.39941882261433     4.73263980500213     0.21800571437956
H   26   1     7.83338371486801     2.19084139882824    -5.57093109900697
H   27   1     5.73544244039420     1.27376866537418    -8.01071492370229
C   28   6     9.21124858443101    -0.89699110072176    -7.88926949186242
H   29   1    -7.66272760055236     5.92277078003992     1.77035591474408
H   30   1    -9.31497248082589     3.08753015622020     1.12614408368786
C   31   6   -10.35481709231879     6.21833079391143    -1.30905206253246
H   32   1    10.58815905329501    -1.61074586756696    -6.49512691622620
H   33   1    10.23506248045667     0.32468009384095    -9.23072870921204
H   34   1     8.47665842847139    -2.53598436989925    -8.94921964622535
H   35   1    -9.48948872868064     7.90013588951020    -2.18823918416067
H   36   1   -11.93332513000955     6.86460487874102    -0.11255798845995
H   37   1   -11.15126291841033     5.04495968327630    -2.83849898862534
[GTO]
1 0
 s    8 1.00
                 11720  0.00070964594651845
                  1759  0.0054672722921914
                 400.8   0.027823118610189
                 113.7    0.10474773971146
                 37.03    0.28292084635691
                 13.27    0.44849523869833
                 5.025    0.27081688521277
                 1.013    0.01545029160744
 s    8 1.00
                 11720  -0.00031444341168873
                  1759  -0.0024821376810179
                 400.8  -0.012316355381583
                 113.7  -0.050538917343672
                 37.03   -0.13938490331632
                 13.27   -0.32507749481778
                 5.025   -0.22984830758785
                 1.013     1.0953793467883
 s    1 1.00
                0.3023                   1
 p    3 1.00
                  17.7   0.062679166281506
                 3.854    0.33353656587936
                 1.046    0.74123964163973
 p    1 1.00
                0.2753                   1
 d    1 1.00
                 1.185                   1

2 0
 s    3 1.00
                 13.01   0.033498726389998
                 1.962    0.23480080117413
                0.4446     0.8136829578829
 s    1 1.00
                 0.122                   1
 p    1 1.00
                 0.727                   1

3 0
 s    3 1.00
                 13.01   0.033498726389998
                 1.962    0.23480080117413
                0.4446     0.8136829578829
 s    1 1.00
                 0.122                   1
 p    1 1.00
                 0.727                   1

4 0
 s    8 1.00
                 11720  0.00070964594651845
                  1759  0.0054672722921914
                 400.8   0.027823118610189
                 113.7    0.10474773971146
                 37.03    0.28292084635691
                 13.27    0.44849523869833
                 5.025    0.27081688521277
                 1.013    0.01545029160744
 s    8 1.00
                 11720  -0.00031444341168873
                  1759  -0.0024821376810179
                 400.8  -0.012316355381583
                 113.7  -0.050538917343672
                 37.03   -0.13938490331632
                 13.27   -0.32507749481778
                 5.025   -0.22984830758785
                 1.013     1.0953793467883
 s    1 1.00
                0.3023                   1
 p    3 1.00
                  17.7   0.062679166281506
                 3.854    0.33353656587936
                 1.046    0.74123964163973
 p    1 1.00
                0.2753                   1
 d    1 1.00
                 1.185                   1

5 0
 s    8 1.00
                  6665  0.00069158396281299
                  1000  0.0053257961529341
                   228   0.027060721042034
                 64.71    0.10165684614077
                 21.06     0.2745748236174
                 7.495    0.44829431892377
                 2.797    0.28490261071525
                0.5215   0.015194859206082
 s    8 1.00
                  6665  -0.00029326965268655
                  1000  -0.0023180354739745
                   228  -0.011499786038565
                 64.71  -0.046826727009787
                 21.06   -0.12846616875047
                 7.495   -0.30126627246289
                 2.797   -0.25563070233011
                0.5215      1.093793361012
 s    1 1.00
                0.1596                   1
 p    3 1.00
                 9.439   0.056979251590039
                 2.002    0.31320721150073
                0.5456    0.76037674173753
 p    1 1.00
                0.1517                   1
 d    1 1.00
                  0.55                   1

6 0
 s    8 1.00
                  6665  0.00069158396281299
                  1000  0.0053257961529341
                   228   0.027060721042034
                 64.71    0.10165684614077
                 21.06     0.2745748236174
                 7.495    0.44829431892377
                 2.797    0.28490261071525
                0.5215   0.015194859206082
 s    8 1.00
                  6665  -0.00029326965268655
                  1000  -0.0023180354739745
                   228  -0.011499786038565
                 64.71  -0.046826727009787
                 21.06   -0.12846616875047
                 7.495   -0.30126627246289
                 2.797   -0.25563070233011
                0.5215      1.093793361012
 s    1 1.00
                0.1596                   1
 p    3 1.00
                 9.439   0.056979251590039
                 2.002    0.31320721150073
                0.5456    0.76037674173753
 p    1 1.00
                0.1517                   1
 d    1 1.00
                  0.55                   1

7 0
 s    8 1.00
                  6665  0.00069158396281299
                  1000  0.0053257961529341
                   228   0.027060721042034
                 64.71    0.10165684614077
                 21.06     0.2745748236174
                 7.495    0.44829431892377
                 2.797    0.28490261071525
                0.5215   0.015194859206082
 s    8 1.00
                  6665  -0.00029326965268655
                  1000  -0.0023180354739745
                   228  -0.011499786038565
                 64.71  -0.046826727009787
                 21.06   -0.12846616875047
                 7.495   -0.30126627246289
                 2.797   -0.25563070233011
                0.5215      1.093793361012
 s    1 1.00
                0.1596                   1
 p    3 1.00
                 9.439   0.056979251590039
                 2.002    0.31320721150073
                0.5456    0.76037674173753
 p    1 1.00
                0.1517                   1
 d    1 1.00
                  0.55                   1

8 0
 s    3 1.00
                 13.01   0.033498726389998
                 1.962    0.23480080117413
                0.4446     0.8136829578829
 s    1 1.00
                 0.122                   1
 p    1 1.00
                 0.727                   1

9 0
 s    8 1.00
                  6665  0.00069158396281299
                  1000  0.0053257961529341
                   228   0.027060721042034
                 64.71    0.10165684614077
                 21.06     0.2745748236174
                 7.495    0.44829431892377
                 2.797    0.28490261071525
                0.5215   0.015194859206082
 s    8 1.00
                  6665  -0.00029326965268655
                  1000  -0.0023180354739745
                   228  -0.011499786038565
                 64.71  -0.046826727009787
                 21.06   -0.12846616875047
                 7.495   -0.30126627246289
                 2.797   -0.25563070233011
                0.5215      1.093793361012
 s    1 1.00
                0.1596                   1
 p    3 1.00
                 9.439   0.056979251590039
                 2.002    0.31320721150073
                0.5456    0.76037674173753
 p    1 1.00
                0.1517                   1
 d    1 1.00
                  0.55                   1

10 0
 s    3 1.00
                 13.01   0.033498726389998
                 1.962    0.23480080117413
                0.4446     0.8136829578829
 s    1 1.00
                 0.122                   1
 p    1 1.00
                 0.727                   1

11 0
 s    3 1.00
                 13.01   0.033498726389998
                 1.962    0.23480080117413
                0.4446     0.8136829578829
 s    1 1.00
                 0.122                   1
 p    1 1.00
                 0.727                   1

12 0
 s    3 1.00
                 13.01   0.033498726389998
                 1.962    0.23480080117413
                0.4446     0.8136829578829
 s    1 1.00
                 0.122                   1
 p    1 1.00
                 0.727                   1

13 0
 s    8 1.00
                  6665  0.00069158396281299
                  1000  0.0053257961529341
                   228   0.027060721042034
                 64.71    0.10165684614077
                 21.06     0.2745748236174
                 7.495    0.44829431892377
                 2.797    0.28490261071525
                0.5215   0.015194859206082
 s    8 1.00
                  6665  -0.00029326965268655
                  1000  -0.0023180354739745
                   228  -0.011499786038565
                 64.71  -0.046826727009787
                 21.06   -0.12846616875047
                 7.495   -0.30126627246289
                 2.797   -0.25563070233011
                0.5215      1.093793361012
 s    1 1.00
                0.1596                   1
 p    3 1.00
                 9.439   0.056979251590039
                 2.002    0.31320721150073
                0.5456    0.76037674173753
 p    1 1.00
                0.1517                   1
 d    1 1.00
                  0.55                   1

14 0
 s    3 1.00
                 13.01   0.033498726389998
                 1.962    0.23480080117413
                0.4446     0.8136829578829
 s    1 1.00
                 0.122                   1
 p    1 1.00
                 0.727                   1

15 0
 s    3 1.00
                 13.01   0.033498726389998
                 1.962    0.23480080117413
                0.4446     0.8136829578829
 s    1 1.00
                 0.122                   1
 p    1 1.00
                 0.727                   1

16 0
 s    8 1.00
                  6665  0.00069158396281299
                  1000  0.0053257961529341
                   228   0.027060721042034
                 64.71    0.10165684614077
                 21.06     0.2745748236174
                 7.495    0.44829431892377
                 2.797    0.28490261071525
                0.5215   0.015194859206082
 s    8 1.00
                  6665  -0.00029326965268655
                  1000  -0.0023180354739745
                   228  -0.011499786038565
                 64.71  -0.046826727009787
                 21.06   -0.12846616875047
                 7.495   -0.30126627246289
                 2.797   -0.25563070233011
                0.5215      1.093793361012
 s    1 1.00
                0.1596                   1
 p    3 1.00
                 9.439   0.056979251590039
                 2.002    0.31320721150073
                0.5456    0.76037674173753
 p    1 1.00
                0.1517                   1
 d    1 1.00
                  0.55                   1

17 0
 s    3 1.00
                 13.01   0.033498726389998
                 1.962    0.23480080117413
                0.4446     0.8136829578829
 s    1 1.00
                 0.122                   1
 p    1 1.00
                 0.727                   1

18 0
 s    3 1.00
                 13.01   0.033498726389998
                 1.962    0.23480080117413
                0.4446     0.8136829578829
 s    1 1.00
                 0.122                   1
 p    1 1.00
                 0.727                   1

19 0
 s    8 1.00
                  6665  0.00069158396281299
                  1000  0.0053257961529341
                   228   0.027060721042034
                 64.71    0.10165684614077
                 21.06     0.2745748236174
                 7.495    0.44829431892377
                 2.797    0.28490261071525
                0.5215   0.015194859206082
 s    8 1.00
                  6665  -0.00029326965268655
                  1000  -0.0023180354739745
                   228  -0.011499786038565
                 64.71  -0.046826727009787
                 21.06   -0.12846616875047
                 7.495   -0.30126627246289
                 2.797   -0.25563070233011
                0.5215      1.093793361012
 s    1 1.00
                0.1596                   1
 p    3 1.00
                 9.439   0.056979251590039
                 2.002    0.31320721150073
                0.5456    0.76037674173753
 p    1 1.00
                0.1517                   1
 d    1 1.00
                  0.55                   1

20 0
 s    3 1.00
                 13.01   0.033498726389998
                 1.962    0.23480080117413
                0.4446     0.8136829578829
 s    1 1.00
                 0.122                   1
 p    1 1.00
                 0.727                   1

21 0
 s    8 1.00
                  6665  0.00069158396281299
                  1000  0.0053257961529341
                   228   0.027060721042034
                 64.71    0.10165684614077
                 21.06     0.2745748236174
                 7.495    0.44829431892377
                 2.797    0.28490261071525
                0.5215   0.015194859206082
 s    8 1.00
                  6665  -0.00029326965268655
                  1000  -0.0023180354739745
                   228  -0.011499786038565
                 64.71  -0.046826727009787
                 21.06   -0.12846616875047
                 7.495   -0.30126627246289
                 2.797   -0.25563070233011
                0.5215      1.093793361012
 s    1 1.00
                0.1596                   1
 p    3 1.00
                 9.439   0.056979251590039
                 2.002    0.31320721150073
                0.5456    0.76037674173753
 p    1 1.00
                0.1517                   1
 d    1 1.00
                  0.55                   1

22 0
 s    3 1.00
                 13.01   0.033498726389998
                 1.962    0.23480080117413
                0.4446     0.8136829578829
 s    1 1.00
                 0.122                   1
 p    1 1.00
                 0.727                   1

23 0
 s    3 1.00
                 13.01   0.033498726389998
                 1.962    0.23480080117413
                0.4446     0.8136829578829
 s    1 1.00
                 0.122                   1
 p    1 1.00
                 0.727                   1

24 0
 s    3 1.00
                 13.01   0.033498726389998
                 1.962    0.23480080117413
                0.4446     0.8136829578829
 s    1 1.00
                 0.122                   1
 p    1 1.00
                 0.727                   1

25 0
 s    8 1.00
                  6665  0.00069158396281299
                  1000  0.0053257961529341
                   228   0.027060721042034
                 64.71    0.10165684614077
                 21.06     0.2745748236174
                 7.495    0.44829431892377
                 2.797    0.28490261071525
                0.5215   0.015194859206082
 s    8 1.00
                  6665  -0.00029326965268655
                  1000  -0.0023180354739745
                   228  -0.011499786038565
                 64.71  -0.046826727009787
                 21.06   -0.12846616875047
                 7.495   -0.30126627246289
                 2.797   -0.25563070233011
                0.5215      1.093793361012
 s    1 1.00
                0.1596                   1
 p    3 1.00
                 9.439   0.056979251590039
                 2.002    0.31320721150073
                0.5456    0.76037674173753
 p    1 1.00
                0.1517                   1
 d    1 1.00
                  0.55                   1

26 0
 s    3 1.00
                 13.01   0.033498726389998
                 1.962    0.23480080117413
                0.4446     0.8136829578829
 s    1 1.00
                 0.122                   1
 p    1 1.00
                 0.727                   1

27 0
 s    3 1.00
                 13.01   0.033498726389998
                 1.962    0.23480080117413
                0.4446     0.8136829578829
 s    1 1.00
                 0.122                   1
 p    1 1.00
                 0.727                   1

28 0
 s    8 1.00
                  6665  0.00069158396281299
                  1000  0.0053257961529341
                   228   0.027060721042034
                 64.71    0.10165684614077
                 21.06     0.2745748236174
                 7.495    0.44829431892377
                 2.797    0.28490261071525
                0.5215   0.015194859206082
 s    8 1.00
                  6665  -0.00029326965268655
                  1000  -0.0023180354739745
                   228  -0.011499786038565
                 64.71  -0.046826727009787
                 21.06   -0.12846616875047
                 7.495   -0.30126627246289
                 2.797   -0.25563070233011
                0.5215      1.093793361012
 s    1 1.00
                0.1596                   1
 p    3 1.00
                 9.439   0.056979251590039
                 2.002    0.31320721150073
                0.5456    0.76037674173753
 p    1 1.00
                0.1517                   1
 d    1 1.00
                  0.55                   1

29 0
 s    3 1.00
                 13.01   0.033498726389998
                 1.962    0.23480080117413
                0.4446     0.8136829578829
 s    1 1.00
                 0.122                   1
 p    1 1.00
                 0.727                   1

30 0
 s    3 1.00
                 13.01   0.033498726389998
                 1.962    0.23480080117413
                0.4446     0.8136829578829
 s    1 1.00
                 0.122                   1
 p    1 1.00
                 0.727                   1

31 0
 s    8 1.00
                  6665  0.00069158396281299
                  1000  0.0053257961529341
                   228   0.027060721042034
                 64.71    0.10165684614077
                 21.06     0.2745748236174
                 7.495    0.44829431892377
                 2.797    0.28490261071525
                0.5215   0.015194859206082
 s    8 1.00
                  6665  -0.00029326965268655
                  1000  -0.0023180354739745
                   228  -0.011499786038565
                 64.71  -0.046826727009787
                 21.06   -0.12846616875047
                 7.495   -0.30126627246289
                 2.797   -0.25563070233011
                0.5215      1.093793361012
 s    1 1.00
                0.1596                   1
 p    3 1.00
                 9.439   0.056979251590039
                 2.002    0.31320721150073
                0.5456    0.76037674173753
 p    1 1.00
                0.1517                   1
 d    1 1.00
                  0.55                   1

32 0
 s    3 1.00
                 13.01   0.033498726389998
                 1.962    0.23480080117413
                0.4446     0.8136829578829
 s    1 1.00
                 0.122                   1
 p    1 1.00
                 0.727                   1

33 0
 s    3 1.00
                 13.01   0.033498726389998
                 1.962    0.23480080117413
                0.4446     0.8136829578829
 s    1 1.00
                 0.122                   1
 p    1 1.00
                 0.727                   1

34 0
 s    3 1.00
                 13.01   0.033498726389998
                 1.962    0.23480080117413
                0.4446     0.8136829578829
 s    1 1.00
                 0.122                   1
 p    1 1.00
                 0.727                   1

35 0
 s    3 1.00
                 13.01   0.033498726389998
                 1.962    0.23480080117413
                0.4446     0.8136829578829
 s    1 1.00
                 0.122                   1
 p    1 1.00
                 0.727                   1

36 0
 s    3 1.00
                 13.01   0.033498726389998
                 1.962    0.23480080117413
                0.4446     0.8136829578829
 s    1 1.00
                 0.122                   1
 p    1 1.00
                 0.727                   1

37 0
 s    3 1.00
                 13.01   0.033498726389998
                 1.962    0.23480080117413
                0.4446     0.8136829578829
 s    1 1.00
                 0.122                   1
 p    1 1.00
                 0.727                   1

[5d]
[7f]
[9g]

[MO]
 Sym= A
 Ene=               0
 Spin= Alpha
 Occup=    1.00000
   1    7.6156114046184e-08
   2    1.8675444527804e-06
   3    -6.7366280843054e-06
   4    3.4703073678947e-06
   5    -2.3852325078057e-06
   6    3.2519241578314e-06
   7    2.3822244148555e-06
   8    -4.8384290805756e-07
   9    6.4683284613514e-06
  10    -1.3958592621827e-06
  11    -1.7169043419986e-07
  12    2.4544047629132e-07
  13    4.2613534361836e-08
  14    5.4865070585751e-08
  15    -9.4165934092121e-07
  16    9.7441152983942e-06
  17    -3.243188232272e-07
  18    5.0062411381054e-07
  19    6.3125112466927e-06
  20    -1.0276915740244e-06
  21    -1.5883031149592e-06
  22    2.0753849732408e-07
  23    1.8602997436322e-07
  24    -1.8777096022285e-08
  25    -1.2081922596827e-06
  26    -8.671031310993e-06
  27    -6.8073138486083e-05
  28    1.9143822927735e-05
  29    9.5467917819421e-06
  30    1.7946955575826e-05
  31    4.3591297909187e-05
  32    -1.6787915486636e-05
  33    3.6543512517989e-05
  34    -3.2531800568796e-06
  35    -2.6013545449425e-06
  36    1.221553995041e-06
  37    3.3746974505106e-06
  38    -5.0959571368743e-06
  39    -2.5987095483595e-05
  40    -8.6871271996934e-05
  41    0.00028882484552747
  42    7.0266372816163e-05
  43    -5.2056019422477e-05
  44    3.0123292987535e-05
  45    -0.0004440295554884
  46    0.0002915239846996
  47    2.1176018354938e-05
  48    -3.75812521367e-06
  49    1.9500148000294e-05
  50    -1.1251341741529e-05
  51    1.623196652464e-05
  52    -3.0473240918713e-05
  53    -3.246060417258e-05
  54    -2.9055660958827e-05
  55    0.00044282914740759
  56    -4.1643372884396e-05
  57    2.944809914574e-05
  58      1.3181570257e-05
  59    -0.00015749302992525
  60    0.00016721162293479
  61    0.00014208926042148
  62    1.285851182752e-06
  63    -1.413660084646e-05
  64    6.6670903926069e-06
  65    3.8108094496244e-06
  66    -3.8400728273192e-06
  67    -2.8774576231946e-06
  68    0.00017379298309585
  69    -0.00013709467632628
  70    -0.00028395412854101
  71    0.00010719976115774
  72    0.0002260879977773
  73    -0.00063345785265693
  74    0.00032908306904908
  75    -5.3747626749212e-05
  76    1.8058166175546e-05
  77    -4.6507596735999e-05
  78    1.7747952868336e-05
  79    3.1896469466561e-06
  80    9.3440743431652e-06
  81    -3.9046143340189e-05
  82    1.1037292496166e-05
  83    -6.7178400566597e-06
  84    1.7997732288847e-06
  85    -1.1811651958295e-06
  86    2.3395650657014e-06
  87    1.2011205995388e-05
  88    -9.2046262157478e-05
  89    -6.790870776877e-06
  90    3.4353054364763e-06
  91    -2.4810331785101e-06
  92    -7.3324682387915e-05
  93    3.9364216653112e-05
  94    -4.5536131514665e-05
  95    8.8474633953795e-07
  96    6.1062495032432e-06
  97    -3.5205735989029e-06
  98    -1.2274008706692e-06
  99    9.9872107772682e-07
 100    -1.3791675578932e-06
 101    1.5148934466911e-05
 102    7.4671189706428e-06
 103    -2.5328942041691e-06
 104    -3.1614775057846e-06
 105    -4.3313325781323e-05
 106    2.0054893875773e-06
 107    1.2053910286067e-05
 108    -1.3507948108549e-05
 109    1.7423278418996e-05
 110    -3.9954740446683e-05
 111    2.6362761488064e-05
 112    1.2430393286856e-05
 113    -6.3076723433374e-06
 114    1.8774501671826e-05
 115    -8.5853486475712e-05
 116    -0.00074433320311567
 117    0.00088230817005648
 118    0.00077443401574093
 119    -0.00044069988112989
 120    -7.1474628168611e-05
 121    -0.00039737008404535
 122    0.00030512090196644
 123    -0.00029068215163542
 124    6.327693682409e-07
 125    -6.1200719448921e-06
 126    -2.3819891487333e-06
 127    4.4854574698896e-06
 128    -6.7240316941631e-06
 129    8.0144038899549e-06
 130    3.3142950453403e-06
 131    5.6826749976989e-06
 132    -2.7087045452944e-06
 133    9.8594397136599e-07
 134    -2.271014654128e-06
 135    -3.8480702454379e-05
 136    -3.2381774391571e-06
 137    1.1943755207743e-06
 138    -1.9355968958572e-06
 139    -8.949851671773e-06
 140    -1.4482056048026e-05
 141    8.8796743531121e-05
 142    2.5092062230948e-06
 143    -6.6133336783851e-07
 144    -5.2974258755324e-07
 145    -4.8820488945093e-05
 146    7.4697136968484e-06
 147    8.8159490138316e-05
 148    6.5575090511056e-07
 149    -4.0440114390814e-06
 150    3.2580912229324e-06
 151    1.9458461502327e-06
 152    -3.9194434844455e-06
 153    -0.00034340942094471
 154    -9.8864618812322e-06
 155    5.6231569352358e-05
 156    -3.2170052446303e-06
 157    3.297905445733e-05
 158    -0.00033390247241279
 159    7.8573737460288e-06
 160    2.4630998709887e-05
 161    -5.6921604075314e-05
 162    2.0151909869803e-05
 163    -0.00060697114438864
 164    -0.0002654046618629
 165    -0.00035575337532871
 166    -0.00028541885482411
 167    0.00038057880044359
 168    -0.00082138694756737
 169    -0.0014173389216157
 170    0.0010463826617364
 171    -0.00094825276311971
 172    -2.3989112458631e-06
 173    -7.8480165671295e-05
 174    4.487959539053e-05
 175      1.0483524241e-05
 176      1.3860426409e-05
 177    -4.4248971142221e-06
 178    -1.4743369213289e-05
 179    2.784552981095e-06
 180    3.7990179803136e-07
 181    -2.3575556724835e-06
 182    -9.9180489213017e-07
 183    -2.3290339104812e-06
 184    1.6731073698496e-05
 185    5.0222219397222e-07
 186    7.6372205546561e-07
 187    -1.1796425584381e-06
 188    -9.8433183954929e-06
 189    -1.4197969745586e-05
 190    1.2137375346926e-06
 191    -7.8852649227256e-07
 192    -1.9835693775571e-07
 193    -8.488024303289e-07
 194    -7.3269173410343e-07
 195    1.9312027040445e-06
 196    -3.2023328229329e-06
 197    1.5820953690312e-05
 198    1.9571109916811e-06
 199    2.2064195026648e-06
 200    -2.4693240529465e-06
 201    0.00033097662422762
 202    -3.924894370868e-05
 203    8.3461015207592e-05
 204    -4.7590766507658e-05
 205    3.563269390547e-05
 206    0.00036814345858107
 207    -1.7193636025357e-05
 208    7.5080522510094e-05
 209    -6.1631116349051e-05
 210    3.4408453136266e-05
 211    -0.029361183090882
 212    -0.00016813861681385
 213    0.0020823177419587
 214    -0.00013695340648923
 215    0.00010325477708306
 216    -2.1469685099446e-05
 217    -0.0010991010777116
 218    0.00074471246478128
 219    -0.00041931561467468
 220    1.2659443867778e-05
 221    -7.4575649918134e-05
 222    7.6576476389889e-05
 223    -6.1986659541568e-05
 224    0.00015226337689984
 225    -6.0606229284582e-07
 226    5.7582624572859e-06
 227    8.5481807229526e-08
 228    5.7206388001836e-07
 229    -4.020762216108e-07
 230    2.5206133148033e-08
 231    3.9112755505198e-06
 232    2.131141293129e-07
 233    4.7428808517715e-07
 234    8.1279629883398e-07
 235    -8.7916386473135e-05
 236    -4.7095063942819e-06
 237    1.0009995931751e-05
 238    2.1845586401745e-07
 239    1.1854915525134e-06
 240    -1.1625797101984e-06
 241    -1.0437470343896e-05
 242    -6.5932118250651e-06
 243    1.2995288778919e-05
 244    7.1733023847757e-08
 245    -1.3521421026442e-06
 246    4.2068690121891e-07
 247    1.0771865735224e-07
 248    6.6396471345313e-08
 249    -6.9655205331723e-05
 250    0.00014491082286234
 251    -2.8258637974907e-05
 252    8.0753191637224e-06
 253    -5.1331573482896e-05
 254    -9.1017211859113e-05
 255    0.00013985394911223
 256    -1.1964247095957e-05
 257    3.5741667216953e-05
 258    -4.3694488191059e-05
 259       1.0019873415111
 260    0.0048469520877794
 261    -0.0099447082034202
 262    -0.00015021574284873
 263    0.00012261236659139