[Molden Format]
made by pyscf v[2.0.1]
[Atoms] (AU)
O   1   8     0.00000000000000     0.00000000000000    11.31969581038057
H   2   1     0.00000000000000     0.00000000000000     9.49629398847960
H   3   1    -0.05031916615174     1.78353065140343    11.69556750684724
O   4   8     0.00000000000000     0.00000000000000     2.31533471513237
C   5   6     0.00000000000000     0.00000000000000     0.00000000000000
C   6   6     2.01118073026938    -1.40227222164369    -1.50774939176400
C   7   6    -2.01249334291722     1.41331050329955    -1.50315905028694
H   8   1     3.32037363730244    -2.26721897153159    -0.13599698591495
C   9   6     3.45899267434009     0.28739631745591    -3.37437943254505
H   10   1     1.07662969841332    -2.94725144642667    -2.56541439481080
H   11   1    -2.67503415753480     0.18421555839588    -3.06194479365997
H   12   1    -1.07974048864772     3.03851734677796    -2.43674295017013
C   13   6    -4.21607110578555     2.32938802552922     0.11994162256091
H   14   1     4.24440173074564     1.93368664142019    -2.34976285512790
H   15   1     2.15020713235517     1.04714335134846    -4.81494497423699
C   16   6     5.60746363007797    -1.12419643481196    -4.70268606082550
H   17   1    -3.46838323670267     3.50951302338067     1.66946842715333
H   18   1    -5.11873485366228     0.68575958301209     1.04047743976495
C   19   6    -6.18314754751344     3.80909592987882    -1.39656589068747
H   20   1     6.93011263717176    -1.87550812453645    -3.26656317360070
C   21   6     7.06356622236532     0.52877932406334    -6.57829775293605
H   22   1     4.82318879258361    -2.78573437948532    -5.70504560381835
H   23   1    -6.91582688743803     2.61304780074712    -2.95074552451969
H   24   1    -5.26532430573853     5.45420349051338    -2.31005832200284
C   25   6    -8.39941882261433     4.73263980500213     0.21800571437956
H   26   1     7.83338371486801     2.19084139882824    -5.57093109900697
H   27   1     5.73544244039420     1.27376866537418    -8.01071492370229
C   28   6     9.21124858443101    -0.89699110072176    -7.88926949186242
H   29   1    -7.66272760055236     5.92277078003992     1.77035591474408
H   30   1    -9.31497248082589     3.08753015622020     1.12614408368786
C   31   6   -10.35481709231879     6.21833079391143    -1.30905206253246
H   32   1    10.58815905329501    -1.61074586756696    -6.49512691622620
H   33   1    10.23506248045667     0.32468009384095    -9.23072870921204
H   34   1     8.47665842847139    -2.53598436989925    -8.94921964622535
H   35   1    -9.48948872868064     7.90013588951020    -2.18823918416067
H   36   1   -11.93332513000955     6.86460487874102    -0.11255798845995
H   37   1   -11.15126291841033     5.04495968327630    -2.83849898862534
[GTO]
1 0
 s    8 1.00
                 11720  0.00070964594651845
                  1759  0.0054672722921914
                 400.8   0.027823118610189
                 113.7    0.10474773971146
                 37.03    0.28292084635691
                 13.27    0.44849523869833
                 5.025    0.27081688521277
                 1.013    0.01545029160744
 s    8 1.00
                 11720  -0.00031444341168873
                  1759  -0.0024821376810179
                 400.8  -0.012316355381583
                 113.7  -0.050538917343672
                 37.03   -0.13938490331632
                 13.27   -0.32507749481778
                 5.025   -0.22984830758785
                 1.013     1.0953793467883
 s    1 1.00
                0.3023                   1
 p    3 1.00
                  17.7   0.062679166281506
                 3.854    0.33353656587936
                 1.046    0.74123964163973
 p    1 1.00
                0.2753                   1
 d    1 1.00
                 1.185                   1

2 0
 s    3 1.00
                 13.01   0.033498726389998
                 1.962    0.23480080117413
                0.4446     0.8136829578829
 s    1 1.00
                 0.122                   1
 p    1 1.00
                 0.727                   1

3 0
 s    3 1.00
                 13.01   0.033498726389998
                 1.962    0.23480080117413
                0.4446     0.8136829578829
 s    1 1.00
                 0.122                   1
 p    1 1.00
                 0.727                   1

4 0
 s    8 1.00
                 11720  0.00070964594651845
                  1759  0.0054672722921914
                 400.8   0.027823118610189
                 113.7    0.10474773971146
                 37.03    0.28292084635691
                 13.27    0.44849523869833
                 5.025    0.27081688521277
                 1.013    0.01545029160744
 s    8 1.00
                 11720  -0.00031444341168873
                  1759  -0.0024821376810179
                 400.8  -0.012316355381583
                 113.7  -0.050538917343672
                 37.03   -0.13938490331632
                 13.27   -0.32507749481778
                 5.025   -0.22984830758785
                 1.013     1.0953793467883
 s    1 1.00
                0.3023                   1
 p    3 1.00
                  17.7   0.062679166281506
                 3.854    0.33353656587936
                 1.046    0.74123964163973
 p    1 1.00
                0.2753                   1
 d    1 1.00
                 1.185                   1

5 0
 s    8 1.00
                  6665  0.00069158396281299
                  1000  0.0053257961529341
                   228   0.027060721042034
                 64.71    0.10165684614077
                 21.06     0.2745748236174
                 7.495    0.44829431892377
                 2.797    0.28490261071525
                0.5215   0.015194859206082
 s    8 1.00
                  6665  -0.00029326965268655
                  1000  -0.0023180354739745
                   228  -0.011499786038565
                 64.71  -0.046826727009787
                 21.06   -0.12846616875047
                 7.495   -0.30126627246289
                 2.797   -0.25563070233011
                0.5215      1.093793361012
 s    1 1.00
                0.1596                   1
 p    3 1.00
                 9.439   0.056979251590039
                 2.002    0.31320721150073
                0.5456    0.76037674173753
 p    1 1.00
                0.1517                   1
 d    1 1.00
                  0.55                   1

6 0
 s    8 1.00
                  6665  0.00069158396281299
                  1000  0.0053257961529341
                   228   0.027060721042034
                 64.71    0.10165684614077
                 21.06     0.2745748236174
                 7.495    0.44829431892377
                 2.797    0.28490261071525
                0.5215   0.015194859206082
 s    8 1.00
                  6665  -0.00029326965268655
                  1000  -0.0023180354739745
                   228  -0.011499786038565
                 64.71  -0.046826727009787
                 21.06   -0.12846616875047
                 7.495   -0.30126627246289
                 2.797   -0.25563070233011
                0.5215      1.093793361012
 s    1 1.00
                0.1596                   1
 p    3 1.00
                 9.439   0.056979251590039
                 2.002    0.31320721150073
                0.5456    0.76037674173753
 p    1 1.00
                0.1517                   1
 d    1 1.00
                  0.55                   1

7 0
 s    8 1.00
                  6665  0.00069158396281299
                  1000  0.0053257961529341
                   228   0.027060721042034
                 64.71    0.10165684614077
                 21.06     0.2745748236174
                 7.495    0.44829431892377
                 2.797    0.28490261071525
                0.5215   0.015194859206082
 s    8 1.00
                  6665  -0.00029326965268655
                  1000  -0.0023180354739745
                   228  -0.011499786038565
                 64.71  -0.046826727009787
                 21.06   -0.12846616875047
                 7.495   -0.30126627246289
                 2.797   -0.25563070233011
                0.5215      1.093793361012
 s    1 1.00
                0.1596                   1
 p    3 1.00
                 9.439   0.056979251590039
                 2.002    0.31320721150073
                0.5456    0.76037674173753
 p    1 1.00
                0.1517                   1
 d    1 1.00
                  0.55                   1

8 0
 s    3 1.00
                 13.01   0.033498726389998
                 1.962    0.23480080117413
                0.4446     0.8136829578829
 s    1 1.00
                 0.122                   1
 p    1 1.00
                 0.727                   1

9 0
 s    8 1.00
                  6665  0.00069158396281299
                  1000  0.0053257961529341
                   228   0.027060721042034
                 64.71    0.10165684614077
                 21.06     0.2745748236174
                 7.495    0.44829431892377
                 2.797    0.28490261071525
                0.5215   0.015194859206082
 s    8 1.00
                  6665  -0.00029326965268655
                  1000  -0.0023180354739745
                   228  -0.011499786038565
                 64.71  -0.046826727009787
                 21.06   -0.12846616875047
                 7.495   -0.30126627246289
                 2.797   -0.25563070233011
                0.5215      1.093793361012
 s    1 1.00
                0.1596                   1
 p    3 1.00
                 9.439   0.056979251590039
                 2.002    0.31320721150073
                0.5456    0.76037674173753
 p    1 1.00
                0.1517                   1
 d    1 1.00
                  0.55                   1

10 0
 s    3 1.00
                 13.01   0.033498726389998
                 1.962    0.23480080117413
                0.4446     0.8136829578829
 s    1 1.00
                 0.122                   1
 p    1 1.00
                 0.727                   1

11 0
 s    3 1.00
                 13.01   0.033498726389998
                 1.962    0.23480080117413
                0.4446     0.8136829578829
 s    1 1.00
                 0.122                   1
 p    1 1.00
                 0.727                   1

12 0
 s    3 1.00
                 13.01   0.033498726389998
                 1.962    0.23480080117413
                0.4446     0.8136829578829
 s    1 1.00
                 0.122                   1
 p    1 1.00
                 0.727                   1

13 0
 s    8 1.00
                  6665  0.00069158396281299
                  1000  0.0053257961529341
                   228   0.027060721042034
                 64.71    0.10165684614077
                 21.06     0.2745748236174
                 7.495    0.44829431892377
                 2.797    0.28490261071525
                0.5215   0.015194859206082
 s    8 1.00
                  6665  -0.00029326965268655
                  1000  -0.0023180354739745
                   228  -0.011499786038565
                 64.71  -0.046826727009787
                 21.06   -0.12846616875047
                 7.495   -0.30126627246289
                 2.797   -0.25563070233011
                0.5215      1.093793361012
 s    1 1.00
                0.1596                   1
 p    3 1.00
                 9.439   0.056979251590039
                 2.002    0.31320721150073
                0.5456    0.76037674173753
 p    1 1.00
                0.1517                   1
 d    1 1.00
                  0.55                   1

14 0
 s    3 1.00
                 13.01   0.033498726389998
                 1.962    0.23480080117413
                0.4446     0.8136829578829
 s    1 1.00
                 0.122                   1
 p    1 1.00
                 0.727                   1

15 0
 s    3 1.00
                 13.01   0.033498726389998
                 1.962    0.23480080117413
                0.4446     0.8136829578829
 s    1 1.00
                 0.122                   1
 p    1 1.00
                 0.727                   1

16 0
 s    8 1.00
                  6665  0.00069158396281299
                  1000  0.0053257961529341
                   228   0.027060721042034
                 64.71    0.10165684614077
                 21.06     0.2745748236174
                 7.495    0.44829431892377
                 2.797    0.28490261071525
                0.5215   0.015194859206082
 s    8 1.00
                  6665  -0.00029326965268655
                  1000  -0.0023180354739745
                   228  -0.011499786038565
                 64.71  -0.046826727009787
                 21.06   -0.12846616875047
                 7.495   -0.30126627246289
                 2.797   -0.25563070233011
                0.5215      1.093793361012
 s    1 1.00
                0.1596                   1
 p    3 1.00
                 9.439   0.056979251590039
                 2.002    0.31320721150073
                0.5456    0.76037674173753
 p    1 1.00
                0.1517                   1
 d    1 1.00
                  0.55                   1

17 0
 s    3 1.00
                 13.01   0.033498726389998
                 1.962    0.23480080117413
                0.4446     0.8136829578829
 s    1 1.00
                 0.122                   1
 p    1 1.00
                 0.727                   1

18 0
 s    3 1.00
                 13.01   0.033498726389998
                 1.962    0.23480080117413
                0.4446     0.8136829578829
 s    1 1.00
                 0.122                   1
 p    1 1.00
                 0.727                   1

19 0
 s    8 1.00
                  6665  0.00069158396281299
                  1000  0.0053257961529341
                   228   0.027060721042034
                 64.71    0.10165684614077
                 21.06     0.2745748236174
                 7.495    0.44829431892377
                 2.797    0.28490261071525
                0.5215   0.015194859206082
 s    8 1.00
                  6665  -0.00029326965268655
                  1000  -0.0023180354739745
                   228  -0.011499786038565
                 64.71  -0.046826727009787
                 21.06   -0.12846616875047
                 7.495   -0.30126627246289
                 2.797   -0.25563070233011
                0.5215      1.093793361012
 s    1 1.00
                0.1596                   1
 p    3 1.00
                 9.439   0.056979251590039
                 2.002    0.31320721150073
                0.5456    0.76037674173753
 p    1 1.00
                0.1517                   1
 d    1 1.00
                  0.55                   1

20 0
 s    3 1.00
                 13.01   0.033498726389998
                 1.962    0.23480080117413
                0.4446     0.8136829578829
 s    1 1.00
                 0.122                   1
 p    1 1.00
                 0.727                   1

21 0
 s    8 1.00
                  6665  0.00069158396281299
                  1000  0.0053257961529341
                   228   0.027060721042034
                 64.71    0.10165684614077
                 21.06     0.2745748236174
                 7.495    0.44829431892377
                 2.797    0.28490261071525
                0.5215   0.015194859206082
 s    8 1.00
                  6665  -0.00029326965268655
                  1000  -0.0023180354739745
                   228  -0.011499786038565
                 64.71  -0.046826727009787
                 21.06   -0.12846616875047
                 7.495   -0.30126627246289
                 2.797   -0.25563070233011
                0.5215      1.093793361012
 s    1 1.00
                0.1596                   1
 p    3 1.00
                 9.439   0.056979251590039
                 2.002    0.31320721150073
                0.5456    0.76037674173753
 p    1 1.00
                0.1517                   1
 d    1 1.00
                  0.55                   1

22 0
 s    3 1.00
                 13.01   0.033498726389998
                 1.962    0.23480080117413
                0.4446     0.8136829578829
 s    1 1.00
                 0.122                   1
 p    1 1.00
                 0.727                   1

23 0
 s    3 1.00
                 13.01   0.033498726389998
                 1.962    0.23480080117413
                0.4446     0.8136829578829
 s    1 1.00
                 0.122                   1
 p    1 1.00
                 0.727                   1

24 0
 s    3 1.00
                 13.01   0.033498726389998
                 1.962    0.23480080117413
                0.4446     0.8136829578829
 s    1 1.00
                 0.122                   1
 p    1 1.00
                 0.727                   1

25 0
 s    8 1.00
                  6665  0.00069158396281299
                  1000  0.0053257961529341
                   228   0.027060721042034
                 64.71    0.10165684614077
                 21.06     0.2745748236174
                 7.495    0.44829431892377
                 2.797    0.28490261071525
                0.5215   0.015194859206082
 s    8 1.00
                  6665  -0.00029326965268655
                  1000  -0.0023180354739745
                   228  -0.011499786038565
                 64.71  -0.046826727009787
                 21.06   -0.12846616875047
                 7.495   -0.30126627246289
                 2.797   -0.25563070233011
                0.5215      1.093793361012
 s    1 1.00
                0.1596                   1
 p    3 1.00
                 9.439   0.056979251590039
                 2.002    0.31320721150073
                0.5456    0.76037674173753
 p    1 1.00
                0.1517                   1
 d    1 1.00
                  0.55                   1

26 0
 s    3 1.00
                 13.01   0.033498726389998
                 1.962    0.23480080117413
                0.4446     0.8136829578829
 s    1 1.00
                 0.122                   1
 p    1 1.00
                 0.727                   1

27 0
 s    3 1.00
                 13.01   0.033498726389998
                 1.962    0.23480080117413
                0.4446     0.8136829578829
 s    1 1.00
                 0.122                   1
 p    1 1.00
                 0.727                   1

28 0
 s    8 1.00
                  6665  0.00069158396281299
                  1000  0.0053257961529341
                   228   0.027060721042034
                 64.71    0.10165684614077
                 21.06     0.2745748236174
                 7.495    0.44829431892377
                 2.797    0.28490261071525
                0.5215   0.015194859206082
 s    8 1.00
                  6665  -0.00029326965268655
                  1000  -0.0023180354739745
                   228  -0.011499786038565
                 64.71  -0.046826727009787
                 21.06   -0.12846616875047
                 7.495   -0.30126627246289
                 2.797   -0.25563070233011
                0.5215      1.093793361012
 s    1 1.00
                0.1596                   1
 p    3 1.00
                 9.439   0.056979251590039
                 2.002    0.31320721150073
                0.5456    0.76037674173753
 p    1 1.00
                0.1517                   1
 d    1 1.00
                  0.55                   1

29 0
 s    3 1.00
                 13.01   0.033498726389998
                 1.962    0.23480080117413
                0.4446     0.8136829578829
 s    1 1.00
                 0.122                   1
 p    1 1.00
                 0.727                   1

30 0
 s    3 1.00
                 13.01   0.033498726389998
                 1.962    0.23480080117413
                0.4446     0.8136829578829
 s    1 1.00
                 0.122                   1
 p    1 1.00
                 0.727                   1

31 0
 s    8 1.00
                  6665  0.00069158396281299
                  1000  0.0053257961529341
                   228   0.027060721042034
                 64.71    0.10165684614077
                 21.06     0.2745748236174
                 7.495    0.44829431892377
                 2.797    0.28490261071525
                0.5215   0.015194859206082
 s    8 1.00
                  6665  -0.00029326965268655
                  1000  -0.0023180354739745
                   228  -0.011499786038565
                 64.71  -0.046826727009787
                 21.06   -0.12846616875047
                 7.495   -0.30126627246289
                 2.797   -0.25563070233011
                0.5215      1.093793361012
 s    1 1.00
                0.1596                   1
 p    3 1.00
                 9.439   0.056979251590039
                 2.002    0.31320721150073
                0.5456    0.76037674173753
 p    1 1.00
                0.1517                   1
 d    1 1.00
                  0.55                   1

32 0
 s    3 1.00
                 13.01   0.033498726389998
                 1.962    0.23480080117413
                0.4446     0.8136829578829
 s    1 1.00
                 0.122                   1
 p    1 1.00
                 0.727                   1

33 0
 s    3 1.00
                 13.01   0.033498726389998
                 1.962    0.23480080117413
                0.4446     0.8136829578829
 s    1 1.00
                 0.122                   1
 p    1 1.00
                 0.727                   1

34 0
 s    3 1.00
                 13.01   0.033498726389998
                 1.962    0.23480080117413
                0.4446     0.8136829578829
 s    1 1.00
                 0.122                   1
 p    1 1.00
                 0.727                   1

35 0
 s    3 1.00
                 13.01   0.033498726389998
                 1.962    0.23480080117413
                0.4446     0.8136829578829
 s    1 1.00
                 0.122                   1
 p    1 1.00
                 0.727                   1

36 0
 s    3 1.00
                 13.01   0.033498726389998
                 1.962    0.23480080117413
                0.4446     0.8136829578829
 s    1 1.00
                 0.122                   1
 p    1 1.00
                 0.727                   1

37 0
 s    3 1.00
                 13.01   0.033498726389998
                 1.962    0.23480080117413
                0.4446     0.8136829578829
 s    1 1.00
                 0.122                   1
 p    1 1.00
                 0.727                   1

[5d]
[7f]
[9g]

[MO]
 Sym= A
 Ene=               0
 Spin= Alpha
 Occup=    1.00000
   1    9.3742585097997e-08
   2    2.3199645546225e-08
   3    -3.062813602733e-07
   4    -7.0750000585439e-08
   5    8.1215052904772e-08
   6    -1.6464372733218e-07
   7    -5.6325954423732e-08
   8    1.4873820490831e-07
   9    8.5513011210068e-08
  10    -5.9936149997954e-08
  11    1.0496214632937e-09
  12    9.3785049437986e-10
  13    -1.0005650263238e-08
  14    -2.0569739627231e-09
  15    1.5890766331784e-07
  16    7.3299715129245e-08
  17    -3.7449673653192e-09
  18    -5.4482456943952e-10
  19    1.8832133526051e-07
  20    4.3786280072584e-08
  21    -1.2610559312616e-07
  22    -4.9665035387385e-09
  23    4.746377026917e-08
  24    -1.2473949604231e-08
  25    1.2032213267644e-06
  26    9.1893891715356e-06
  27    6.7638383810891e-05
  28    -1.9218542272709e-05
  29    -9.6978312175096e-06
  30    -1.7078357854643e-05
  31    -4.3457543638401e-05
  32    1.6854951763131e-05
  33    -3.5903932987846e-05
  34    3.0039491186453e-06
  35    2.6195734290992e-06
  36    -1.1545280080142e-06
  37    -3.3656853138095e-06
  38    5.0737315257282e-06
  39    2.5842328679208e-05
  40    8.6013255445201e-05
  41    -0.00028526438466231
  42    -6.9973586762398e-05
  43    5.0946831202288e-05
  44    -2.9906135576317e-05
  45    0.00044258814528046
  46    -0.00029155230218357
  47    -2.3882033873043e-05
  48    3.7239354997545e-06
  49    -1.9476655549052e-05
  50    1.1161093213271e-05
  51    -1.6033302253386e-05
  52    3.0108568908586e-05
  53    3.2440794434056e-05
  54    2.8965411635586e-05
  55    -0.00044381950468071
  56    4.1592100672268e-05
  57    -2.9292506676367e-05
  58    -1.3329203074564e-05
  59    0.00015871810163303
  60    -0.00016765298601992
  61    -0.00014108454800937
  62    -1.1648388619826e-06
  63    1.4167611290747e-05
  64    -6.7158508541554e-06
  65    -3.8014743558504e-06
  66    3.8927482052642e-06
  67    3.109768811465e-06
  68    -0.00017288797673142
  69    0.0001361563392073
  70    0.00028404760126175
  71    -0.00010719673507265
  72    -0.00022539136840968
  73    0.00063115654464789
  74    -0.00032733844125465
  75    5.4529518322231e-05
  76    -1.7703581856975e-05
  77    4.6387287302045e-05
  78    -1.7756920058712e-05
  79    -3.4195206894516e-06
  80    -8.9830135431183e-06
  81    3.8680665798605e-05
  82    -1.1639187501077e-05
  83    6.7482907276406e-06
  84    -1.8296572561641e-06
  85    1.2741181242888e-06
  86    -2.366436917419e-06
  87    -1.2008314053215e-05
  88    9.2701539279415e-05
  89    6.7401673030536e-06
  90    -3.5110890125426e-06
  91    2.6406737755278e-06
  92    7.2936496079141e-05
  93    -4.0088949471903e-05
  94    4.505455816654e-05
  95    -9.1259294158279e-07
  96    -6.1232546848098e-06
  97    3.5116185706186e-06
  98    1.2491082289729e-06
  99    -9.822159912634e-07
 100    1.3517637020189e-06
 101    -1.5030864160932e-05
 102    -7.4895786029326e-06
 103    2.5655007983524e-06
 104    3.0749972416362e-06
 105    4.3500922918592e-05
 106    -1.1511081410927e-06
 107    -1.1968667608984e-05
 108    1.3460418961939e-05
 109    -1.7394944757796e-05
 110     4.04740935194e-05
 111    -2.5595823430561e-05
 112    -1.2378594900431e-05
 113    6.2676263552719e-06
 114    -1.8772150644922e-05
 115    8.5289863416127e-05
 116    0.00074226420557023
 117    -0.00088496879328991
 118    -0.00077509076106257
 119    0.00044055782020615
 120    7.3019916499681e-05
 121    0.00039752693258646
 122    -0.0003052502115243
 123    0.00029289028660187
 124    -9.9708699864026e-07
 125    6.1743829441047e-06
 126    2.4782232076376e-06
 127    -4.1422401163575e-06
 128    6.3810848141722e-06
 129    -7.8782151283314e-06
 130    -2.9968325050572e-06
 131    -5.6793685880165e-06
 132    2.6947890086138e-06
 133    -9.8431568442459e-07
 134    2.1401721130212e-06
 135    3.8545296712175e-05
 136    3.2001052565895e-06
 137    -1.1661090528835e-06
 138    2.0209353220454e-06
 139    9.0094849394518e-06
 140    1.4570524095818e-05
 141    -8.95377841377e-05
 142    -2.4895695424466e-06
 143    6.2805228169835e-07
 144    4.9262929035703e-07
 145    4.9377285868498e-05
 146    -7.4214099875251e-06
 147    -8.8056012650769e-05
 148    -6.3730241474802e-07
 149    4.0415351170055e-06
 150    -3.2530240554131e-06
 151    -1.9721169672988e-06
 152    3.9452380686455e-06
 153    0.00034270458956925
 154    8.1160824737467e-06
 155    -5.6271492052357e-05
 156    3.3746645469428e-06
 157    -3.2764181159786e-05
 158    0.00033381109494412
 159    -8.3149672303071e-06
 160    -2.4785553065638e-05
 161    5.6872137772227e-05
 162    -2.0018085910927e-05
 163    0.00060723379669714
 164    0.00026870015016279
 165    0.00036011170234499
 166    0.00028025162727758
 167    -0.00037991286846863
 168    0.00082818235545292
 169      0.00141454498389
 170    -0.0010463546321452
 171    0.00095229257288666
 172    2.5893182951687e-06
 173    7.7701856030483e-05
 174    -4.459683112796e-05
 175    -1.0140279353483e-05
 176    -1.4186358645147e-05
 177    4.3878320793545e-06
 178    1.4700184665801e-05
 179    -2.8155963249975e-06
 180    -3.9120256607149e-07
 181    2.3601452231374e-06
 182    9.8737752561374e-07
 183    2.3574602984998e-06
 184    -1.6507942182443e-05
 185    -5.0143039800834e-07
 186    -7.9405162092583e-07
 187    1.2011538986102e-06
 188    9.705738757767e-06
 189    1.4121772223845e-05
 190    -1.3627761325432e-06
 191    7.7222339674391e-07
 192    1.9748725020571e-07
 193    8.584527174245e-07
 194    7.3621523822614e-07
 195    -1.9254234323235e-06
 196    3.2933065253309e-06
 197    -1.5645671060488e-05
 198    -1.967831896787e-06
 199    -2.2030555989867e-06
 200    2.470453798494e-06
 201    -0.00033258695618368
 202    3.757654799789e-05
 203    -8.34018780263e-05
 204    4.7438037312282e-05
 205    -3.5518222323082e-05
 206    -0.00037063478167891
 207    1.5551977729783e-05
 208    -7.4915679511279e-05
 209    6.1658371769638e-05
 210    -3.4299477250452e-05
 211     0.028900634511864
 212    0.00017104867139831
 213    -0.0020776074172566
 214    0.00014289375237429
 215    -0.00010594567082644
 216    1.7636802032703e-05
 217    0.0011035493568011
 218    -0.00074706532019612
 219    0.00041826954774927
 220    -1.2669035240443e-05
 221    7.3533267835017e-05
 222    -7.5937087851517e-05
 223    6.2112249419729e-05
 224    -0.00015206185813975
 225    6.2702942823001e-07
 226    -5.6890500005422e-06
 227    -8.3535854310766e-08
 228    -5.7671563583531e-07
 229    4.077281739697e-07
 230    -3.9245272708443e-08
 231    -4.079702836173e-06
 232    -2.1603370300929e-07
 233    -4.6985408871917e-07
 234    -8.1743538033615e-07
 235    8.5770316259498e-05
 236    4.731429064213e-06
 237    -1.0081646296918e-05
 238    -2.2852333058818e-07
 239    -1.1860755529174e-06
 240    1.1745948586242e-06
 241    1.0539788365283e-05
 242    6.6192569957976e-06
 243    -1.3030087083427e-05
 244    -6.8179308990889e-08
 245    1.3519159645368e-06
 246    -4.1517085275506e-07
 247    -1.1579791467649e-07
 248    -5.9695774549577e-08
 249    6.9160264258395e-05
 250    -0.00014630109237767
 251    2.8268930212729e-05
 252    -8.1885626658308e-06
 253    5.1024775226434e-05
 254    9.0525378578331e-05
 255    -0.00014151069819067
 256    1.2090892857703e-05
 257    -3.561933112074e-05
 258    4.3465280521654e-05
 259      -1.0020008348889
 260    -0.0048470267321058
 261    0.0099463588034143
 262    0.00015386455459283