[Molden Format]
made by pyscf v[2.0.1]
[Atoms] (AU)
O   1   8     0.00000000000000     0.00000000000000     9.05202446090250
H   2   1     0.00000000000000     0.00000000000000     7.22862263900153
H   3   1    -0.05031916615174     1.78353065140343     9.42789615736916
O   4   8     0.00000000000000     0.00000000000000     2.31533471513237
C   5   6     0.00000000000000     0.00000000000000     0.00000000000000
C   6   6     2.01118073026938    -1.40227222164369    -1.50774939176400
C   7   6    -2.01249334291722     1.41331050329955    -1.50315905028694
H   8   1     3.32037363730244    -2.26721897153159    -0.13599698591495
C   9   6     3.45899267434009     0.28739631745591    -3.37437943254505
H   10   1     1.07662969841332    -2.94725144642667    -2.56541439481080
H   11   1    -2.67503415753480     0.18421555839588    -3.06194479365997
H   12   1    -1.07974048864772     3.03851734677796    -2.43674295017013
C   13   6    -4.21607110578555     2.32938802552922     0.11994162256091
H   14   1     4.24440173074564     1.93368664142019    -2.34976285512790
H   15   1     2.15020713235517     1.04714335134846    -4.81494497423699
C   16   6     5.60746363007797    -1.12419643481196    -4.70268606082550
H   17   1    -3.46838323670267     3.50951302338067     1.66946842715333
H   18   1    -5.11873485366228     0.68575958301209     1.04047743976495
C   19   6    -6.18314754751344     3.80909592987882    -1.39656589068747
H   20   1     6.93011263717176    -1.87550812453645    -3.26656317360070
C   21   6     7.06356622236532     0.52877932406334    -6.57829775293605
H   22   1     4.82318879258361    -2.78573437948532    -5.70504560381835
H   23   1    -6.91582688743803     2.61304780074712    -2.95074552451969
H   24   1    -5.26532430573853     5.45420349051338    -2.31005832200284
C   25   6    -8.39941882261433     4.73263980500213     0.21800571437956
H   26   1     7.83338371486801     2.19084139882824    -5.57093109900697
H   27   1     5.73544244039420     1.27376866537418    -8.01071492370229
C   28   6     9.21124858443101    -0.89699110072176    -7.88926949186242
H   29   1    -7.66272760055236     5.92277078003992     1.77035591474408
H   30   1    -9.31497248082589     3.08753015622020     1.12614408368786
C   31   6   -10.35481709231879     6.21833079391143    -1.30905206253246
H   32   1    10.58815905329501    -1.61074586756696    -6.49512691622620
H   33   1    10.23506248045667     0.32468009384095    -9.23072870921204
H   34   1     8.47665842847139    -2.53598436989925    -8.94921964622535
H   35   1    -9.48948872868064     7.90013588951020    -2.18823918416067
H   36   1   -11.93332513000955     6.86460487874102    -0.11255798845995
H   37   1   -11.15126291841033     5.04495968327630    -2.83849898862534
[GTO]
1 0
 s    8 1.00
                 11720  0.00070964594651845
                  1759  0.0054672722921914
                 400.8   0.027823118610189
                 113.7    0.10474773971146
                 37.03    0.28292084635691
                 13.27    0.44849523869833
                 5.025    0.27081688521277
                 1.013    0.01545029160744
 s    8 1.00
                 11720  -0.00031444341168873
                  1759  -0.0024821376810179
                 400.8  -0.012316355381583
                 113.7  -0.050538917343672
                 37.03   -0.13938490331632
                 13.27   -0.32507749481778
                 5.025   -0.22984830758785
                 1.013     1.0953793467883
 s    1 1.00
                0.3023                   1
 p    3 1.00
                  17.7   0.062679166281506
                 3.854    0.33353656587936
                 1.046    0.74123964163973
 p    1 1.00
                0.2753                   1
 d    1 1.00
                 1.185                   1

2 0
 s    3 1.00
                 13.01   0.033498726389998
                 1.962    0.23480080117413
                0.4446     0.8136829578829
 s    1 1.00
                 0.122                   1
 p    1 1.00
                 0.727                   1

3 0
 s    3 1.00
                 13.01   0.033498726389998
                 1.962    0.23480080117413
                0.4446     0.8136829578829
 s    1 1.00
                 0.122                   1
 p    1 1.00
                 0.727                   1

4 0
 s    8 1.00
                 11720  0.00070964594651845
                  1759  0.0054672722921914
                 400.8   0.027823118610189
                 113.7    0.10474773971146
                 37.03    0.28292084635691
                 13.27    0.44849523869833
                 5.025    0.27081688521277
                 1.013    0.01545029160744
 s    8 1.00
                 11720  -0.00031444341168873
                  1759  -0.0024821376810179
                 400.8  -0.012316355381583
                 113.7  -0.050538917343672
                 37.03   -0.13938490331632
                 13.27   -0.32507749481778
                 5.025   -0.22984830758785
                 1.013     1.0953793467883
 s    1 1.00
                0.3023                   1
 p    3 1.00
                  17.7   0.062679166281506
                 3.854    0.33353656587936
                 1.046    0.74123964163973
 p    1 1.00
                0.2753                   1
 d    1 1.00
                 1.185                   1

5 0
 s    8 1.00
                  6665  0.00069158396281299
                  1000  0.0053257961529341
                   228   0.027060721042034
                 64.71    0.10165684614077
                 21.06     0.2745748236174
                 7.495    0.44829431892377
                 2.797    0.28490261071525
                0.5215   0.015194859206082
 s    8 1.00
                  6665  -0.00029326965268655
                  1000  -0.0023180354739745
                   228  -0.011499786038565
                 64.71  -0.046826727009787
                 21.06   -0.12846616875047
                 7.495   -0.30126627246289
                 2.797   -0.25563070233011
                0.5215      1.093793361012
 s    1 1.00
                0.1596                   1
 p    3 1.00
                 9.439   0.056979251590039
                 2.002    0.31320721150073
                0.5456    0.76037674173753
 p    1 1.00
                0.1517                   1
 d    1 1.00
                  0.55                   1

6 0
 s    8 1.00
                  6665  0.00069158396281299
                  1000  0.0053257961529341
                   228   0.027060721042034
                 64.71    0.10165684614077
                 21.06     0.2745748236174
                 7.495    0.44829431892377
                 2.797    0.28490261071525
                0.5215   0.015194859206082
 s    8 1.00
                  6665  -0.00029326965268655
                  1000  -0.0023180354739745
                   228  -0.011499786038565
                 64.71  -0.046826727009787
                 21.06   -0.12846616875047
                 7.495   -0.30126627246289
                 2.797   -0.25563070233011
                0.5215      1.093793361012
 s    1 1.00
                0.1596                   1
 p    3 1.00
                 9.439   0.056979251590039
                 2.002    0.31320721150073
                0.5456    0.76037674173753
 p    1 1.00
                0.1517                   1
 d    1 1.00
                  0.55                   1

7 0
 s    8 1.00
                  6665  0.00069158396281299
                  1000  0.0053257961529341
                   228   0.027060721042034
                 64.71    0.10165684614077
                 21.06     0.2745748236174
                 7.495    0.44829431892377
                 2.797    0.28490261071525
                0.5215   0.015194859206082
 s    8 1.00
                  6665  -0.00029326965268655
                  1000  -0.0023180354739745
                   228  -0.011499786038565
                 64.71  -0.046826727009787
                 21.06   -0.12846616875047
                 7.495   -0.30126627246289
                 2.797   -0.25563070233011
                0.5215      1.093793361012
 s    1 1.00
                0.1596                   1
 p    3 1.00
                 9.439   0.056979251590039
                 2.002    0.31320721150073
                0.5456    0.76037674173753
 p    1 1.00
                0.1517                   1
 d    1 1.00
                  0.55                   1

8 0
 s    3 1.00
                 13.01   0.033498726389998
                 1.962    0.23480080117413
                0.4446     0.8136829578829
 s    1 1.00
                 0.122                   1
 p    1 1.00
                 0.727                   1

9 0
 s    8 1.00
                  6665  0.00069158396281299
                  1000  0.0053257961529341
                   228   0.027060721042034
                 64.71    0.10165684614077
                 21.06     0.2745748236174
                 7.495    0.44829431892377
                 2.797    0.28490261071525
                0.5215   0.015194859206082
 s    8 1.00
                  6665  -0.00029326965268655
                  1000  -0.0023180354739745
                   228  -0.011499786038565
                 64.71  -0.046826727009787
                 21.06   -0.12846616875047
                 7.495   -0.30126627246289
                 2.797   -0.25563070233011
                0.5215      1.093793361012
 s    1 1.00
                0.1596                   1
 p    3 1.00
                 9.439   0.056979251590039
                 2.002    0.31320721150073
                0.5456    0.76037674173753
 p    1 1.00
                0.1517                   1
 d    1 1.00
                  0.55                   1

10 0
 s    3 1.00
                 13.01   0.033498726389998
                 1.962    0.23480080117413
                0.4446     0.8136829578829
 s    1 1.00
                 0.122                   1
 p    1 1.00
                 0.727                   1

11 0
 s    3 1.00
                 13.01   0.033498726389998
                 1.962    0.23480080117413
                0.4446     0.8136829578829
 s    1 1.00
                 0.122                   1
 p    1 1.00
                 0.727                   1

12 0
 s    3 1.00
                 13.01   0.033498726389998
                 1.962    0.23480080117413
                0.4446     0.8136829578829
 s    1 1.00
                 0.122                   1
 p    1 1.00
                 0.727                   1

13 0
 s    8 1.00
                  6665  0.00069158396281299
                  1000  0.0053257961529341
                   228   0.027060721042034
                 64.71    0.10165684614077
                 21.06     0.2745748236174
                 7.495    0.44829431892377
                 2.797    0.28490261071525
                0.5215   0.015194859206082
 s    8 1.00
                  6665  -0.00029326965268655
                  1000  -0.0023180354739745
                   228  -0.011499786038565
                 64.71  -0.046826727009787
                 21.06   -0.12846616875047
                 7.495   -0.30126627246289
                 2.797   -0.25563070233011
                0.5215      1.093793361012
 s    1 1.00
                0.1596                   1
 p    3 1.00
                 9.439   0.056979251590039
                 2.002    0.31320721150073
                0.5456    0.76037674173753
 p    1 1.00
                0.1517                   1
 d    1 1.00
                  0.55                   1

14 0
 s    3 1.00
                 13.01   0.033498726389998
                 1.962    0.23480080117413
                0.4446     0.8136829578829
 s    1 1.00
                 0.122                   1
 p    1 1.00
                 0.727                   1

15 0
 s    3 1.00
                 13.01   0.033498726389998
                 1.962    0.23480080117413
                0.4446     0.8136829578829
 s    1 1.00
                 0.122                   1
 p    1 1.00
                 0.727                   1

16 0
 s    8 1.00
                  6665  0.00069158396281299
                  1000  0.0053257961529341
                   228   0.027060721042034
                 64.71    0.10165684614077
                 21.06     0.2745748236174
                 7.495    0.44829431892377
                 2.797    0.28490261071525
                0.5215   0.015194859206082
 s    8 1.00
                  6665  -0.00029326965268655
                  1000  -0.0023180354739745
                   228  -0.011499786038565
                 64.71  -0.046826727009787
                 21.06   -0.12846616875047
                 7.495   -0.30126627246289
                 2.797   -0.25563070233011
                0.5215      1.093793361012
 s    1 1.00
                0.1596                   1
 p    3 1.00
                 9.439   0.056979251590039
                 2.002    0.31320721150073
                0.5456    0.76037674173753
 p    1 1.00
                0.1517                   1
 d    1 1.00
                  0.55                   1

17 0
 s    3 1.00
                 13.01   0.033498726389998
                 1.962    0.23480080117413
                0.4446     0.8136829578829
 s    1 1.00
                 0.122                   1
 p    1 1.00
                 0.727                   1

18 0
 s    3 1.00
                 13.01   0.033498726389998
                 1.962    0.23480080117413
                0.4446     0.8136829578829
 s    1 1.00
                 0.122                   1
 p    1 1.00
                 0.727                   1

19 0
 s    8 1.00
                  6665  0.00069158396281299
                  1000  0.0053257961529341
                   228   0.027060721042034
                 64.71    0.10165684614077
                 21.06     0.2745748236174
                 7.495    0.44829431892377
                 2.797    0.28490261071525
                0.5215   0.015194859206082
 s    8 1.00
                  6665  -0.00029326965268655
                  1000  -0.0023180354739745
                   228  -0.011499786038565
                 64.71  -0.046826727009787
                 21.06   -0.12846616875047
                 7.495   -0.30126627246289
                 2.797   -0.25563070233011
                0.5215      1.093793361012
 s    1 1.00
                0.1596                   1
 p    3 1.00
                 9.439   0.056979251590039
                 2.002    0.31320721150073
                0.5456    0.76037674173753
 p    1 1.00
                0.1517                   1
 d    1 1.00
                  0.55                   1

20 0
 s    3 1.00
                 13.01   0.033498726389998
                 1.962    0.23480080117413
                0.4446     0.8136829578829
 s    1 1.00
                 0.122                   1
 p    1 1.00
                 0.727                   1

21 0
 s    8 1.00
                  6665  0.00069158396281299
                  1000  0.0053257961529341
                   228   0.027060721042034
                 64.71    0.10165684614077
                 21.06     0.2745748236174
                 7.495    0.44829431892377
                 2.797    0.28490261071525
                0.5215   0.015194859206082
 s    8 1.00
                  6665  -0.00029326965268655
                  1000  -0.0023180354739745
                   228  -0.011499786038565
                 64.71  -0.046826727009787
                 21.06   -0.12846616875047
                 7.495   -0.30126627246289
                 2.797   -0.25563070233011
                0.5215      1.093793361012
 s    1 1.00
                0.1596                   1
 p    3 1.00
                 9.439   0.056979251590039
                 2.002    0.31320721150073
                0.5456    0.76037674173753
 p    1 1.00
                0.1517                   1
 d    1 1.00
                  0.55                   1

22 0
 s    3 1.00
                 13.01   0.033498726389998
                 1.962    0.23480080117413
                0.4446     0.8136829578829
 s    1 1.00
                 0.122                   1
 p    1 1.00
                 0.727                   1

23 0
 s    3 1.00
                 13.01   0.033498726389998
                 1.962    0.23480080117413
                0.4446     0.8136829578829
 s    1 1.00
                 0.122                   1
 p    1 1.00
                 0.727                   1

24 0
 s    3 1.00
                 13.01   0.033498726389998
                 1.962    0.23480080117413
                0.4446     0.8136829578829
 s    1 1.00
                 0.122                   1
 p    1 1.00
                 0.727                   1

25 0
 s    8 1.00
                  6665  0.00069158396281299
                  1000  0.0053257961529341
                   228   0.027060721042034
                 64.71    0.10165684614077
                 21.06     0.2745748236174
                 7.495    0.44829431892377
                 2.797    0.28490261071525
                0.5215   0.015194859206082
 s    8 1.00
                  6665  -0.00029326965268655
                  1000  -0.0023180354739745
                   228  -0.011499786038565
                 64.71  -0.046826727009787
                 21.06   -0.12846616875047
                 7.495   -0.30126627246289
                 2.797   -0.25563070233011
                0.5215      1.093793361012
 s    1 1.00
                0.1596                   1
 p    3 1.00
                 9.439   0.056979251590039
                 2.002    0.31320721150073
                0.5456    0.76037674173753
 p    1 1.00
                0.1517                   1
 d    1 1.00
                  0.55                   1

26 0
 s    3 1.00
                 13.01   0.033498726389998
                 1.962    0.23480080117413
                0.4446     0.8136829578829
 s    1 1.00
                 0.122                   1
 p    1 1.00
                 0.727                   1

27 0
 s    3 1.00
                 13.01   0.033498726389998
                 1.962    0.23480080117413
                0.4446     0.8136829578829
 s    1 1.00
                 0.122                   1
 p    1 1.00
                 0.727                   1

28 0
 s    8 1.00
                  6665  0.00069158396281299
                  1000  0.0053257961529341
                   228   0.027060721042034
                 64.71    0.10165684614077
                 21.06     0.2745748236174
                 7.495    0.44829431892377
                 2.797    0.28490261071525
                0.5215   0.015194859206082
 s    8 1.00
                  6665  -0.00029326965268655
                  1000  -0.0023180354739745
                   228  -0.011499786038565
                 64.71  -0.046826727009787
                 21.06   -0.12846616875047
                 7.495   -0.30126627246289
                 2.797   -0.25563070233011
                0.5215      1.093793361012
 s    1 1.00
                0.1596                   1
 p    3 1.00
                 9.439   0.056979251590039
                 2.002    0.31320721150073
                0.5456    0.76037674173753
 p    1 1.00
                0.1517                   1
 d    1 1.00
                  0.55                   1

29 0
 s    3 1.00
                 13.01   0.033498726389998
                 1.962    0.23480080117413
                0.4446     0.8136829578829
 s    1 1.00
                 0.122                   1
 p    1 1.00
                 0.727                   1

30 0
 s    3 1.00
                 13.01   0.033498726389998
                 1.962    0.23480080117413
                0.4446     0.8136829578829
 s    1 1.00
                 0.122                   1
 p    1 1.00
                 0.727                   1

31 0
 s    8 1.00
                  6665  0.00069158396281299
                  1000  0.0053257961529341
                   228   0.027060721042034
                 64.71    0.10165684614077
                 21.06     0.2745748236174
                 7.495    0.44829431892377
                 2.797    0.28490261071525
                0.5215   0.015194859206082
 s    8 1.00
                  6665  -0.00029326965268655
                  1000  -0.0023180354739745
                   228  -0.011499786038565
                 64.71  -0.046826727009787
                 21.06   -0.12846616875047
                 7.495   -0.30126627246289
                 2.797   -0.25563070233011
                0.5215      1.093793361012
 s    1 1.00
                0.1596                   1
 p    3 1.00
                 9.439   0.056979251590039
                 2.002    0.31320721150073
                0.5456    0.76037674173753
 p    1 1.00
                0.1517                   1
 d    1 1.00
                  0.55                   1

32 0
 s    3 1.00
                 13.01   0.033498726389998
                 1.962    0.23480080117413
                0.4446     0.8136829578829
 s    1 1.00
                 0.122                   1
 p    1 1.00
                 0.727                   1

33 0
 s    3 1.00
                 13.01   0.033498726389998
                 1.962    0.23480080117413
                0.4446     0.8136829578829
 s    1 1.00
                 0.122                   1
 p    1 1.00
                 0.727                   1

34 0
 s    3 1.00
                 13.01   0.033498726389998
                 1.962    0.23480080117413
                0.4446     0.8136829578829
 s    1 1.00
                 0.122                   1
 p    1 1.00
                 0.727                   1

35 0
 s    3 1.00
                 13.01   0.033498726389998
                 1.962    0.23480080117413
                0.4446     0.8136829578829
 s    1 1.00
                 0.122                   1
 p    1 1.00
                 0.727                   1

36 0
 s    3 1.00
                 13.01   0.033498726389998
                 1.962    0.23480080117413
                0.4446     0.8136829578829
 s    1 1.00
                 0.122                   1
 p    1 1.00
                 0.727                   1

37 0
 s    3 1.00
                 13.01   0.033498726389998
                 1.962    0.23480080117413
                0.4446     0.8136829578829
 s    1 1.00
                 0.122                   1
 p    1 1.00
                 0.727                   1

[5d]
[7f]
[9g]

[MO]
 Sym= A
 Ene=               0
 Spin= Alpha
 Occup=    1.00000
   1    -3.9196057945522e-07
   2    5.3868374285064e-08
   3    -5.9196121575281e-08
   4    1.2095667313068e-06
   5    -8.261395315086e-07
   6    1.119499009869e-06
   7    8.8130886355901e-07
   8    -6.542362001958e-07
   9    6.7684865281151e-07
  10    -1.2704040073539e-07
  11    -3.0958643017347e-08
  12    3.9254432333693e-08
  13    2.4894039040851e-08
  14    2.3930703321491e-08
  15    -5.4658971801762e-07
  16    9.9445964783326e-07
  17    2.1901468943485e-08
  18    6.9676747108389e-08
  19    1.0380962711447e-06
  20    -5.7397911348154e-07
  21    4.6769075297828e-07
  22    7.2506614351225e-08
  23    -6.1930966313671e-08
  24    6.5810886239858e-08
  25    -1.177249418249e-06
  26    -9.0567156326634e-06
  27    -6.8334986135132e-05
  28    1.9223648078924e-05
  29    9.6158495796253e-06
  30    1.720591813211e-05
  31    4.3492999431911e-05
  32    -1.683545577169e-05
  33    3.6573015055074e-05
  34    -3.0757444063526e-06
  35    -2.6142671819212e-06
  36    1.1816396546445e-06
  37    3.3704548223886e-06
  38    -5.0834675551598e-06
  39    -2.5728284599411e-05
  40    -8.6081846562596e-05
  41    0.00028598667261662
  42    7.0127390669469e-05
  43    -5.1438976652546e-05
  44    3.0131281725263e-05
  45    -0.00044279321817099
  46    0.00029124627848583
  47    2.4299302371203e-05
  48    -3.6983030291263e-06
  49    1.9478485021927e-05
  50    -1.118533250404e-05
  51    1.6103968750343e-05
  52    -3.0217348879672e-05
  53    -3.2452846389448e-05
  54    -2.9006148307351e-05
  55    0.00044379140104999
  56    -4.1603593069942e-05
  57    2.9372036068884e-05
  58    1.3277844503183e-05
  59    -0.00015868482255655
  60    0.00016777722449112
  61    0.00014080658599591
  62    1.1792080962285e-06
  63    -1.4190284411815e-05
  64    6.7095156248122e-06
  65    3.8069568654915e-06
  66    -3.8722628606535e-06
  67    -3.0388262633086e-06
  68    0.00017326750069452
  69    -0.00013553005787445
  70    -0.0002840451971931
  71    0.00010721754545845
  72    0.00022575490650483
  73    -0.00063156967942604
  74    0.00032773200371574
  75    -5.4269268600988e-05
  76    1.7826525912245e-05
  77    -4.6411988589928e-05
  78    1.7749509914369e-05
  79    3.3216568392511e-06
  80    9.1069657077592e-06
  81    -3.8761805883895e-05
  82    1.1810771491336e-05
  83    -6.7430295808484e-06
  84    1.8230993171003e-06
  85    -1.2782087655234e-06
  86    2.3708742601963e-06
  87    1.2037074092075e-05
  88    -9.2837069210897e-05
  89    -6.7803523287667e-06
  90    3.4644435598119e-06
  91    -2.5805370408194e-06
  92    -7.2955017989758e-05
  93    4.0177033973862e-05
  94    -4.5031349229666e-05
  95    9.1299545686093e-07
  96    6.1288957645276e-06
  97    -3.509893406366e-06
  98    -1.2455143635435e-06
  99    9.7143528841801e-07
 100    -1.4285289852637e-06
 101    1.4985108680392e-05
 102    7.480670087167e-06
 103    -2.5734977274685e-06
 104    -3.0701113741784e-06
 105    -4.3457870413884e-05
 106    1.4140918559108e-06
 107    1.198153637911e-05
 108    -1.3494707961775e-05
 109    1.7418485294241e-05
 110    -4.026355224753e-05
 111    2.5880554559374e-05
 112    1.2393314180168e-05
 113    -6.2689379955975e-06
 114    1.8798289460432e-05
 115    -8.54525010647e-05
 116    -0.0007430721972631
 117    0.00088249371419194
 118    0.00077491502227114
 119    -0.00044071624765185
 120    -7.2371352041104e-05
 121    -0.00039697000890977
 122    0.00030473103979761
 123    -0.00029203515186808
 124    7.8753229885852e-07
 125    -6.1990712192208e-06
 126    -2.4310825870451e-06
 127    4.3204477791452e-06
 128    -6.5298030210705e-06
 129    7.8817406060209e-06
 130    2.9438962551774e-06
 131    5.682866819768e-06
 132    -2.6957910992683e-06
 133    9.8900895912679e-07
 134    -2.1550985862392e-06
 135    -3.853444780167e-05
 136    -3.2100257845299e-06
 137    1.1625369673255e-06
 138    -2.0180996820286e-06
 139    -9.0119699806141e-06
 140    -1.4586323907693e-05
 141    8.956601832122e-05
 142    2.5117892176954e-06
 143    -6.4074809826089e-07
 144    -5.0666874111399e-07
 145    -4.9380782196859e-05
 146    7.4485972268238e-06
 147    8.8094483265372e-05
 148    6.4059102915301e-07
 149    -4.0457076515991e-06
 150    3.2476325355639e-06
 151    1.9761525254397e-06
 152    -3.9404416392657e-06
 153    -0.00034315712994674
 154    -8.3596304048938e-06
 155    5.6212414270471e-05
 156    -3.3450225204659e-06
 157    3.2787413587523e-05
 158    -0.00033392445913502
 159    8.3329613862149e-06
 160    2.4703853634683e-05
 161    -5.6860111014486e-05
 162    2.0065395936314e-05
 163    -0.00060715292101491
 164    -0.00026702107935172
 165    -0.00035701585971688
 166    -0.00028312960076514
 167    0.0003802929329587
 168    -0.00082446494103027
 169    -0.0014156838110847
 170    0.0010461365087772
 171    -0.00094996317412081
 172    -2.5086548718149e-06
 173    -7.8094903277401e-05
 174    4.4732063401032e-05
 175    1.0348037990054e-05
 176    1.3964395372621e-05
 177    -4.4002599066756e-06
 178    -1.4704229212431e-05
 179    2.8130333691376e-06
 180    3.8908675074312e-07
 181    -2.359404494466e-06
 182    -9.8238322493654e-07
 183    -2.3335734587939e-06
 184    1.6534939513632e-05
 185    4.9763844605021e-07
 186    7.7974137590062e-07
 187    -1.1898852748188e-06
 188    -9.6988882346271e-06
 189    -1.4165894752941e-05
 190    1.3327595975899e-06
 191    -7.7407428725548e-07
 192    -1.9550176326224e-07
 193    -8.5853411881713e-07
 194    -7.3731735507933e-07
 195    1.9239075145303e-06
 196    -3.2910621007155e-06
 197    1.5671636886298e-05
 198    1.9687201767872e-06
 199    2.2038212584458e-06
 200    -2.4700954093583e-06
 201    0.00033163929213066
 202    -3.8535630006711e-05
 203    8.340097747419e-05
 204    -4.7507787461483e-05
 205    3.5578868268271e-05
 206    0.00036920724992783
 207    -1.6484985341146e-05
 208    7.4983475012383e-05
 209    -6.1625161907832e-05
 210    3.4361965035663e-05
 211    -0.029149699451009
 212    -0.0001694590498783
 213    0.0020804453196933
 214    -0.00013960188883696
 215    0.00010444852685599
 216    -1.9755473675378e-05
 217    -0.0011011697087894
 218    0.00074581679288765
 219    -0.00041880710471748
 220    1.266180792687e-05
 221    -7.4097441927958e-05
 222    7.6290839648956e-05
 223    -6.2046612209184e-05
 224    0.00015217593610556
 225    -6.1632294872952e-07
 226    5.7152016298917e-06
 227    8.0881472556914e-08
 228    5.7502329160273e-07
 229    -4.0727100995962e-07
 230    4.1810518693859e-08
 231    4.0619485951671e-06
 232    2.147118079955e-07
 233    4.7142436478721e-07
 234    8.1943619828149e-07
 235    -8.6820952803671e-05
 236    -4.7319426764934e-06
 237    1.0058713321372e-05
 238    2.2743933987927e-07
 239    1.186431099619e-06
 240    -1.1728834900356e-06
 241    -1.0521434971222e-05
 242    -6.6343234655054e-06
 243    1.3030921391932e-05
 244    6.906393857448e-08
 245    -1.3525334809065e-06
 246    4.1564640500917e-07
 247    1.1576809781708e-07
 248    6.028152109258e-08
 249    -6.9413139740007e-05
 250    0.00014538794847078
 251    -2.8261317147891e-05
 252    8.1384939668758e-06
 253    -5.1179443224553e-05
 254    -9.0789004955002e-05
 255    0.00014054117245128
 256    -1.2020736166972e-05
 257    3.5677388626723e-05
 258    -4.3586550383723e-05
 259       1.0019935481217
 260    0.0048469422889312
 261    -0.0099455381030538
 262    -0.0001518959644338
 263    0.00012357810189564