[Molden Format]
made by pyscf v[2.0.1]
[Atoms] (AU)
O   1   8     0.00000000000000     0.00000000000000     8.29613401107647
H   2   1     0.00000000000000     0.00000000000000     6.47273218917551
H   3   1    -0.05031916615174     1.78353065140343     8.67200570754314
O   4   8     0.00000000000000     0.00000000000000     2.31533471513237
C   5   6     0.00000000000000     0.00000000000000     0.00000000000000
C   6   6     2.01118073026938    -1.40227222164369    -1.50774939176400
C   7   6    -2.01249334291722     1.41331050329955    -1.50315905028694
H   8   1     3.32037363730244    -2.26721897153159    -0.13599698591495
C   9   6     3.45899267434009     0.28739631745591    -3.37437943254505
H   10   1     1.07662969841332    -2.94725144642667    -2.56541439481080
H   11   1    -2.67503415753480     0.18421555839588    -3.06194479365997
H   12   1    -1.07974048864772     3.03851734677796    -2.43674295017013
C   13   6    -4.21607110578555     2.32938802552922     0.11994162256091
H   14   1     4.24440173074564     1.93368664142019    -2.34976285512790
H   15   1     2.15020713235517     1.04714335134846    -4.81494497423699
C   16   6     5.60746363007797    -1.12419643481196    -4.70268606082550
H   17   1    -3.46838323670267     3.50951302338067     1.66946842715333
H   18   1    -5.11873485366228     0.68575958301209     1.04047743976495
C   19   6    -6.18314754751344     3.80909592987882    -1.39656589068747
H   20   1     6.93011263717176    -1.87550812453645    -3.26656317360070
C   21   6     7.06356622236532     0.52877932406334    -6.57829775293605
H   22   1     4.82318879258361    -2.78573437948532    -5.70504560381835
H   23   1    -6.91582688743803     2.61304780074712    -2.95074552451969
H   24   1    -5.26532430573853     5.45420349051338    -2.31005832200284
C   25   6    -8.39941882261433     4.73263980500213     0.21800571437956
H   26   1     7.83338371486801     2.19084139882824    -5.57093109900697
H   27   1     5.73544244039420     1.27376866537418    -8.01071492370229
C   28   6     9.21124858443101    -0.89699110072176    -7.88926949186242
H   29   1    -7.66272760055236     5.92277078003992     1.77035591474408
H   30   1    -9.31497248082589     3.08753015622020     1.12614408368786
C   31   6   -10.35481709231879     6.21833079391143    -1.30905206253246
H   32   1    10.58815905329501    -1.61074586756696    -6.49512691622620
H   33   1    10.23506248045667     0.32468009384095    -9.23072870921204
H   34   1     8.47665842847139    -2.53598436989925    -8.94921964622535
H   35   1    -9.48948872868064     7.90013588951020    -2.18823918416067
H   36   1   -11.93332513000955     6.86460487874102    -0.11255798845995
H   37   1   -11.15126291841033     5.04495968327630    -2.83849898862534
[GTO]
1 0
 s    8 1.00
                 11720  0.00070964594651845
                  1759  0.0054672722921914
                 400.8   0.027823118610189
                 113.7    0.10474773971146
                 37.03    0.28292084635691
                 13.27    0.44849523869833
                 5.025    0.27081688521277
                 1.013    0.01545029160744
 s    8 1.00
                 11720  -0.00031444341168873
                  1759  -0.0024821376810179
                 400.8  -0.012316355381583
                 113.7  -0.050538917343672
                 37.03   -0.13938490331632
                 13.27   -0.32507749481778
                 5.025   -0.22984830758785
                 1.013     1.0953793467883
 s    1 1.00
                0.3023                   1
 p    3 1.00
                  17.7   0.062679166281506
                 3.854    0.33353656587936
                 1.046    0.74123964163973
 p    1 1.00
                0.2753                   1
 d    1 1.00
                 1.185                   1

2 0
 s    3 1.00
                 13.01   0.033498726389998
                 1.962    0.23480080117413
                0.4446     0.8136829578829
 s    1 1.00
                 0.122                   1
 p    1 1.00
                 0.727                   1

3 0
 s    3 1.00
                 13.01   0.033498726389998
                 1.962    0.23480080117413
                0.4446     0.8136829578829
 s    1 1.00
                 0.122                   1
 p    1 1.00
                 0.727                   1

4 0
 s    8 1.00
                 11720  0.00070964594651845
                  1759  0.0054672722921914
                 400.8   0.027823118610189
                 113.7    0.10474773971146
                 37.03    0.28292084635691
                 13.27    0.44849523869833
                 5.025    0.27081688521277
                 1.013    0.01545029160744
 s    8 1.00
                 11720  -0.00031444341168873
                  1759  -0.0024821376810179
                 400.8  -0.012316355381583
                 113.7  -0.050538917343672
                 37.03   -0.13938490331632
                 13.27   -0.32507749481778
                 5.025   -0.22984830758785
                 1.013     1.0953793467883
 s    1 1.00
                0.3023                   1
 p    3 1.00
                  17.7   0.062679166281506
                 3.854    0.33353656587936
                 1.046    0.74123964163973
 p    1 1.00
                0.2753                   1
 d    1 1.00
                 1.185                   1

5 0
 s    8 1.00
                  6665  0.00069158396281299
                  1000  0.0053257961529341
                   228   0.027060721042034
                 64.71    0.10165684614077
                 21.06     0.2745748236174
                 7.495    0.44829431892377
                 2.797    0.28490261071525
                0.5215   0.015194859206082
 s    8 1.00
                  6665  -0.00029326965268655
                  1000  -0.0023180354739745
                   228  -0.011499786038565
                 64.71  -0.046826727009787
                 21.06   -0.12846616875047
                 7.495   -0.30126627246289
                 2.797   -0.25563070233011
                0.5215      1.093793361012
 s    1 1.00
                0.1596                   1
 p    3 1.00
                 9.439   0.056979251590039
                 2.002    0.31320721150073
                0.5456    0.76037674173753
 p    1 1.00
                0.1517                   1
 d    1 1.00
                  0.55                   1

6 0
 s    8 1.00
                  6665  0.00069158396281299
                  1000  0.0053257961529341
                   228   0.027060721042034
                 64.71    0.10165684614077
                 21.06     0.2745748236174
                 7.495    0.44829431892377
                 2.797    0.28490261071525
                0.5215   0.015194859206082
 s    8 1.00
                  6665  -0.00029326965268655
                  1000  -0.0023180354739745
                   228  -0.011499786038565
                 64.71  -0.046826727009787
                 21.06   -0.12846616875047
                 7.495   -0.30126627246289
                 2.797   -0.25563070233011
                0.5215      1.093793361012
 s    1 1.00
                0.1596                   1
 p    3 1.00
                 9.439   0.056979251590039
                 2.002    0.31320721150073
                0.5456    0.76037674173753
 p    1 1.00
                0.1517                   1
 d    1 1.00
                  0.55                   1

7 0
 s    8 1.00
                  6665  0.00069158396281299
                  1000  0.0053257961529341
                   228   0.027060721042034
                 64.71    0.10165684614077
                 21.06     0.2745748236174
                 7.495    0.44829431892377
                 2.797    0.28490261071525
                0.5215   0.015194859206082
 s    8 1.00
                  6665  -0.00029326965268655
                  1000  -0.0023180354739745
                   228  -0.011499786038565
                 64.71  -0.046826727009787
                 21.06   -0.12846616875047
                 7.495   -0.30126627246289
                 2.797   -0.25563070233011
                0.5215      1.093793361012
 s    1 1.00
                0.1596                   1
 p    3 1.00
                 9.439   0.056979251590039
                 2.002    0.31320721150073
                0.5456    0.76037674173753
 p    1 1.00
                0.1517                   1
 d    1 1.00
                  0.55                   1

8 0
 s    3 1.00
                 13.01   0.033498726389998
                 1.962    0.23480080117413
                0.4446     0.8136829578829
 s    1 1.00
                 0.122                   1
 p    1 1.00
                 0.727                   1

9 0
 s    8 1.00
                  6665  0.00069158396281299
                  1000  0.0053257961529341
                   228   0.027060721042034
                 64.71    0.10165684614077
                 21.06     0.2745748236174
                 7.495    0.44829431892377
                 2.797    0.28490261071525
                0.5215   0.015194859206082
 s    8 1.00
                  6665  -0.00029326965268655
                  1000  -0.0023180354739745
                   228  -0.011499786038565
                 64.71  -0.046826727009787
                 21.06   -0.12846616875047
                 7.495   -0.30126627246289
                 2.797   -0.25563070233011
                0.5215      1.093793361012
 s    1 1.00
                0.1596                   1
 p    3 1.00
                 9.439   0.056979251590039
                 2.002    0.31320721150073
                0.5456    0.76037674173753
 p    1 1.00
                0.1517                   1
 d    1 1.00
                  0.55                   1

10 0
 s    3 1.00
                 13.01   0.033498726389998
                 1.962    0.23480080117413
                0.4446     0.8136829578829
 s    1 1.00
                 0.122                   1
 p    1 1.00
                 0.727                   1

11 0
 s    3 1.00
                 13.01   0.033498726389998
                 1.962    0.23480080117413
                0.4446     0.8136829578829
 s    1 1.00
                 0.122                   1
 p    1 1.00
                 0.727                   1

12 0
 s    3 1.00
                 13.01   0.033498726389998
                 1.962    0.23480080117413
                0.4446     0.8136829578829
 s    1 1.00
                 0.122                   1
 p    1 1.00
                 0.727                   1

13 0
 s    8 1.00
                  6665  0.00069158396281299
                  1000  0.0053257961529341
                   228   0.027060721042034
                 64.71    0.10165684614077
                 21.06     0.2745748236174
                 7.495    0.44829431892377
                 2.797    0.28490261071525
                0.5215   0.015194859206082
 s    8 1.00
                  6665  -0.00029326965268655
                  1000  -0.0023180354739745
                   228  -0.011499786038565
                 64.71  -0.046826727009787
                 21.06   -0.12846616875047
                 7.495   -0.30126627246289
                 2.797   -0.25563070233011
                0.5215      1.093793361012
 s    1 1.00
                0.1596                   1
 p    3 1.00
                 9.439   0.056979251590039
                 2.002    0.31320721150073
                0.5456    0.76037674173753
 p    1 1.00
                0.1517                   1
 d    1 1.00
                  0.55                   1

14 0
 s    3 1.00
                 13.01   0.033498726389998
                 1.962    0.23480080117413
                0.4446     0.8136829578829
 s    1 1.00
                 0.122                   1
 p    1 1.00
                 0.727                   1

15 0
 s    3 1.00
                 13.01   0.033498726389998
                 1.962    0.23480080117413
                0.4446     0.8136829578829
 s    1 1.00
                 0.122                   1
 p    1 1.00
                 0.727                   1

16 0
 s    8 1.00
                  6665  0.00069158396281299
                  1000  0.0053257961529341
                   228   0.027060721042034
                 64.71    0.10165684614077
                 21.06     0.2745748236174
                 7.495    0.44829431892377
                 2.797    0.28490261071525
                0.5215   0.015194859206082
 s    8 1.00
                  6665  -0.00029326965268655
                  1000  -0.0023180354739745
                   228  -0.011499786038565
                 64.71  -0.046826727009787
                 21.06   -0.12846616875047
                 7.495   -0.30126627246289
                 2.797   -0.25563070233011
                0.5215      1.093793361012
 s    1 1.00
                0.1596                   1
 p    3 1.00
                 9.439   0.056979251590039
                 2.002    0.31320721150073
                0.5456    0.76037674173753
 p    1 1.00
                0.1517                   1
 d    1 1.00
                  0.55                   1

17 0
 s    3 1.00
                 13.01   0.033498726389998
                 1.962    0.23480080117413
                0.4446     0.8136829578829
 s    1 1.00
                 0.122                   1
 p    1 1.00
                 0.727                   1

18 0
 s    3 1.00
                 13.01   0.033498726389998
                 1.962    0.23480080117413
                0.4446     0.8136829578829
 s    1 1.00
                 0.122                   1
 p    1 1.00
                 0.727                   1

19 0
 s    8 1.00
                  6665  0.00069158396281299
                  1000  0.0053257961529341
                   228   0.027060721042034
                 64.71    0.10165684614077
                 21.06     0.2745748236174
                 7.495    0.44829431892377
                 2.797    0.28490261071525
                0.5215   0.015194859206082
 s    8 1.00
                  6665  -0.00029326965268655
                  1000  -0.0023180354739745
                   228  -0.011499786038565
                 64.71  -0.046826727009787
                 21.06   -0.12846616875047
                 7.495   -0.30126627246289
                 2.797   -0.25563070233011
                0.5215      1.093793361012
 s    1 1.00
                0.1596                   1
 p    3 1.00
                 9.439   0.056979251590039
                 2.002    0.31320721150073
                0.5456    0.76037674173753
 p    1 1.00
                0.1517                   1
 d    1 1.00
                  0.55                   1

20 0
 s    3 1.00
                 13.01   0.033498726389998
                 1.962    0.23480080117413
                0.4446     0.8136829578829
 s    1 1.00
                 0.122                   1
 p    1 1.00
                 0.727                   1

21 0
 s    8 1.00
                  6665  0.00069158396281299
                  1000  0.0053257961529341
                   228   0.027060721042034
                 64.71    0.10165684614077
                 21.06     0.2745748236174
                 7.495    0.44829431892377
                 2.797    0.28490261071525
                0.5215   0.015194859206082
 s    8 1.00
                  6665  -0.00029326965268655
                  1000  -0.0023180354739745
                   228  -0.011499786038565
                 64.71  -0.046826727009787
                 21.06   -0.12846616875047
                 7.495   -0.30126627246289
                 2.797   -0.25563070233011
                0.5215      1.093793361012
 s    1 1.00
                0.1596                   1
 p    3 1.00
                 9.439   0.056979251590039
                 2.002    0.31320721150073
                0.5456    0.76037674173753
 p    1 1.00
                0.1517                   1
 d    1 1.00
                  0.55                   1

22 0
 s    3 1.00
                 13.01   0.033498726389998
                 1.962    0.23480080117413
                0.4446     0.8136829578829
 s    1 1.00
                 0.122                   1
 p    1 1.00
                 0.727                   1

23 0
 s    3 1.00
                 13.01   0.033498726389998
                 1.962    0.23480080117413
                0.4446     0.8136829578829
 s    1 1.00
                 0.122                   1
 p    1 1.00
                 0.727                   1

24 0
 s    3 1.00
                 13.01   0.033498726389998
                 1.962    0.23480080117413
                0.4446     0.8136829578829
 s    1 1.00
                 0.122                   1
 p    1 1.00
                 0.727                   1

25 0
 s    8 1.00
                  6665  0.00069158396281299
                  1000  0.0053257961529341
                   228   0.027060721042034
                 64.71    0.10165684614077
                 21.06     0.2745748236174
                 7.495    0.44829431892377
                 2.797    0.28490261071525
                0.5215   0.015194859206082
 s    8 1.00
                  6665  -0.00029326965268655
                  1000  -0.0023180354739745
                   228  -0.011499786038565
                 64.71  -0.046826727009787
                 21.06   -0.12846616875047
                 7.495   -0.30126627246289
                 2.797   -0.25563070233011
                0.5215      1.093793361012
 s    1 1.00
                0.1596                   1
 p    3 1.00
                 9.439   0.056979251590039
                 2.002    0.31320721150073
                0.5456    0.76037674173753
 p    1 1.00
                0.1517                   1
 d    1 1.00
                  0.55                   1

26 0
 s    3 1.00
                 13.01   0.033498726389998
                 1.962    0.23480080117413
                0.4446     0.8136829578829
 s    1 1.00
                 0.122                   1
 p    1 1.00
                 0.727                   1

27 0
 s    3 1.00
                 13.01   0.033498726389998
                 1.962    0.23480080117413
                0.4446     0.8136829578829
 s    1 1.00
                 0.122                   1
 p    1 1.00
                 0.727                   1

28 0
 s    8 1.00
                  6665  0.00069158396281299
                  1000  0.0053257961529341
                   228   0.027060721042034
                 64.71    0.10165684614077
                 21.06     0.2745748236174
                 7.495    0.44829431892377
                 2.797    0.28490261071525
                0.5215   0.015194859206082
 s    8 1.00
                  6665  -0.00029326965268655
                  1000  -0.0023180354739745
                   228  -0.011499786038565
                 64.71  -0.046826727009787
                 21.06   -0.12846616875047
                 7.495   -0.30126627246289
                 2.797   -0.25563070233011
                0.5215      1.093793361012
 s    1 1.00
                0.1596                   1
 p    3 1.00
                 9.439   0.056979251590039
                 2.002    0.31320721150073
                0.5456    0.76037674173753
 p    1 1.00
                0.1517                   1
 d    1 1.00
                  0.55                   1

29 0
 s    3 1.00
                 13.01   0.033498726389998
                 1.962    0.23480080117413
                0.4446     0.8136829578829
 s    1 1.00
                 0.122                   1
 p    1 1.00
                 0.727                   1

30 0
 s    3 1.00
                 13.01   0.033498726389998
                 1.962    0.23480080117413
                0.4446     0.8136829578829
 s    1 1.00
                 0.122                   1
 p    1 1.00
                 0.727                   1

31 0
 s    8 1.00
                  6665  0.00069158396281299
                  1000  0.0053257961529341
                   228   0.027060721042034
                 64.71    0.10165684614077
                 21.06     0.2745748236174
                 7.495    0.44829431892377
                 2.797    0.28490261071525
                0.5215   0.015194859206082
 s    8 1.00
                  6665  -0.00029326965268655
                  1000  -0.0023180354739745
                   228  -0.011499786038565
                 64.71  -0.046826727009787
                 21.06   -0.12846616875047
                 7.495   -0.30126627246289
                 2.797   -0.25563070233011
                0.5215      1.093793361012
 s    1 1.00
                0.1596                   1
 p    3 1.00
                 9.439   0.056979251590039
                 2.002    0.31320721150073
                0.5456    0.76037674173753
 p    1 1.00
                0.1517                   1
 d    1 1.00
                  0.55                   1

32 0
 s    3 1.00
                 13.01   0.033498726389998
                 1.962    0.23480080117413
                0.4446     0.8136829578829
 s    1 1.00
                 0.122                   1
 p    1 1.00
                 0.727                   1

33 0
 s    3 1.00
                 13.01   0.033498726389998
                 1.962    0.23480080117413
                0.4446     0.8136829578829
 s    1 1.00
                 0.122                   1
 p    1 1.00
                 0.727                   1

34 0
 s    3 1.00
                 13.01   0.033498726389998
                 1.962    0.23480080117413
                0.4446     0.8136829578829
 s    1 1.00
                 0.122                   1
 p    1 1.00
                 0.727                   1

35 0
 s    3 1.00
                 13.01   0.033498726389998
                 1.962    0.23480080117413
                0.4446     0.8136829578829
 s    1 1.00
                 0.122                   1
 p    1 1.00
                 0.727                   1

36 0
 s    3 1.00
                 13.01   0.033498726389998
                 1.962    0.23480080117413
                0.4446     0.8136829578829
 s    1 1.00
                 0.122                   1
 p    1 1.00
                 0.727                   1

37 0
 s    3 1.00
                 13.01   0.033498726389998
                 1.962    0.23480080117413
                0.4446     0.8136829578829
 s    1 1.00
                 0.122                   1
 p    1 1.00
                 0.727                   1

[5d]
[7f]
[9g]

[MO]
 Sym= A
 Ene=               0
 Spin= Alpha
 Occup=    1.00000
   1    -2.1008028235557e-07
   2    9.3198467289274e-07
   3    -3.6713282080171e-06
   4    2.5107553566349e-06
   5    -1.7091969774509e-06
   6    2.3976434032082e-06
   7    1.7627490127378e-06
   8    -6.0696614773082e-07
   9    3.853207200972e-06
  10    -8.7732684025776e-07
  11    -1.0168903601637e-07
  12    1.4868184318489e-07
  13    3.2675453152168e-08
  14    4.3515512212951e-08
  15    -6.8805006738494e-07
  16    5.7093751796983e-06
  17    -1.2157481122394e-07
  18    2.7793208292111e-07
  19    4.2533965422575e-06
  20    -8.6356903758074e-07
  21    -6.0352797400422e-07
  22    1.4970416970734e-07
  23    8.3797797868983e-08
  24    2.6278078770295e-08
  25    -1.1969660921033e-06
  26    -8.8273231540656e-06
  27    -6.8168052815848e-05
  28    1.9193542600579e-05
  29    9.5659650518032e-06
  30    1.7672307509932e-05
  31    4.353124454083e-05
  32    -1.6804193137005e-05
  33    3.6308465579629e-05
  34    -3.1670851195199e-06
  35    -2.6071703045323e-06
  36    1.2030474537257e-06
  37    3.3729049840579e-06
  38    -5.0904110749932e-06
  39    -2.5839117616782e-05
  40    -8.6509854541418e-05
  41    0.00028685464966247
  42    7.0209218495773e-05
  43    -5.1793399019304e-05
  44    3.0040813944468e-05
  45    -0.00044330750364136
  46    0.0002912784780677
  47    2.3078860258323e-05
  48    -3.7467244817479e-06
  49    1.9487687554892e-05
  50    -1.1219567797449e-05
  51    1.616344248499e-05
  52    -3.032733415895e-05
  53    -3.2458446481338e-05
  54    -2.9030642030402e-05
  55    0.00044343739376541
  56    -4.1632252565845e-05
  57    2.9428875964974e-05
  58    1.3239586899538e-05
  59    -0.00015825923863872
  60    0.00016759691622448
  61    0.00014132005483492
  62    1.2141418619153e-06
  63    -1.4179120272407e-05
  64    6.6965661425262e-06
  65    3.8138148703817e-06
  66    -3.8653369245244e-06
  67    -2.9647441060136e-06
  68    0.00017355104210545
  69    -0.00013586118788673
  70    -0.00028398265674361
  71    0.00010720029899158
  72    0.00022597517133298
  73    -0.00063238286751231
  74    0.00032829013523397
  75    -5.3919302918684e-05
  76    1.7934574798232e-05
  77    -4.6446271739133e-05
  78    1.7740429831183e-05
  79    3.2514400892279e-06
  80    9.2194929248221e-06
  81    -3.8889217453049e-05
  82    1.1546579380124e-05
  83    -6.7320507910506e-06
  84    1.8136414522831e-06
  85    -1.2408348030613e-06
  86    2.3581515474852e-06
  87    1.2030005372348e-05
  88    -9.2537736475964e-05
  89    -6.7920315742163e-06
  90    3.4431279034517e-06
  91    -2.5318054454963e-06
  92    -7.3125951405487e-05
  93    3.9861921224004e-05
  94    -4.5210830752183e-05
  95    9.0103865314994e-07
  96    6.1202347537308e-06
  97    -3.5152419995197e-06
  98    -1.2384112070233e-06
  99    9.8397917540176e-07
 100    -1.4315765986151e-06
 101    1.5042490187196e-05
 102    7.4770257036152e-06
 103    -2.5578963651307e-06
 104    -3.1070880378973e-06
 105    -4.3398429636165e-05
 106    1.7073563550909e-06
 107    1.2010490986387e-05
 108    -1.3500233514565e-05
 109    1.7425022574767e-05
 110    -4.0095757990949e-05
 111    2.6169754491416e-05
 112    1.2408086051552e-05
 113    -6.286930653436e-06
 114    1.8794752884494e-05
 115    -8.5651115163552e-05
 116    -0.0007437528331969
 117    0.00088194426537254
 118    0.00077465001181973
 119    -0.00044072183778792
 120    -7.186045428718e-05
 121    -0.00039705361301178
 122    0.00030484281856345
 123    -0.00029118244410796
 124    6.8714292613116e-07
 125    -6.1713548620783e-06
 126    -2.3944791516244e-06
 127    4.418309991815e-06
 128    -6.6322080607151e-06
 129    7.929597023251e-06
 130    3.090901339804e-06
 131    5.6839357292287e-06
 132    -2.7010847782856e-06
 133    9.8755838588721e-07
 134    -2.201045231795e-06
 135    -3.852547005325e-05
 136    -3.2207146302624e-06
 137    1.1753172818501e-06
 138    -1.9884236333075e-06
 139    -8.98984565461e-06
 140    -1.4550918155537e-05
 141    8.9273145263496e-05
 142    2.5146482853363e-06
 143    -6.5016253002366e-07
 144    -5.1787850757064e-07
 145    -4.9189101363518e-05
 146    7.4528503478199e-06
 147    8.8145049483654e-05
 148    6.4710891162822e-07
 149    -4.047075478937e-06
 150    3.2522712097106e-06
 151    1.965560862924e-06
 152    -3.93256074393e-06
 153    -0.00034333509108855
 154    -9.1217029848555e-06
 155    5.621261356094e-05
 156    -3.2787908417134e-06
 157    3.2883371557546e-05
 158    -0.00033392545908616
 159    8.1355710667377e-06
 160    2.4655863891747e-05
 161    -5.6884428925317e-05
 162    2.0108606264098e-05
 163    -0.00060706913651077
 164    -0.00026608499066485
 165    -0.00035592637251692
 166    -0.00028452560329418
 167    0.00038046262215806
 168    -0.00082257938238855
 169    -0.0014164707983359
 170    0.0010461385112014
 171    -0.00094887579358433
 172    -2.4502331103724e-06
 173    -7.8316350870535e-05
 174    4.4812260837281e-05
 175    1.043686345308e-05
 176     1.38829333741e-05
 177    -4.41236892693e-06
 178    -1.4719247047485e-05
 179    2.802467341279e-06
 180    3.860779019983e-07
 181    -2.3595145968911e-06
 182    -9.8636673123595e-07
 183    -2.3289204567174e-06
 184    1.6634738470248e-05
 185    5.0003396608386e-07
 186    7.7044851527786e-07
 187    -1.1840930504213e-06
 188    -9.764293550136e-06
 189    -1.4188047249622e-05
 190    1.2985103787559e-06
 191    -7.7946414284338e-07
 192    -1.9688704049834e-07
 193    -8.5551495262318e-07
 194    -7.3607640976685e-07
 195    1.9274114047519e-06
 196    -3.2595111913997e-06
 197    1.5734946117388e-05
 198    1.9653799155668e-06
 199    2.2052394956791e-06
 200    -2.4705822232816e-06
 201    0.00033120863186145
 202    -3.8978038936563e-05
 203    8.3426360022133e-05
 204    -4.7552582173003e-05
 205    3.5612725119101e-05
 206    0.00036853612433139
 207    -1.6922857035762e-05
 208    7.503332472955e-05
 209    -6.1621710640039e-05
 210    3.4392241125946e-05
 211    -0.029278132511941
 212    -0.00016866527715609
 213    0.0020816905441844
 214    -0.00013798196870232
 215    0.00010371627088264
 216    -2.079929489496e-05
 217    -0.0010999149266613
 218    0.00074515862327403
 219    -0.00041911709779036
 220    1.2659566088491e-05
 221    -7.4387009022199e-05
 222    7.6465288055087e-05
 223    -6.2010439006928e-05
 224    0.00015222986445347
 225    -6.1128195741257e-07
 226    5.7337933057094e-06
 227    8.2872020808803e-08
 228    5.7376174971346e-07
 229    -4.0565779627648e-07
 230    3.4727356687765e-08
 231    4.004715473342e-06
 232    2.1444863250848e-07
 233    4.7240185827476e-07
 234    8.1717575542624e-07
 235    -8.7479198348453e-05
 236    -4.7250113824674e-06
 237    1.0047919068724e-05
 238    2.2298162109372e-07
 239    1.1869671274638e-06
 240    -1.168157781813e-06
 241    -1.0492207793041e-05
 242    -6.6196614274347e-06
 243    1.3021596712953e-05
 244    7.0066231832409e-08
 245    -1.3530335222634e-06
 246    4.1762019178899e-07
 247    1.1295975819133e-07
 248    6.2330576111669e-08
 249    -6.9559651881326e-05
 250    0.00014505377121833
 251    -2.8258717452987e-05
 252    8.1030012494741e-06
 253    -5.1267352129656e-05
 254    -9.0928209416793e-05
 255    0.00014010262593479
 256    -1.1986724825156e-05
 257    3.5713453907499e-05
 258     -4.3650290482e-05
 259       1.0019897774575
 260    0.0048469342195149
 261    -0.009945040977927
 262    -0.000150875327977
 263    0.00012300197201235