[Molden Format]
made by pyscf v[2.0.1]
[Atoms] (AU)
O   1   8     0.00000000000000     0.00000000000000    11.69764103529358
H   2   1     0.00000000000000     0.00000000000000     9.87423921339262
H   3   1    -0.05031916615174     1.78353065140343    12.07351273176025
O   4   8     0.00000000000000     0.00000000000000     2.31533471513237
C   5   6     0.00000000000000     0.00000000000000     0.00000000000000
C   6   6     2.01118073026938    -1.40227222164369    -1.50774939176400
C   7   6    -2.01249334291722     1.41331050329955    -1.50315905028694
H   8   1     3.32037363730244    -2.26721897153159    -0.13599698591495
C   9   6     3.45899267434009     0.28739631745591    -3.37437943254505
H   10   1     1.07662969841332    -2.94725144642667    -2.56541439481080
H   11   1    -2.67503415753480     0.18421555839588    -3.06194479365997
H   12   1    -1.07974048864772     3.03851734677796    -2.43674295017013
C   13   6    -4.21607110578555     2.32938802552922     0.11994162256091
H   14   1     4.24440173074564     1.93368664142019    -2.34976285512790
H   15   1     2.15020713235517     1.04714335134846    -4.81494497423699
C   16   6     5.60746363007797    -1.12419643481196    -4.70268606082550
H   17   1    -3.46838323670267     3.50951302338067     1.66946842715333
H   18   1    -5.11873485366228     0.68575958301209     1.04047743976495
C   19   6    -6.18314754751344     3.80909592987882    -1.39656589068747
H   20   1     6.93011263717176    -1.87550812453645    -3.26656317360070
C   21   6     7.06356622236532     0.52877932406334    -6.57829775293605
H   22   1     4.82318879258361    -2.78573437948532    -5.70504560381835
H   23   1    -6.91582688743803     2.61304780074712    -2.95074552451969
H   24   1    -5.26532430573853     5.45420349051338    -2.31005832200284
C   25   6    -8.39941882261433     4.73263980500213     0.21800571437956
H   26   1     7.83338371486801     2.19084139882824    -5.57093109900697
H   27   1     5.73544244039420     1.27376866537418    -8.01071492370229
C   28   6     9.21124858443101    -0.89699110072176    -7.88926949186242
H   29   1    -7.66272760055236     5.92277078003992     1.77035591474408
H   30   1    -9.31497248082589     3.08753015622020     1.12614408368786
C   31   6   -10.35481709231879     6.21833079391143    -1.30905206253246
H   32   1    10.58815905329501    -1.61074586756696    -6.49512691622620
H   33   1    10.23506248045667     0.32468009384095    -9.23072870921204
H   34   1     8.47665842847139    -2.53598436989925    -8.94921964622535
H   35   1    -9.48948872868064     7.90013588951020    -2.18823918416067
H   36   1   -11.93332513000955     6.86460487874102    -0.11255798845995
H   37   1   -11.15126291841033     5.04495968327630    -2.83849898862534
[GTO]
1 0
 s    8 1.00
                 11720  0.00070964594651845
                  1759  0.0054672722921914
                 400.8   0.027823118610189
                 113.7    0.10474773971146
                 37.03    0.28292084635691
                 13.27    0.44849523869833
                 5.025    0.27081688521277
                 1.013    0.01545029160744
 s    8 1.00
                 11720  -0.00031444341168873
                  1759  -0.0024821376810179
                 400.8  -0.012316355381583
                 113.7  -0.050538917343672
                 37.03   -0.13938490331632
                 13.27   -0.32507749481778
                 5.025   -0.22984830758785
                 1.013     1.0953793467883
 s    1 1.00
                0.3023                   1
 p    3 1.00
                  17.7   0.062679166281506
                 3.854    0.33353656587936
                 1.046    0.74123964163973
 p    1 1.00
                0.2753                   1
 d    1 1.00
                 1.185                   1

2 0
 s    3 1.00
                 13.01   0.033498726389998
                 1.962    0.23480080117413
                0.4446     0.8136829578829
 s    1 1.00
                 0.122                   1
 p    1 1.00
                 0.727                   1

3 0
 s    3 1.00
                 13.01   0.033498726389998
                 1.962    0.23480080117413
                0.4446     0.8136829578829
 s    1 1.00
                 0.122                   1
 p    1 1.00
                 0.727                   1

4 0
 s    8 1.00
                 11720  0.00070964594651845
                  1759  0.0054672722921914
                 400.8   0.027823118610189
                 113.7    0.10474773971146
                 37.03    0.28292084635691
                 13.27    0.44849523869833
                 5.025    0.27081688521277
                 1.013    0.01545029160744
 s    8 1.00
                 11720  -0.00031444341168873
                  1759  -0.0024821376810179
                 400.8  -0.012316355381583
                 113.7  -0.050538917343672
                 37.03   -0.13938490331632
                 13.27   -0.32507749481778
                 5.025   -0.22984830758785
                 1.013     1.0953793467883
 s    1 1.00
                0.3023                   1
 p    3 1.00
                  17.7   0.062679166281506
                 3.854    0.33353656587936
                 1.046    0.74123964163973
 p    1 1.00
                0.2753                   1
 d    1 1.00
                 1.185                   1

5 0
 s    8 1.00
                  6665  0.00069158396281299
                  1000  0.0053257961529341
                   228   0.027060721042034
                 64.71    0.10165684614077
                 21.06     0.2745748236174
                 7.495    0.44829431892377
                 2.797    0.28490261071525
                0.5215   0.015194859206082
 s    8 1.00
                  6665  -0.00029326965268655
                  1000  -0.0023180354739745
                   228  -0.011499786038565
                 64.71  -0.046826727009787
                 21.06   -0.12846616875047
                 7.495   -0.30126627246289
                 2.797   -0.25563070233011
                0.5215      1.093793361012
 s    1 1.00
                0.1596                   1
 p    3 1.00
                 9.439   0.056979251590039
                 2.002    0.31320721150073
                0.5456    0.76037674173753
 p    1 1.00
                0.1517                   1
 d    1 1.00
                  0.55                   1

6 0
 s    8 1.00
                  6665  0.00069158396281299
                  1000  0.0053257961529341
                   228   0.027060721042034
                 64.71    0.10165684614077
                 21.06     0.2745748236174
                 7.495    0.44829431892377
                 2.797    0.28490261071525
                0.5215   0.015194859206082
 s    8 1.00
                  6665  -0.00029326965268655
                  1000  -0.0023180354739745
                   228  -0.011499786038565
                 64.71  -0.046826727009787
                 21.06   -0.12846616875047
                 7.495   -0.30126627246289
                 2.797   -0.25563070233011
                0.5215      1.093793361012
 s    1 1.00
                0.1596                   1
 p    3 1.00
                 9.439   0.056979251590039
                 2.002    0.31320721150073
                0.5456    0.76037674173753
 p    1 1.00
                0.1517                   1
 d    1 1.00
                  0.55                   1

7 0
 s    8 1.00
                  6665  0.00069158396281299
                  1000  0.0053257961529341
                   228   0.027060721042034
                 64.71    0.10165684614077
                 21.06     0.2745748236174
                 7.495    0.44829431892377
                 2.797    0.28490261071525
                0.5215   0.015194859206082
 s    8 1.00
                  6665  -0.00029326965268655
                  1000  -0.0023180354739745
                   228  -0.011499786038565
                 64.71  -0.046826727009787
                 21.06   -0.12846616875047
                 7.495   -0.30126627246289
                 2.797   -0.25563070233011
                0.5215      1.093793361012
 s    1 1.00
                0.1596                   1
 p    3 1.00
                 9.439   0.056979251590039
                 2.002    0.31320721150073
                0.5456    0.76037674173753
 p    1 1.00
                0.1517                   1
 d    1 1.00
                  0.55                   1

8 0
 s    3 1.00
                 13.01   0.033498726389998
                 1.962    0.23480080117413
                0.4446     0.8136829578829
 s    1 1.00
                 0.122                   1
 p    1 1.00
                 0.727                   1

9 0
 s    8 1.00
                  6665  0.00069158396281299
                  1000  0.0053257961529341
                   228   0.027060721042034
                 64.71    0.10165684614077
                 21.06     0.2745748236174
                 7.495    0.44829431892377
                 2.797    0.28490261071525
                0.5215   0.015194859206082
 s    8 1.00
                  6665  -0.00029326965268655
                  1000  -0.0023180354739745
                   228  -0.011499786038565
                 64.71  -0.046826727009787
                 21.06   -0.12846616875047
                 7.495   -0.30126627246289
                 2.797   -0.25563070233011
                0.5215      1.093793361012
 s    1 1.00
                0.1596                   1
 p    3 1.00
                 9.439   0.056979251590039
                 2.002    0.31320721150073
                0.5456    0.76037674173753
 p    1 1.00
                0.1517                   1
 d    1 1.00
                  0.55                   1

10 0
 s    3 1.00
                 13.01   0.033498726389998
                 1.962    0.23480080117413
                0.4446     0.8136829578829
 s    1 1.00
                 0.122                   1
 p    1 1.00
                 0.727                   1

11 0
 s    3 1.00
                 13.01   0.033498726389998
                 1.962    0.23480080117413
                0.4446     0.8136829578829
 s    1 1.00
                 0.122                   1
 p    1 1.00
                 0.727                   1

12 0
 s    3 1.00
                 13.01   0.033498726389998
                 1.962    0.23480080117413
                0.4446     0.8136829578829
 s    1 1.00
                 0.122                   1
 p    1 1.00
                 0.727                   1

13 0
 s    8 1.00
                  6665  0.00069158396281299
                  1000  0.0053257961529341
                   228   0.027060721042034
                 64.71    0.10165684614077
                 21.06     0.2745748236174
                 7.495    0.44829431892377
                 2.797    0.28490261071525
                0.5215   0.015194859206082
 s    8 1.00
                  6665  -0.00029326965268655
                  1000  -0.0023180354739745
                   228  -0.011499786038565
                 64.71  -0.046826727009787
                 21.06   -0.12846616875047
                 7.495   -0.30126627246289
                 2.797   -0.25563070233011
                0.5215      1.093793361012
 s    1 1.00
                0.1596                   1
 p    3 1.00
                 9.439   0.056979251590039
                 2.002    0.31320721150073
                0.5456    0.76037674173753
 p    1 1.00
                0.1517                   1
 d    1 1.00
                  0.55                   1

14 0
 s    3 1.00
                 13.01   0.033498726389998
                 1.962    0.23480080117413
                0.4446     0.8136829578829
 s    1 1.00
                 0.122                   1
 p    1 1.00
                 0.727                   1

15 0
 s    3 1.00
                 13.01   0.033498726389998
                 1.962    0.23480080117413
                0.4446     0.8136829578829
 s    1 1.00
                 0.122                   1
 p    1 1.00
                 0.727                   1

16 0
 s    8 1.00
                  6665  0.00069158396281299
                  1000  0.0053257961529341
                   228   0.027060721042034
                 64.71    0.10165684614077
                 21.06     0.2745748236174
                 7.495    0.44829431892377
                 2.797    0.28490261071525
                0.5215   0.015194859206082
 s    8 1.00
                  6665  -0.00029326965268655
                  1000  -0.0023180354739745
                   228  -0.011499786038565
                 64.71  -0.046826727009787
                 21.06   -0.12846616875047
                 7.495   -0.30126627246289
                 2.797   -0.25563070233011
                0.5215      1.093793361012
 s    1 1.00
                0.1596                   1
 p    3 1.00
                 9.439   0.056979251590039
                 2.002    0.31320721150073
                0.5456    0.76037674173753
 p    1 1.00
                0.1517                   1
 d    1 1.00
                  0.55                   1

17 0
 s    3 1.00
                 13.01   0.033498726389998
                 1.962    0.23480080117413
                0.4446     0.8136829578829
 s    1 1.00
                 0.122                   1
 p    1 1.00
                 0.727                   1

18 0
 s    3 1.00
                 13.01   0.033498726389998
                 1.962    0.23480080117413
                0.4446     0.8136829578829
 s    1 1.00
                 0.122                   1
 p    1 1.00
                 0.727                   1

19 0
 s    8 1.00
                  6665  0.00069158396281299
                  1000  0.0053257961529341
                   228   0.027060721042034
                 64.71    0.10165684614077
                 21.06     0.2745748236174
                 7.495    0.44829431892377
                 2.797    0.28490261071525
                0.5215   0.015194859206082
 s    8 1.00
                  6665  -0.00029326965268655
                  1000  -0.0023180354739745
                   228  -0.011499786038565
                 64.71  -0.046826727009787
                 21.06   -0.12846616875047
                 7.495   -0.30126627246289
                 2.797   -0.25563070233011
                0.5215      1.093793361012
 s    1 1.00
                0.1596                   1
 p    3 1.00
                 9.439   0.056979251590039
                 2.002    0.31320721150073
                0.5456    0.76037674173753
 p    1 1.00
                0.1517                   1
 d    1 1.00
                  0.55                   1

20 0
 s    3 1.00
                 13.01   0.033498726389998
                 1.962    0.23480080117413
                0.4446     0.8136829578829
 s    1 1.00
                 0.122                   1
 p    1 1.00
                 0.727                   1

21 0
 s    8 1.00
                  6665  0.00069158396281299
                  1000  0.0053257961529341
                   228   0.027060721042034
                 64.71    0.10165684614077
                 21.06     0.2745748236174
                 7.495    0.44829431892377
                 2.797    0.28490261071525
                0.5215   0.015194859206082
 s    8 1.00
                  6665  -0.00029326965268655
                  1000  -0.0023180354739745
                   228  -0.011499786038565
                 64.71  -0.046826727009787
                 21.06   -0.12846616875047
                 7.495   -0.30126627246289
                 2.797   -0.25563070233011
                0.5215      1.093793361012
 s    1 1.00
                0.1596                   1
 p    3 1.00
                 9.439   0.056979251590039
                 2.002    0.31320721150073
                0.5456    0.76037674173753
 p    1 1.00
                0.1517                   1
 d    1 1.00
                  0.55                   1

22 0
 s    3 1.00
                 13.01   0.033498726389998
                 1.962    0.23480080117413
                0.4446     0.8136829578829
 s    1 1.00
                 0.122                   1
 p    1 1.00
                 0.727                   1

23 0
 s    3 1.00
                 13.01   0.033498726389998
                 1.962    0.23480080117413
                0.4446     0.8136829578829
 s    1 1.00
                 0.122                   1
 p    1 1.00
                 0.727                   1

24 0
 s    3 1.00
                 13.01   0.033498726389998
                 1.962    0.23480080117413
                0.4446     0.8136829578829
 s    1 1.00
                 0.122                   1
 p    1 1.00
                 0.727                   1

25 0
 s    8 1.00
                  6665  0.00069158396281299
                  1000  0.0053257961529341
                   228   0.027060721042034
                 64.71    0.10165684614077
                 21.06     0.2745748236174
                 7.495    0.44829431892377
                 2.797    0.28490261071525
                0.5215   0.015194859206082
 s    8 1.00
                  6665  -0.00029326965268655
                  1000  -0.0023180354739745
                   228  -0.011499786038565
                 64.71  -0.046826727009787
                 21.06   -0.12846616875047
                 7.495   -0.30126627246289
                 2.797   -0.25563070233011
                0.5215      1.093793361012
 s    1 1.00
                0.1596                   1
 p    3 1.00
                 9.439   0.056979251590039
                 2.002    0.31320721150073
                0.5456    0.76037674173753
 p    1 1.00
                0.1517                   1
 d    1 1.00
                  0.55                   1

26 0
 s    3 1.00
                 13.01   0.033498726389998
                 1.962    0.23480080117413
                0.4446     0.8136829578829
 s    1 1.00
                 0.122                   1
 p    1 1.00
                 0.727                   1

27 0
 s    3 1.00
                 13.01   0.033498726389998
                 1.962    0.23480080117413
                0.4446     0.8136829578829
 s    1 1.00
                 0.122                   1
 p    1 1.00
                 0.727                   1

28 0
 s    8 1.00
                  6665  0.00069158396281299
                  1000  0.0053257961529341
                   228   0.027060721042034
                 64.71    0.10165684614077
                 21.06     0.2745748236174
                 7.495    0.44829431892377
                 2.797    0.28490261071525
                0.5215   0.015194859206082
 s    8 1.00
                  6665  -0.00029326965268655
                  1000  -0.0023180354739745
                   228  -0.011499786038565
                 64.71  -0.046826727009787
                 21.06   -0.12846616875047
                 7.495   -0.30126627246289
                 2.797   -0.25563070233011
                0.5215      1.093793361012
 s    1 1.00
                0.1596                   1
 p    3 1.00
                 9.439   0.056979251590039
                 2.002    0.31320721150073
                0.5456    0.76037674173753
 p    1 1.00
                0.1517                   1
 d    1 1.00
                  0.55                   1

29 0
 s    3 1.00
                 13.01   0.033498726389998
                 1.962    0.23480080117413
                0.4446     0.8136829578829
 s    1 1.00
                 0.122                   1
 p    1 1.00
                 0.727                   1

30 0
 s    3 1.00
                 13.01   0.033498726389998
                 1.962    0.23480080117413
                0.4446     0.8136829578829
 s    1 1.00
                 0.122                   1
 p    1 1.00
                 0.727                   1

31 0
 s    8 1.00
                  6665  0.00069158396281299
                  1000  0.0053257961529341
                   228   0.027060721042034
                 64.71    0.10165684614077
                 21.06     0.2745748236174
                 7.495    0.44829431892377
                 2.797    0.28490261071525
                0.5215   0.015194859206082
 s    8 1.00
                  6665  -0.00029326965268655
                  1000  -0.0023180354739745
                   228  -0.011499786038565
                 64.71  -0.046826727009787
                 21.06   -0.12846616875047
                 7.495   -0.30126627246289
                 2.797   -0.25563070233011
                0.5215      1.093793361012
 s    1 1.00
                0.1596                   1
 p    3 1.00
                 9.439   0.056979251590039
                 2.002    0.31320721150073
                0.5456    0.76037674173753
 p    1 1.00
                0.1517                   1
 d    1 1.00
                  0.55                   1

32 0
 s    3 1.00
                 13.01   0.033498726389998
                 1.962    0.23480080117413
                0.4446     0.8136829578829
 s    1 1.00
                 0.122                   1
 p    1 1.00
                 0.727                   1

33 0
 s    3 1.00
                 13.01   0.033498726389998
                 1.962    0.23480080117413
                0.4446     0.8136829578829
 s    1 1.00
                 0.122                   1
 p    1 1.00
                 0.727                   1

34 0
 s    3 1.00
                 13.01   0.033498726389998
                 1.962    0.23480080117413
                0.4446     0.8136829578829
 s    1 1.00
                 0.122                   1
 p    1 1.00
                 0.727                   1

35 0
 s    3 1.00
                 13.01   0.033498726389998
                 1.962    0.23480080117413
                0.4446     0.8136829578829
 s    1 1.00
                 0.122                   1
 p    1 1.00
                 0.727                   1

36 0
 s    3 1.00
                 13.01   0.033498726389998
                 1.962    0.23480080117413
                0.4446     0.8136829578829
 s    1 1.00
                 0.122                   1
 p    1 1.00
                 0.727                   1

37 0
 s    3 1.00
                 13.01   0.033498726389998
                 1.962    0.23480080117413
                0.4446     0.8136829578829
 s    1 1.00
                 0.122                   1
 p    1 1.00
                 0.727                   1

[5d]
[7f]
[9g]

[MO]
 Sym= A
 Ene=               0
 Spin= Alpha
 Occup=    1.00000
   1    6.5133653641989e-08
   2    1.2604045736604e-08
   3    -2.0879479346823e-07
   4    -4.0272517695021e-08
   5     5.30474486353e-08
   6    -1.2243221682578e-07
   7    -3.2430260893379e-08
   8    9.9721155022963e-08
   9    4.7028219337781e-08
  10    -4.1320156507959e-08
  11    6.0842434715229e-10
  12    5.520376297034e-10
  13    -7.0907935743791e-09
  14    -1.252465801276e-09
  15    1.1641296616406e-07
  16    2.4408790736764e-08
  17    -2.0549613076661e-09
  18    -2.7981826089399e-10
  19    1.3311282969613e-07
  20    2.3473915278038e-08
  21    -7.1682823048534e-08
  22    -2.9878945938425e-09
  23    3.3903259283603e-08
  24    -8.3401338390251e-09
  25    1.2096601305837e-06
  26    9.1927278341469e-06
  27    6.7556331924357e-05
  28    -1.9213599462062e-05
  29    -9.7076206996868e-06
  30    -1.7087067538599e-05
  31    -4.3450489271897e-05
  32    1.6855203704608e-05
  33    -3.5850608161962e-05
  34    2.9990602140968e-06
  35    2.6196100974661e-06
  36    -1.1522680892701e-06
  37    -3.3653934176223e-06
  38    5.0731035723981e-06
  39    2.5842924913451e-05
  40    8.6003256624906e-05
  41    -0.00028517898365287
  42    -6.9956311591065e-05
  43    5.0905141022562e-05
  44    -2.9871213641749e-05
  45    0.00044257356012389
  46    -0.0002915779724682
  47    -2.3836357127667e-05
  48    3.7286920117647e-06
  49    -1.9475784527032e-05
  50    1.1159023684422e-05
  51    -1.6027458505877e-05
  52    3.0099838011965e-05
  53    3.2440669056155e-05
  54    2.8961822490621e-05
  55    -0.00044382706058683
  56    4.1592936925065e-05
  57    -2.9287593044256e-05
  58    -1.3336721028913e-05
  59    0.00015872369675942
  60    -0.00016764519965004
  61    -0.00014111545414694
  62    -1.1634339427263e-06
  63    1.4166019417439e-05
  64    -6.7163451487508e-06
  65    -3.8015961392248e-06
  66    3.895413970922e-06
  67    3.1185168509857e-06
  68    -0.00017284923142015
  69    0.00013614977009791
  70    0.00028403417271067
  71    -0.00010718795648482
  72    -0.00022535862492826
  73    0.00063113183410507
  74    -0.00032729664498049
  75    5.4522089552734e-05
  76    -1.769326927159e-05
  77    4.6384129448586e-05
  78    -1.7755988417877e-05
  79    -3.42818032132e-06
  80    -8.9718390101835e-06
  81    3.8672425081105e-05
  82    -1.1626462862355e-05
  83    6.7485715427059e-06
  84    -1.8301591143758e-06
  85    1.2738007283166e-06
  86    -2.3662496195271e-06
  87    -1.2005759583788e-05
  88    9.2693328349452e-05
  89    6.7350559426736e-06
  90    -3.5150625998984e-06
  91    2.6466274352355e-06
  92    7.2936855155375e-05
  93    -4.008063323851e-05
  94    4.505673365505e-05
  95    -9.1268141049189e-07
  96    -6.1226840724223e-06
  97    3.5117954037373e-06
  98    1.2493760146455e-06
  99    -9.8299323106441e-07
 100    1.3474185501617e-06
 101    -1.5033526147808e-05
 102    -7.4902675855155e-06
 103    2.5648537689398e-06
 104    3.0752812607916e-06
 105    4.3506686751369e-05
 106    -1.1264571831907e-06
 107    -1.1967549360555e-05
 108    1.3457315427213e-05
 109    -1.7392284829663e-05
 110    4.0490581114346e-05
 111    -2.5577741014401e-05
 112    -1.2377522259013e-05
 113    6.2672719902681e-06
 114    -1.8769469959911e-05
 115    8.5272548629627e-05
 116    0.00074218364097372
 117    -0.00088518542132303
 118    -0.00077507517191448
 119    0.00044052466866959
 120    7.3065648750525e-05
 121    0.00039765437120243
 122    -0.00030533919271804
 123    0.00029291133480092
 124    -1.019922064502e-06
 125    6.1715412853209e-06
 126    2.4830389801571e-06
 127    -4.122615220805e-06
 128    6.3657034981271e-06
 129    -7.8779349316033e-06
 130    -3.0022479136109e-06
 131    -5.6793979201816e-06
 132    2.6946952384574e-06
 133    -9.8377558821357e-07
 134    2.1398295312182e-06
 135    3.8544997265828e-05
 136    3.1992045084824e-06
 137    -1.1663039070402e-06
 138    2.0211208845885e-06
 139    9.0097136122747e-06
 140    1.4569342312025e-05
 141    -8.9538650259209e-05
 142    -2.486499190567e-06
 143    6.266526357488e-07
 144    4.9122051318198e-07
 145    4.9378471775683e-05
 146    -7.4201292324979e-06
 147    -8.8055295829151e-05
 148    -6.3699983384994e-07
 149    4.0412808635029e-06
 150    -3.2535630970262e-06
 151    -1.9718772967723e-06
 152    3.9458425175661e-06
 153    0.00034264319112087
 154    8.0961334198033e-06
 155    -5.6275642163888e-05
 156    3.376559639222e-06
 157    -3.2763856288442e-05
 158    0.00033378788588333
 159    -8.3151130334577e-06
 160    -2.4793505424632e-05
 161    5.687251224722e-05
 162    -2.001374303163e-05
 163    0.0006072438062988
 164    0.00026890395208084
 165    0.00036047690786341
 166    0.00027987274706108
 167    -0.00037985160436311
 168    0.00082863255612649
 169      0.00141436875273
 170    -0.0010463609208408
 171    0.00095257969997608
 172    2.5965126887065e-06
 173    7.7653390108919e-05
 174    -4.457967282199e-05
 175    -1.0113359631233e-05
 176    -1.4215873482784e-05
 177    4.3875472998505e-06
 178    1.4700702017586e-05
 179    -2.8158276103704e-06
 180    -3.9129653448775e-07
 181    2.360210484034e-06
 182    9.876822066151e-07
 183    2.3591192759427e-06
 184    -1.6505763960316e-05
 185    -5.026044405175e-07
 186    -7.9526096665515e-07
 187    1.2026081705979e-06
 188    9.7067834195954e-06
 189    1.4118148153948e-05
 190    -1.3647025302827e-06
 191     7.72130851403e-07
 192    1.9770282083944e-07
 193    8.5842438166526e-07
 194    7.3605495041237e-07
 195    -1.9255111539897e-06
 196    3.2932491771546e-06
 197    -1.5644138967917e-05
 198    -1.9678174109892e-06
 199    -2.2030700993792e-06
 200    2.4705286457986e-06
 201    -0.00033270494463318
 202    3.7454275338919e-05
 203    -8.3403642191395e-05
 204    4.7430611694149e-05
 205    -3.5510745303977e-05
 206    -0.00037081222241787
 207    1.5436377084469e-05
 208    -7.4909148163806e-05
 209    6.1663557481854e-05
 210    -3.4291704409177e-05
 211     0.028870336879714
 212    0.00017125655834066
 213    -0.0020772590711539
 214    0.00014331195735738
 215    -0.00010613649750538
 216    1.7363843971444e-05
 217    0.0011038438587838
 218    -0.000747219991876
 219    0.00041820300246466
 220    -1.2669991524754e-05
 221    7.3461782989226e-05
 222    -7.5892061833894e-05
 223     6.21203285218e-05
 224    -0.00015204728983898
 225    6.2761191407486e-07
 226    -5.6872430264103e-06
 227    -8.3780294034868e-08
 228    -5.7680083517174e-07
 229    4.0780262792447e-07
 230    -3.8915468290032e-08
 231    -4.080374556296e-06
 232    -2.1615814628116e-07
 233    -4.6976781641704e-07
 234    -8.1720932557077e-07
 235    8.5696674124561e-05
 236    4.7310706667192e-06
 237    -1.008482264748e-05
 238    -2.2799247527735e-07
 239    -1.1864928359367e-06
 240    1.1743501894232e-06
 241    1.0542095762385e-05
 242    6.6177879981378e-06
 243    -1.3030782726685e-05
 244    -6.8103335962181e-08
 245    1.3519244816291e-06
 246    -4.1520396261292e-07
 247    -1.1579874218406e-07
 248    -5.9594258321242e-08
 249    6.9132726563037e-05
 250    -0.00014641102365215
 251    2.8269396625644e-05
 252    -8.1954171345961e-06
 253    5.1004818352341e-05
 254    9.0496612463948e-05
 255    -0.00014162828780348
 256    1.2100195507011e-05
 257    -3.5611677254543e-05
 258    4.3449997303203e-05
 259      -1.0020017180754
 260    -0.0048470429182712
 261    0.0099464495036563
 262    0.00015409860640471