[Molden Format]
made by pyscf v[2.0.1]
[Atoms] (AU)
O   1   8     0.00000000000000     0.00000000000000     8.67407923598948
H   2   1     0.00000000000000     0.00000000000000     6.85067741408852
H   3   1    -0.05031916615174     1.78353065140343     9.04995093245615
O   4   8     0.00000000000000     0.00000000000000     2.31533471513237
C   5   6     0.00000000000000     0.00000000000000     0.00000000000000
C   6   6     2.01118073026938    -1.40227222164369    -1.50774939176400
C   7   6    -2.01249334291722     1.41331050329955    -1.50315905028694
H   8   1     3.32037363730244    -2.26721897153159    -0.13599698591495
C   9   6     3.45899267434009     0.28739631745591    -3.37437943254505
H   10   1     1.07662969841332    -2.94725144642667    -2.56541439481080
H   11   1    -2.67503415753480     0.18421555839588    -3.06194479365997
H   12   1    -1.07974048864772     3.03851734677796    -2.43674295017013
C   13   6    -4.21607110578555     2.32938802552922     0.11994162256091
H   14   1     4.24440173074564     1.93368664142019    -2.34976285512790
H   15   1     2.15020713235517     1.04714335134846    -4.81494497423699
C   16   6     5.60746363007797    -1.12419643481196    -4.70268606082550
H   17   1    -3.46838323670267     3.50951302338067     1.66946842715333
H   18   1    -5.11873485366228     0.68575958301209     1.04047743976495
C   19   6    -6.18314754751344     3.80909592987882    -1.39656589068747
H   20   1     6.93011263717176    -1.87550812453645    -3.26656317360070
C   21   6     7.06356622236532     0.52877932406334    -6.57829775293605
H   22   1     4.82318879258361    -2.78573437948532    -5.70504560381835
H   23   1    -6.91582688743803     2.61304780074712    -2.95074552451969
H   24   1    -5.26532430573853     5.45420349051338    -2.31005832200284
C   25   6    -8.39941882261433     4.73263980500213     0.21800571437956
H   26   1     7.83338371486801     2.19084139882824    -5.57093109900697
H   27   1     5.73544244039420     1.27376866537418    -8.01071492370229
C   28   6     9.21124858443101    -0.89699110072176    -7.88926949186242
H   29   1    -7.66272760055236     5.92277078003992     1.77035591474408
H   30   1    -9.31497248082589     3.08753015622020     1.12614408368786
C   31   6   -10.35481709231879     6.21833079391143    -1.30905206253246
H   32   1    10.58815905329501    -1.61074586756696    -6.49512691622620
H   33   1    10.23506248045667     0.32468009384095    -9.23072870921204
H   34   1     8.47665842847139    -2.53598436989925    -8.94921964622535
H   35   1    -9.48948872868064     7.90013588951020    -2.18823918416067
H   36   1   -11.93332513000955     6.86460487874102    -0.11255798845995
H   37   1   -11.15126291841033     5.04495968327630    -2.83849898862534
[GTO]
1 0
 s    8 1.00
                 11720  0.00070964594651845
                  1759  0.0054672722921914
                 400.8   0.027823118610189
                 113.7    0.10474773971146
                 37.03    0.28292084635691
                 13.27    0.44849523869833
                 5.025    0.27081688521277
                 1.013    0.01545029160744
 s    8 1.00
                 11720  -0.00031444341168873
                  1759  -0.0024821376810179
                 400.8  -0.012316355381583
                 113.7  -0.050538917343672
                 37.03   -0.13938490331632
                 13.27   -0.32507749481778
                 5.025   -0.22984830758785
                 1.013     1.0953793467883
 s    1 1.00
                0.3023                   1
 p    3 1.00
                  17.7   0.062679166281506
                 3.854    0.33353656587936
                 1.046    0.74123964163973
 p    1 1.00
                0.2753                   1
 d    1 1.00
                 1.185                   1

2 0
 s    3 1.00
                 13.01   0.033498726389998
                 1.962    0.23480080117413
                0.4446     0.8136829578829
 s    1 1.00
                 0.122                   1
 p    1 1.00
                 0.727                   1

3 0
 s    3 1.00
                 13.01   0.033498726389998
                 1.962    0.23480080117413
                0.4446     0.8136829578829
 s    1 1.00
                 0.122                   1
 p    1 1.00
                 0.727                   1

4 0
 s    8 1.00
                 11720  0.00070964594651845
                  1759  0.0054672722921914
                 400.8   0.027823118610189
                 113.7    0.10474773971146
                 37.03    0.28292084635691
                 13.27    0.44849523869833
                 5.025    0.27081688521277
                 1.013    0.01545029160744
 s    8 1.00
                 11720  -0.00031444341168873
                  1759  -0.0024821376810179
                 400.8  -0.012316355381583
                 113.7  -0.050538917343672
                 37.03   -0.13938490331632
                 13.27   -0.32507749481778
                 5.025   -0.22984830758785
                 1.013     1.0953793467883
 s    1 1.00
                0.3023                   1
 p    3 1.00
                  17.7   0.062679166281506
                 3.854    0.33353656587936
                 1.046    0.74123964163973
 p    1 1.00
                0.2753                   1
 d    1 1.00
                 1.185                   1

5 0
 s    8 1.00
                  6665  0.00069158396281299
                  1000  0.0053257961529341
                   228   0.027060721042034
                 64.71    0.10165684614077
                 21.06     0.2745748236174
                 7.495    0.44829431892377
                 2.797    0.28490261071525
                0.5215   0.015194859206082
 s    8 1.00
                  6665  -0.00029326965268655
                  1000  -0.0023180354739745
                   228  -0.011499786038565
                 64.71  -0.046826727009787
                 21.06   -0.12846616875047
                 7.495   -0.30126627246289
                 2.797   -0.25563070233011
                0.5215      1.093793361012
 s    1 1.00
                0.1596                   1
 p    3 1.00
                 9.439   0.056979251590039
                 2.002    0.31320721150073
                0.5456    0.76037674173753
 p    1 1.00
                0.1517                   1
 d    1 1.00
                  0.55                   1

6 0
 s    8 1.00
                  6665  0.00069158396281299
                  1000  0.0053257961529341
                   228   0.027060721042034
                 64.71    0.10165684614077
                 21.06     0.2745748236174
                 7.495    0.44829431892377
                 2.797    0.28490261071525
                0.5215   0.015194859206082
 s    8 1.00
                  6665  -0.00029326965268655
                  1000  -0.0023180354739745
                   228  -0.011499786038565
                 64.71  -0.046826727009787
                 21.06   -0.12846616875047
                 7.495   -0.30126627246289
                 2.797   -0.25563070233011
                0.5215      1.093793361012
 s    1 1.00
                0.1596                   1
 p    3 1.00
                 9.439   0.056979251590039
                 2.002    0.31320721150073
                0.5456    0.76037674173753
 p    1 1.00
                0.1517                   1
 d    1 1.00
                  0.55                   1

7 0
 s    8 1.00
                  6665  0.00069158396281299
                  1000  0.0053257961529341
                   228   0.027060721042034
                 64.71    0.10165684614077
                 21.06     0.2745748236174
                 7.495    0.44829431892377
                 2.797    0.28490261071525
                0.5215   0.015194859206082
 s    8 1.00
                  6665  -0.00029326965268655
                  1000  -0.0023180354739745
                   228  -0.011499786038565
                 64.71  -0.046826727009787
                 21.06   -0.12846616875047
                 7.495   -0.30126627246289
                 2.797   -0.25563070233011
                0.5215      1.093793361012
 s    1 1.00
                0.1596                   1
 p    3 1.00
                 9.439   0.056979251590039
                 2.002    0.31320721150073
                0.5456    0.76037674173753
 p    1 1.00
                0.1517                   1
 d    1 1.00
                  0.55                   1

8 0
 s    3 1.00
                 13.01   0.033498726389998
                 1.962    0.23480080117413
                0.4446     0.8136829578829
 s    1 1.00
                 0.122                   1
 p    1 1.00
                 0.727                   1

9 0
 s    8 1.00
                  6665  0.00069158396281299
                  1000  0.0053257961529341
                   228   0.027060721042034
                 64.71    0.10165684614077
                 21.06     0.2745748236174
                 7.495    0.44829431892377
                 2.797    0.28490261071525
                0.5215   0.015194859206082
 s    8 1.00
                  6665  -0.00029326965268655
                  1000  -0.0023180354739745
                   228  -0.011499786038565
                 64.71  -0.046826727009787
                 21.06   -0.12846616875047
                 7.495   -0.30126627246289
                 2.797   -0.25563070233011
                0.5215      1.093793361012
 s    1 1.00
                0.1596                   1
 p    3 1.00
                 9.439   0.056979251590039
                 2.002    0.31320721150073
                0.5456    0.76037674173753
 p    1 1.00
                0.1517                   1
 d    1 1.00
                  0.55                   1

10 0
 s    3 1.00
                 13.01   0.033498726389998
                 1.962    0.23480080117413
                0.4446     0.8136829578829
 s    1 1.00
                 0.122                   1
 p    1 1.00
                 0.727                   1

11 0
 s    3 1.00
                 13.01   0.033498726389998
                 1.962    0.23480080117413
                0.4446     0.8136829578829
 s    1 1.00
                 0.122                   1
 p    1 1.00
                 0.727                   1

12 0
 s    3 1.00
                 13.01   0.033498726389998
                 1.962    0.23480080117413
                0.4446     0.8136829578829
 s    1 1.00
                 0.122                   1
 p    1 1.00
                 0.727                   1

13 0
 s    8 1.00
                  6665  0.00069158396281299
                  1000  0.0053257961529341
                   228   0.027060721042034
                 64.71    0.10165684614077
                 21.06     0.2745748236174
                 7.495    0.44829431892377
                 2.797    0.28490261071525
                0.5215   0.015194859206082
 s    8 1.00
                  6665  -0.00029326965268655
                  1000  -0.0023180354739745
                   228  -0.011499786038565
                 64.71  -0.046826727009787
                 21.06   -0.12846616875047
                 7.495   -0.30126627246289
                 2.797   -0.25563070233011
                0.5215      1.093793361012
 s    1 1.00
                0.1596                   1
 p    3 1.00
                 9.439   0.056979251590039
                 2.002    0.31320721150073
                0.5456    0.76037674173753
 p    1 1.00
                0.1517                   1
 d    1 1.00
                  0.55                   1

14 0
 s    3 1.00
                 13.01   0.033498726389998
                 1.962    0.23480080117413
                0.4446     0.8136829578829
 s    1 1.00
                 0.122                   1
 p    1 1.00
                 0.727                   1

15 0
 s    3 1.00
                 13.01   0.033498726389998
                 1.962    0.23480080117413
                0.4446     0.8136829578829
 s    1 1.00
                 0.122                   1
 p    1 1.00
                 0.727                   1

16 0
 s    8 1.00
                  6665  0.00069158396281299
                  1000  0.0053257961529341
                   228   0.027060721042034
                 64.71    0.10165684614077
                 21.06     0.2745748236174
                 7.495    0.44829431892377
                 2.797    0.28490261071525
                0.5215   0.015194859206082
 s    8 1.00
                  6665  -0.00029326965268655
                  1000  -0.0023180354739745
                   228  -0.011499786038565
                 64.71  -0.046826727009787
                 21.06   -0.12846616875047
                 7.495   -0.30126627246289
                 2.797   -0.25563070233011
                0.5215      1.093793361012
 s    1 1.00
                0.1596                   1
 p    3 1.00
                 9.439   0.056979251590039
                 2.002    0.31320721150073
                0.5456    0.76037674173753
 p    1 1.00
                0.1517                   1
 d    1 1.00
                  0.55                   1

17 0
 s    3 1.00
                 13.01   0.033498726389998
                 1.962    0.23480080117413
                0.4446     0.8136829578829
 s    1 1.00
                 0.122                   1
 p    1 1.00
                 0.727                   1

18 0
 s    3 1.00
                 13.01   0.033498726389998
                 1.962    0.23480080117413
                0.4446     0.8136829578829
 s    1 1.00
                 0.122                   1
 p    1 1.00
                 0.727                   1

19 0
 s    8 1.00
                  6665  0.00069158396281299
                  1000  0.0053257961529341
                   228   0.027060721042034
                 64.71    0.10165684614077
                 21.06     0.2745748236174
                 7.495    0.44829431892377
                 2.797    0.28490261071525
                0.5215   0.015194859206082
 s    8 1.00
                  6665  -0.00029326965268655
                  1000  -0.0023180354739745
                   228  -0.011499786038565
                 64.71  -0.046826727009787
                 21.06   -0.12846616875047
                 7.495   -0.30126627246289
                 2.797   -0.25563070233011
                0.5215      1.093793361012
 s    1 1.00
                0.1596                   1
 p    3 1.00
                 9.439   0.056979251590039
                 2.002    0.31320721150073
                0.5456    0.76037674173753
 p    1 1.00
                0.1517                   1
 d    1 1.00
                  0.55                   1

20 0
 s    3 1.00
                 13.01   0.033498726389998
                 1.962    0.23480080117413
                0.4446     0.8136829578829
 s    1 1.00
                 0.122                   1
 p    1 1.00
                 0.727                   1

21 0
 s    8 1.00
                  6665  0.00069158396281299
                  1000  0.0053257961529341
                   228   0.027060721042034
                 64.71    0.10165684614077
                 21.06     0.2745748236174
                 7.495    0.44829431892377
                 2.797    0.28490261071525
                0.5215   0.015194859206082
 s    8 1.00
                  6665  -0.00029326965268655
                  1000  -0.0023180354739745
                   228  -0.011499786038565
                 64.71  -0.046826727009787
                 21.06   -0.12846616875047
                 7.495   -0.30126627246289
                 2.797   -0.25563070233011
                0.5215      1.093793361012
 s    1 1.00
                0.1596                   1
 p    3 1.00
                 9.439   0.056979251590039
                 2.002    0.31320721150073
                0.5456    0.76037674173753
 p    1 1.00
                0.1517                   1
 d    1 1.00
                  0.55                   1

22 0
 s    3 1.00
                 13.01   0.033498726389998
                 1.962    0.23480080117413
                0.4446     0.8136829578829
 s    1 1.00
                 0.122                   1
 p    1 1.00
                 0.727                   1

23 0
 s    3 1.00
                 13.01   0.033498726389998
                 1.962    0.23480080117413
                0.4446     0.8136829578829
 s    1 1.00
                 0.122                   1
 p    1 1.00
                 0.727                   1

24 0
 s    3 1.00
                 13.01   0.033498726389998
                 1.962    0.23480080117413
                0.4446     0.8136829578829
 s    1 1.00
                 0.122                   1
 p    1 1.00
                 0.727                   1

25 0
 s    8 1.00
                  6665  0.00069158396281299
                  1000  0.0053257961529341
                   228   0.027060721042034
                 64.71    0.10165684614077
                 21.06     0.2745748236174
                 7.495    0.44829431892377
                 2.797    0.28490261071525
                0.5215   0.015194859206082
 s    8 1.00
                  6665  -0.00029326965268655
                  1000  -0.0023180354739745
                   228  -0.011499786038565
                 64.71  -0.046826727009787
                 21.06   -0.12846616875047
                 7.495   -0.30126627246289
                 2.797   -0.25563070233011
                0.5215      1.093793361012
 s    1 1.00
                0.1596                   1
 p    3 1.00
                 9.439   0.056979251590039
                 2.002    0.31320721150073
                0.5456    0.76037674173753
 p    1 1.00
                0.1517                   1
 d    1 1.00
                  0.55                   1

26 0
 s    3 1.00
                 13.01   0.033498726389998
                 1.962    0.23480080117413
                0.4446     0.8136829578829
 s    1 1.00
                 0.122                   1
 p    1 1.00
                 0.727                   1

27 0
 s    3 1.00
                 13.01   0.033498726389998
                 1.962    0.23480080117413
                0.4446     0.8136829578829
 s    1 1.00
                 0.122                   1
 p    1 1.00
                 0.727                   1

28 0
 s    8 1.00
                  6665  0.00069158396281299
                  1000  0.0053257961529341
                   228   0.027060721042034
                 64.71    0.10165684614077
                 21.06     0.2745748236174
                 7.495    0.44829431892377
                 2.797    0.28490261071525
                0.5215   0.015194859206082
 s    8 1.00
                  6665  -0.00029326965268655
                  1000  -0.0023180354739745
                   228  -0.011499786038565
                 64.71  -0.046826727009787
                 21.06   -0.12846616875047
                 7.495   -0.30126627246289
                 2.797   -0.25563070233011
                0.5215      1.093793361012
 s    1 1.00
                0.1596                   1
 p    3 1.00
                 9.439   0.056979251590039
                 2.002    0.31320721150073
                0.5456    0.76037674173753
 p    1 1.00
                0.1517                   1
 d    1 1.00
                  0.55                   1

29 0
 s    3 1.00
                 13.01   0.033498726389998
                 1.962    0.23480080117413
                0.4446     0.8136829578829
 s    1 1.00
                 0.122                   1
 p    1 1.00
                 0.727                   1

30 0
 s    3 1.00
                 13.01   0.033498726389998
                 1.962    0.23480080117413
                0.4446     0.8136829578829
 s    1 1.00
                 0.122                   1
 p    1 1.00
                 0.727                   1

31 0
 s    8 1.00
                  6665  0.00069158396281299
                  1000  0.0053257961529341
                   228   0.027060721042034
                 64.71    0.10165684614077
                 21.06     0.2745748236174
                 7.495    0.44829431892377
                 2.797    0.28490261071525
                0.5215   0.015194859206082
 s    8 1.00
                  6665  -0.00029326965268655
                  1000  -0.0023180354739745
                   228  -0.011499786038565
                 64.71  -0.046826727009787
                 21.06   -0.12846616875047
                 7.495   -0.30126627246289
                 2.797   -0.25563070233011
                0.5215      1.093793361012
 s    1 1.00
                0.1596                   1
 p    3 1.00
                 9.439   0.056979251590039
                 2.002    0.31320721150073
                0.5456    0.76037674173753
 p    1 1.00
                0.1517                   1
 d    1 1.00
                  0.55                   1

32 0
 s    3 1.00
                 13.01   0.033498726389998
                 1.962    0.23480080117413
                0.4446     0.8136829578829
 s    1 1.00
                 0.122                   1
 p    1 1.00
                 0.727                   1

33 0
 s    3 1.00
                 13.01   0.033498726389998
                 1.962    0.23480080117413
                0.4446     0.8136829578829
 s    1 1.00
                 0.122                   1
 p    1 1.00
                 0.727                   1

34 0
 s    3 1.00
                 13.01   0.033498726389998
                 1.962    0.23480080117413
                0.4446     0.8136829578829
 s    1 1.00
                 0.122                   1
 p    1 1.00
                 0.727                   1

35 0
 s    3 1.00
                 13.01   0.033498726389998
                 1.962    0.23480080117413
                0.4446     0.8136829578829
 s    1 1.00
                 0.122                   1
 p    1 1.00
                 0.727                   1

36 0
 s    3 1.00
                 13.01   0.033498726389998
                 1.962    0.23480080117413
                0.4446     0.8136829578829
 s    1 1.00
                 0.122                   1
 p    1 1.00
                 0.727                   1

37 0
 s    3 1.00
                 13.01   0.033498726389998
                 1.962    0.23480080117413
                0.4446     0.8136829578829
 s    1 1.00
                 0.122                   1
 p    1 1.00
                 0.727                   1

[5d]
[7f]
[9g]

[MO]
 Sym= A
 Ene=               0
 Spin= Alpha
 Occup=    1.00000
   1    -3.565758934261e-07
   2    3.5009051782496e-07
   3    -1.4133405723097e-06
   4    1.7670006972801e-06
   5    -1.1954206704453e-06
   6    1.6670132452101e-06
   7    1.2648205370968e-06
   8    -6.6599438406898e-07
   9    1.8966911685212e-06
  10    -4.3305957215973e-07
  11    -5.6987807310937e-08
  12    8.1138752078689e-08
  13    2.7026088640578e-08
  14    3.2861984474525e-08
  15    -5.9737899647504e-07
  16    2.7736957754928e-06
  17    -1.8403177043479e-08
  18    1.4408413686087e-07
  19    2.393526504368e-06
  20    -7.1992580482693e-07
  21    9.7784949424867e-08
  22    1.0542754096401e-07
  23    -2.6400607970977e-09
  24    5.5919843416382e-08
  25    -1.1961209181752e-06
  26    -8.9819489716692e-06
  27    -6.8218309976747e-05
  28    1.9214081938266e-05
  29    9.5927301796662e-06
  30    1.7400115172308e-05
  31    4.3505446627896e-05
  32    -1.6823259227251e-05
  33    3.6424862956796e-05
  34    -3.0987645790415e-06
  35    -2.6113756411906e-06
  36    1.1906882415123e-06
  37    3.3715073509539e-06
  38    -5.0862974829122e-06
  39    -2.5754843536499e-05
  40    -8.6242760812462e-05
  41    0.00028611311489154
  42    7.0164277606168e-05
  43    -5.1594313469029e-05
  44    3.0074567422352e-05
  45    -0.00044295199986071
  46    0.0002912173008031
  47    2.3950742166075e-05
  48    -3.7301750310743e-06
  49    1.9480598829178e-05
  50    -1.1198006519989e-05
  51    1.6125598071312e-05
  52    -3.0253308987562e-05
  53    -3.245653242191e-05
  54    -2.9016891685487e-05
  55    0.00044370378017384
  56    -4.1617149066817e-05
  57    2.9400667547198e-05
  58    1.3265960699808e-05
  59    -0.00015858790176153
  60    0.00016775086831667
  61    0.00014094971272463
  62     1.18661705451e-06
  63    -1.419238699508e-05
  64    6.7075566478772e-06
  65    3.8111714136811e-06
  66    -3.8723492398848e-06
  67    -3.0134954251386e-06
  68    0.00017338446006239
  69    -0.00013547968106357
  70    -0.000284016269528
  71    0.00010720855112789
  72    0.00022586065590091
  73    -0.00063183857055765
  74    0.00032791085984367
  75    -5.4100532290825e-05
  76    1.7866366311794e-05
  77    -4.6420459814516e-05
  78    1.7743423305078e-05
  79    3.292530865249e-06
  80    9.1481542678344e-06
  81    -3.8805736228335e-05
  82    1.1762398038474e-05
  83    -6.740148681945e-06
  84    1.820662672901e-06
  85    -1.2686747777803e-06
  86    2.367832556504e-06
  87    1.2037905625594e-05
  88    -9.2765902935757e-05
  89    -6.7874007203429e-06
  90    3.4533938386794e-06
  91    -2.5616936732288e-06
  92    -7.3010505671437e-05
  93    4.0092059714001e-05
  94    -4.5073633131833e-05
  95    9.0938729507174e-07
  96    6.1269564346784e-06
  97    -3.5118366555581e-06
  98    -1.2439087695142e-06
  99    9.7559756968514e-07
 100    -1.4405667341159e-06
 101    1.4997465728778e-05
 102    7.480826877425e-06
 103    -2.5698256112762e-06
 104    -3.0808362216716e-06
 105    -4.3439469375162e-05
 106    1.5249371707855e-06
 107    1.1989741235621e-05
 108    -1.3497106403279e-05
 109    1.7422063475891e-05
 110    -4.0193487024466e-05
 111    2.6007246086674e-05
 112    1.2397652358857e-05
 113    -6.2750971887134e-06
 114    1.879987737695e-05
 115    -8.5525128219972e-05
 116    -0.00074334966927549
 117    0.00088205147810314
 118    0.00077480394835006
 119    -0.00044072458380235
 120    -7.2149785927432e-05
 121    -0.00039695146957587
 122    0.00030472530576839
 123    -0.00029164170678298
 124    7.3835389197664e-07
 125    -6.1938922728258e-06
 126    -2.4131164323806e-06
 127    4.3650177417761e-06
 128    -6.572449820421e-06
 129    7.893339347828e-06
 130    2.9854943006921e-06
 131    5.6835549375205e-06
 132    -2.6973350206941e-06
 133    9.8854055819821e-07
 134    -2.1680743872171e-06
 135    -3.8535202897534e-05
 136    -3.213121978174e-06
 137    1.1661567334073e-06
 138    -2.0107563033069e-06
 139    -9.0069986674433e-06
 140    -1.4579312187815e-05
 141    8.9489528051874e-05
 142    2.5145642733043e-06
 143    -6.4401630085185e-07
 144    -5.1089305872336e-07
 145    -4.9340717311511e-05
 146    7.4470594702436e-06
 147    8.8120524942227e-05
 148    6.4269290597365e-07
 149    -4.0470777531281e-06
 150    3.2490983113611e-06
 151    1.9738252929548e-06
 152    -3.9383816423748e-06
 153    -0.00034324740219606
 154    -8.6269716001822e-06
 155    5.6206778431504e-05
 156    -3.3203278635136e-06
 157    3.2820965276337e-05
 158    -0.0003339311687279
 159    8.2791400716579e-06
 160    2.4680783618834e-05
 161    -5.6865410543312e-05
 162    2.0081712406316e-05
 163    -0.00060712420820035
 164    -0.00026660505594503
 165    -0.00035638372814097
 166    -0.00028377818850349
 167    0.00038037005317416
 168    -0.00082358679959354
 169    -0.0014159738785603
 170    0.0010460900763791
 171    -0.00094943674790719
 172    -2.4844382093513e-06
 173    -7.8192660038335e-05
 174    4.4765966623726e-05
 175    1.0391848492718e-05
 176    1.3920241128288e-05
 177    -4.4048576592011e-06
 178    -1.4709874598373e-05
 179    2.8105700404244e-06
 180    3.8849390089059e-07
 181    -2.3597538445172e-06
 182    -9.835726054136e-07
 183    -2.3307211443891e-06
 184    1.6574573575423e-05
 185    4.9840391854843e-07
 186    7.7565116594316e-07
 187    -1.1873329365263e-06
 188    -9.7197397637581e-06
 189    -1.4177292684786e-05
 190    1.3284488752273e-06
 191    -7.7547646345094e-07
 192    -1.95956632134e-07
 193    -8.5802128983519e-07
 194    -7.3723915223756e-07
 195    1.9251172466905e-06
 196    -3.2839890883707e-06
 197    1.5691439146797e-05
 198    1.9683068032726e-06
 199    2.2044185264819e-06
 200    -2.4706045293112e-06
 201    0.00033142984889401
 202    -3.8744250650858e-05
 203    8.3408560886166e-05
 204    -4.7526627214747e-05
 205    3.5594465675038e-05
 206    0.00036888685253168
 207    -1.6692440722286e-05
 208      7.5003549633e-05
 209    -6.1621111614332e-05
 210    3.4376339151135e-05
 211    -0.029209095202979
 212    -0.00016909408504519
 213    0.0020810573490353
 214    -0.00013884757249876
 215    0.00010410689355592
 216    -2.0239851008263e-05
 217    -0.0011005945097105
 218    0.00074551736598172
 219    -0.00041894636601275
 220    1.2660540757764e-05
 221    -7.4230539866551e-05
 222    7.6371894851241e-05
 223    -6.2030198778798e-05
 224    0.00015220133140783
 225    -6.1438751834725e-07
 226    5.7211774451668e-06
 227    8.142350299901e-08
 228    5.7465846049527e-07
 229    -4.0698372625651e-07
 230    3.9817613301242e-08
 231    4.0465756804804e-06
 232    2.1474056072788e-07
 233    4.7166629894666e-07
 234    8.1897958810337e-07
 235    -8.7119435988384e-05
 236    -4.7307356664116e-06
 237    1.0057700046431e-05
 238    2.2582264637226e-07
 239    1.1869739070149e-06
 240    -1.1712707056622e-06
 241    -1.0514790726043e-05
 242    -6.6314437581901e-06
 243    1.3030033859769e-05
 244    6.9316734897576e-08
 245    -1.3529486708387e-06
 246    4.1618950385378e-07
 247    1.1515740610694e-07
 248    6.0717229650789e-08
 249    -6.9480011196378e-05
 250    0.00014521240057598
 251    -2.8259712008911e-05
 252    8.1236735440771e-06
 253    -5.121822980398e-05
 254    -9.0853611184895e-05
 255    0.00014032825141708
 256    -1.2005122194221e-05
 257    3.5692804333255e-05
 258    -4.3615447576051e-05
 259       1.0019918040032
 260    0.0048469333731151
 261    -0.0099453126083197
 262    -0.00015142418901954