[Molden Format]
made by pyscf v[2.0.1]
[Atoms] (AU)
O   1   8     0.00000000000000     0.00000000000000    11.31969581038057
H   2   1     0.00000000000000     0.00000000000000     9.49629398847960
H   3   1    -0.05031916615174     1.78353065140343    11.69556750684724
O   4   8     0.00000000000000     0.00000000000000     2.31533471513237
C   5   6     0.00000000000000     0.00000000000000     0.00000000000000
C   6   6     2.01118073026938    -1.40227222164369    -1.50774939176400
C   7   6    -2.01249334291722     1.41331050329955    -1.50315905028694
H   8   1     3.32037363730244    -2.26721897153159    -0.13599698591495
C   9   6     3.45899267434009     0.28739631745591    -3.37437943254505
H   10   1     1.07662969841332    -2.94725144642667    -2.56541439481080
H   11   1    -2.67503415753480     0.18421555839588    -3.06194479365997
H   12   1    -1.07974048864772     3.03851734677796    -2.43674295017013
C   13   6    -4.21607110578555     2.32938802552922     0.11994162256091
H   14   1     4.24440173074564     1.93368664142019    -2.34976285512790
H   15   1     2.15020713235517     1.04714335134846    -4.81494497423699
C   16   6     5.60746363007797    -1.12419643481196    -4.70268606082550
H   17   1    -3.46838323670267     3.50951302338067     1.66946842715333
H   18   1    -5.11873485366228     0.68575958301209     1.04047743976495
C   19   6    -6.18314754751344     3.80909592987882    -1.39656589068747
H   20   1     6.93011263717176    -1.87550812453645    -3.26656317360070
C   21   6     7.06356622236532     0.52877932406334    -6.57829775293605
H   22   1     4.82318879258361    -2.78573437948532    -5.70504560381835
H   23   1    -6.91582688743803     2.61304780074712    -2.95074552451969
H   24   1    -5.26532430573853     5.45420349051338    -2.31005832200284
C   25   6    -8.39941882261433     4.73263980500213     0.21800571437956
H   26   1     7.83338371486801     2.19084139882824    -5.57093109900697
H   27   1     5.73544244039420     1.27376866537418    -8.01071492370229
C   28   6     9.21124858443101    -0.89699110072176    -7.88926949186242
H   29   1    -7.66272760055236     5.92277078003992     1.77035591474408
H   30   1    -9.31497248082589     3.08753015622020     1.12614408368786
C   31   6   -10.35481709231879     6.21833079391143    -1.30905206253246
H   32   1    10.58815905329501    -1.61074586756696    -6.49512691622620
H   33   1    10.23506248045667     0.32468009384095    -9.23072870921204
H   34   1     8.47665842847139    -2.53598436989925    -8.94921964622535
H   35   1    -9.48948872868064     7.90013588951020    -2.18823918416067
H   36   1   -11.93332513000955     6.86460487874102    -0.11255798845995
H   37   1   -11.15126291841033     5.04495968327630    -2.83849898862534
[GTO]
1 0
 s    8 1.00
                 11720  0.00070964594651845
                  1759  0.0054672722921914
                 400.8   0.027823118610189
                 113.7    0.10474773971146
                 37.03    0.28292084635691
                 13.27    0.44849523869833
                 5.025    0.27081688521277
                 1.013    0.01545029160744
 s    8 1.00
                 11720  -0.00031444341168873
                  1759  -0.0024821376810179
                 400.8  -0.012316355381583
                 113.7  -0.050538917343672
                 37.03   -0.13938490331632
                 13.27   -0.32507749481778
                 5.025   -0.22984830758785
                 1.013     1.0953793467883
 s    1 1.00
                0.3023                   1
 p    3 1.00
                  17.7   0.062679166281506
                 3.854    0.33353656587936
                 1.046    0.74123964163973
 p    1 1.00
                0.2753                   1
 d    1 1.00
                 1.185                   1

2 0
 s    3 1.00
                 13.01   0.033498726389998
                 1.962    0.23480080117413
                0.4446     0.8136829578829
 s    1 1.00
                 0.122                   1
 p    1 1.00
                 0.727                   1

3 0
 s    3 1.00
                 13.01   0.033498726389998
                 1.962    0.23480080117413
                0.4446     0.8136829578829
 s    1 1.00
                 0.122                   1
 p    1 1.00
                 0.727                   1

4 0
 s    8 1.00
                 11720  0.00070964594651845
                  1759  0.0054672722921914
                 400.8   0.027823118610189
                 113.7    0.10474773971146
                 37.03    0.28292084635691
                 13.27    0.44849523869833
                 5.025    0.27081688521277
                 1.013    0.01545029160744
 s    8 1.00
                 11720  -0.00031444341168873
                  1759  -0.0024821376810179
                 400.8  -0.012316355381583
                 113.7  -0.050538917343672
                 37.03   -0.13938490331632
                 13.27   -0.32507749481778
                 5.025   -0.22984830758785
                 1.013     1.0953793467883
 s    1 1.00
                0.3023                   1
 p    3 1.00
                  17.7   0.062679166281506
                 3.854    0.33353656587936
                 1.046    0.74123964163973
 p    1 1.00
                0.2753                   1
 d    1 1.00
                 1.185                   1

5 0
 s    8 1.00
                  6665  0.00069158396281299
                  1000  0.0053257961529341
                   228   0.027060721042034
                 64.71    0.10165684614077
                 21.06     0.2745748236174
                 7.495    0.44829431892377
                 2.797    0.28490261071525
                0.5215   0.015194859206082
 s    8 1.00
                  6665  -0.00029326965268655
                  1000  -0.0023180354739745
                   228  -0.011499786038565
                 64.71  -0.046826727009787
                 21.06   -0.12846616875047
                 7.495   -0.30126627246289
                 2.797   -0.25563070233011
                0.5215      1.093793361012
 s    1 1.00
                0.1596                   1
 p    3 1.00
                 9.439   0.056979251590039
                 2.002    0.31320721150073
                0.5456    0.76037674173753
 p    1 1.00
                0.1517                   1
 d    1 1.00
                  0.55                   1

6 0
 s    8 1.00
                  6665  0.00069158396281299
                  1000  0.0053257961529341
                   228   0.027060721042034
                 64.71    0.10165684614077
                 21.06     0.2745748236174
                 7.495    0.44829431892377
                 2.797    0.28490261071525
                0.5215   0.015194859206082
 s    8 1.00
                  6665  -0.00029326965268655
                  1000  -0.0023180354739745
                   228  -0.011499786038565
                 64.71  -0.046826727009787
                 21.06   -0.12846616875047
                 7.495   -0.30126627246289
                 2.797   -0.25563070233011
                0.5215      1.093793361012
 s    1 1.00
                0.1596                   1
 p    3 1.00
                 9.439   0.056979251590039
                 2.002    0.31320721150073
                0.5456    0.76037674173753
 p    1 1.00
                0.1517                   1
 d    1 1.00
                  0.55                   1

7 0
 s    8 1.00
                  6665  0.00069158396281299
                  1000  0.0053257961529341
                   228   0.027060721042034
                 64.71    0.10165684614077
                 21.06     0.2745748236174
                 7.495    0.44829431892377
                 2.797    0.28490261071525
                0.5215   0.015194859206082
 s    8 1.00
                  6665  -0.00029326965268655
                  1000  -0.0023180354739745
                   228  -0.011499786038565
                 64.71  -0.046826727009787
                 21.06   -0.12846616875047
                 7.495   -0.30126627246289
                 2.797   -0.25563070233011
                0.5215      1.093793361012
 s    1 1.00
                0.1596                   1
 p    3 1.00
                 9.439   0.056979251590039
                 2.002    0.31320721150073
                0.5456    0.76037674173753
 p    1 1.00
                0.1517                   1
 d    1 1.00
                  0.55                   1

8 0
 s    3 1.00
                 13.01   0.033498726389998
                 1.962    0.23480080117413
                0.4446     0.8136829578829
 s    1 1.00
                 0.122                   1
 p    1 1.00
                 0.727                   1

9 0
 s    8 1.00
                  6665  0.00069158396281299
                  1000  0.0053257961529341
                   228   0.027060721042034
                 64.71    0.10165684614077
                 21.06     0.2745748236174
                 7.495    0.44829431892377
                 2.797    0.28490261071525
                0.5215   0.015194859206082
 s    8 1.00
                  6665  -0.00029326965268655
                  1000  -0.0023180354739745
                   228  -0.011499786038565
                 64.71  -0.046826727009787
                 21.06   -0.12846616875047
                 7.495   -0.30126627246289
                 2.797   -0.25563070233011
                0.5215      1.093793361012
 s    1 1.00
                0.1596                   1
 p    3 1.00
                 9.439   0.056979251590039
                 2.002    0.31320721150073
                0.5456    0.76037674173753
 p    1 1.00
                0.1517                   1
 d    1 1.00
                  0.55                   1

10 0
 s    3 1.00
                 13.01   0.033498726389998
                 1.962    0.23480080117413
                0.4446     0.8136829578829
 s    1 1.00
                 0.122                   1
 p    1 1.00
                 0.727                   1

11 0
 s    3 1.00
                 13.01   0.033498726389998
                 1.962    0.23480080117413
                0.4446     0.8136829578829
 s    1 1.00
                 0.122                   1
 p    1 1.00
                 0.727                   1

12 0
 s    3 1.00
                 13.01   0.033498726389998
                 1.962    0.23480080117413
                0.4446     0.8136829578829
 s    1 1.00
                 0.122                   1
 p    1 1.00
                 0.727                   1

13 0
 s    8 1.00
                  6665  0.00069158396281299
                  1000  0.0053257961529341
                   228   0.027060721042034
                 64.71    0.10165684614077
                 21.06     0.2745748236174
                 7.495    0.44829431892377
                 2.797    0.28490261071525
                0.5215   0.015194859206082
 s    8 1.00
                  6665  -0.00029326965268655
                  1000  -0.0023180354739745
                   228  -0.011499786038565
                 64.71  -0.046826727009787
                 21.06   -0.12846616875047
                 7.495   -0.30126627246289
                 2.797   -0.25563070233011
                0.5215      1.093793361012
 s    1 1.00
                0.1596                   1
 p    3 1.00
                 9.439   0.056979251590039
                 2.002    0.31320721150073
                0.5456    0.76037674173753
 p    1 1.00
                0.1517                   1
 d    1 1.00
                  0.55                   1

14 0
 s    3 1.00
                 13.01   0.033498726389998
                 1.962    0.23480080117413
                0.4446     0.8136829578829
 s    1 1.00
                 0.122                   1
 p    1 1.00
                 0.727                   1

15 0
 s    3 1.00
                 13.01   0.033498726389998
                 1.962    0.23480080117413
                0.4446     0.8136829578829
 s    1 1.00
                 0.122                   1
 p    1 1.00
                 0.727                   1

16 0
 s    8 1.00
                  6665  0.00069158396281299
                  1000  0.0053257961529341
                   228   0.027060721042034
                 64.71    0.10165684614077
                 21.06     0.2745748236174
                 7.495    0.44829431892377
                 2.797    0.28490261071525
                0.5215   0.015194859206082
 s    8 1.00
                  6665  -0.00029326965268655
                  1000  -0.0023180354739745
                   228  -0.011499786038565
                 64.71  -0.046826727009787
                 21.06   -0.12846616875047
                 7.495   -0.30126627246289
                 2.797   -0.25563070233011
                0.5215      1.093793361012
 s    1 1.00
                0.1596                   1
 p    3 1.00
                 9.439   0.056979251590039
                 2.002    0.31320721150073
                0.5456    0.76037674173753
 p    1 1.00
                0.1517                   1
 d    1 1.00
                  0.55                   1

17 0
 s    3 1.00
                 13.01   0.033498726389998
                 1.962    0.23480080117413
                0.4446     0.8136829578829
 s    1 1.00
                 0.122                   1
 p    1 1.00
                 0.727                   1

18 0
 s    3 1.00
                 13.01   0.033498726389998
                 1.962    0.23480080117413
                0.4446     0.8136829578829
 s    1 1.00
                 0.122                   1
 p    1 1.00
                 0.727                   1

19 0
 s    8 1.00
                  6665  0.00069158396281299
                  1000  0.0053257961529341
                   228   0.027060721042034
                 64.71    0.10165684614077
                 21.06     0.2745748236174
                 7.495    0.44829431892377
                 2.797    0.28490261071525
                0.5215   0.015194859206082
 s    8 1.00
                  6665  -0.00029326965268655
                  1000  -0.0023180354739745
                   228  -0.011499786038565
                 64.71  -0.046826727009787
                 21.06   -0.12846616875047
                 7.495   -0.30126627246289
                 2.797   -0.25563070233011
                0.5215      1.093793361012
 s    1 1.00
                0.1596                   1
 p    3 1.00
                 9.439   0.056979251590039
                 2.002    0.31320721150073
                0.5456    0.76037674173753
 p    1 1.00
                0.1517                   1
 d    1 1.00
                  0.55                   1

20 0
 s    3 1.00
                 13.01   0.033498726389998
                 1.962    0.23480080117413
                0.4446     0.8136829578829
 s    1 1.00
                 0.122                   1
 p    1 1.00
                 0.727                   1

21 0
 s    8 1.00
                  6665  0.00069158396281299
                  1000  0.0053257961529341
                   228   0.027060721042034
                 64.71    0.10165684614077
                 21.06     0.2745748236174
                 7.495    0.44829431892377
                 2.797    0.28490261071525
                0.5215   0.015194859206082
 s    8 1.00
                  6665  -0.00029326965268655
                  1000  -0.0023180354739745
                   228  -0.011499786038565
                 64.71  -0.046826727009787
                 21.06   -0.12846616875047
                 7.495   -0.30126627246289
                 2.797   -0.25563070233011
                0.5215      1.093793361012
 s    1 1.00
                0.1596                   1
 p    3 1.00
                 9.439   0.056979251590039
                 2.002    0.31320721150073
                0.5456    0.76037674173753
 p    1 1.00
                0.1517                   1
 d    1 1.00
                  0.55                   1

22 0
 s    3 1.00
                 13.01   0.033498726389998
                 1.962    0.23480080117413
                0.4446     0.8136829578829
 s    1 1.00
                 0.122                   1
 p    1 1.00
                 0.727                   1

23 0
 s    3 1.00
                 13.01   0.033498726389998
                 1.962    0.23480080117413
                0.4446     0.8136829578829
 s    1 1.00
                 0.122                   1
 p    1 1.00
                 0.727                   1

24 0
 s    3 1.00
                 13.01   0.033498726389998
                 1.962    0.23480080117413
                0.4446     0.8136829578829
 s    1 1.00
                 0.122                   1
 p    1 1.00
                 0.727                   1

25 0
 s    8 1.00
                  6665  0.00069158396281299
                  1000  0.0053257961529341
                   228   0.027060721042034
                 64.71    0.10165684614077
                 21.06     0.2745748236174
                 7.495    0.44829431892377
                 2.797    0.28490261071525
                0.5215   0.015194859206082
 s    8 1.00
                  6665  -0.00029326965268655
                  1000  -0.0023180354739745
                   228  -0.011499786038565
                 64.71  -0.046826727009787
                 21.06   -0.12846616875047
                 7.495   -0.30126627246289
                 2.797   -0.25563070233011
                0.5215      1.093793361012
 s    1 1.00
                0.1596                   1
 p    3 1.00
                 9.439   0.056979251590039
                 2.002    0.31320721150073
                0.5456    0.76037674173753
 p    1 1.00
                0.1517                   1
 d    1 1.00
                  0.55                   1

26 0
 s    3 1.00
                 13.01   0.033498726389998
                 1.962    0.23480080117413
                0.4446     0.8136829578829
 s    1 1.00
                 0.122                   1
 p    1 1.00
                 0.727                   1

27 0
 s    3 1.00
                 13.01   0.033498726389998
                 1.962    0.23480080117413
                0.4446     0.8136829578829
 s    1 1.00
                 0.122                   1
 p    1 1.00
                 0.727                   1

28 0
 s    8 1.00
                  6665  0.00069158396281299
                  1000  0.0053257961529341
                   228   0.027060721042034
                 64.71    0.10165684614077
                 21.06     0.2745748236174
                 7.495    0.44829431892377
                 2.797    0.28490261071525
                0.5215   0.015194859206082
 s    8 1.00
                  6665  -0.00029326965268655
                  1000  -0.0023180354739745
                   228  -0.011499786038565
                 64.71  -0.046826727009787
                 21.06   -0.12846616875047
                 7.495   -0.30126627246289
                 2.797   -0.25563070233011
                0.5215      1.093793361012
 s    1 1.00
                0.1596                   1
 p    3 1.00
                 9.439   0.056979251590039
                 2.002    0.31320721150073
                0.5456    0.76037674173753
 p    1 1.00
                0.1517                   1
 d    1 1.00
                  0.55                   1

29 0
 s    3 1.00
                 13.01   0.033498726389998
                 1.962    0.23480080117413
                0.4446     0.8136829578829
 s    1 1.00
                 0.122                   1
 p    1 1.00
                 0.727                   1

30 0
 s    3 1.00
                 13.01   0.033498726389998
                 1.962    0.23480080117413
                0.4446     0.8136829578829
 s    1 1.00
                 0.122                   1
 p    1 1.00
                 0.727                   1

31 0
 s    8 1.00
                  6665  0.00069158396281299
                  1000  0.0053257961529341
                   228   0.027060721042034
                 64.71    0.10165684614077
                 21.06     0.2745748236174
                 7.495    0.44829431892377
                 2.797    0.28490261071525
                0.5215   0.015194859206082
 s    8 1.00
                  6665  -0.00029326965268655
                  1000  -0.0023180354739745
                   228  -0.011499786038565
                 64.71  -0.046826727009787
                 21.06   -0.12846616875047
                 7.495   -0.30126627246289
                 2.797   -0.25563070233011
                0.5215      1.093793361012
 s    1 1.00
                0.1596                   1
 p    3 1.00
                 9.439   0.056979251590039
                 2.002    0.31320721150073
                0.5456    0.76037674173753
 p    1 1.00
                0.1517                   1
 d    1 1.00
                  0.55                   1

32 0
 s    3 1.00
                 13.01   0.033498726389998
                 1.962    0.23480080117413
                0.4446     0.8136829578829
 s    1 1.00
                 0.122                   1
 p    1 1.00
                 0.727                   1

33 0
 s    3 1.00
                 13.01   0.033498726389998
                 1.962    0.23480080117413
                0.4446     0.8136829578829
 s    1 1.00
                 0.122                   1
 p    1 1.00
                 0.727                   1

34 0
 s    3 1.00
                 13.01   0.033498726389998
                 1.962    0.23480080117413
                0.4446     0.8136829578829
 s    1 1.00
                 0.122                   1
 p    1 1.00
                 0.727                   1

35 0
 s    3 1.00
                 13.01   0.033498726389998
                 1.962    0.23480080117413
                0.4446     0.8136829578829
 s    1 1.00
                 0.122                   1
 p    1 1.00
                 0.727                   1

36 0
 s    3 1.00
                 13.01   0.033498726389998
                 1.962    0.23480080117413
                0.4446     0.8136829578829
 s    1 1.00
                 0.122                   1
 p    1 1.00
                 0.727                   1

37 0
 s    3 1.00
                 13.01   0.033498726389998
                 1.962    0.23480080117413
                0.4446     0.8136829578829
 s    1 1.00
                 0.122                   1
 p    1 1.00
                 0.727                   1

[5d]
[7f]
[9g]

[MO]
 Sym= A
 Ene=               0
 Spin= Alpha
 Occup=    1.00000
   1    1.9622279403282e-05
   2    1.1489629181869e-05
   3    -4.5685126986603e-05
   4    4.2951774391552e-08
   5    -1.7237843478729e-06
   6    3.4326189734267e-07
   7    -3.0092560742026e-07
   8    1.0882211761289e-05
   9    3.4861776801242e-05
  10    -6.6502223141336e-06
  11    -1.1887662578807e-08
  12    5.0837351151241e-07
  13    -5.0762315410814e-07
  14    -2.802712170567e-08
  15    5.3996515426367e-06
  16    6.8455669750717e-05
  17    2.7390396856092e-08
  18    -6.803144194647e-07
  19    2.1240272343351e-05
  20    2.4883011974857e-06
  21    -2.871748833688e-05
  22    -1.0658828750348e-07
  23    3.6944298355211e-06
  24    -9.665667034148e-07
  25      -1.0013581403397
  26    -0.001933931004597
  27    0.0067674349983644
  28    4.4810273278486e-06
  29    -5.9301740434938e-06
  30    0.0016440703425367
  31    1.9392998112937e-06
  32    1.9243690612235e-06
  33    -0.0018177176679508
  34    -0.00013042961508664
  35    3.0320101830739e-06
  36    -1.2703228887949e-06
  37    -6.7832406643918e-05
  38    0.00017667997752869
  39    -0.00027163913397294
  40    -0.00038478718361962
  41    -0.0014057509646874
  42    -1.5314557811712e-05
  43    8.5511898063688e-06
  44    3.5465414803668e-05
  45    -9.3653594149842e-05
  46    6.8273121299842e-05
  47    -0.0035192298712948
  48    0.00055070323329966
  49    9.3614168181011e-06
  50    -1.9161835348973e-06
  51    -3.0575538992313e-05
  52    0.00011179375059157
  53    8.0670120283384e-05
  54    0.00016474268681895
  55    -0.0013596311982879
  56    -0.00010639720395353
  57    2.3900875404999e-05
  58    -5.9938385884642e-05
  59    0.00040661265757323
  60    -0.00046323039239778
  61    0.00087811751292143
  62    0.00011941936019141
  63    -0.00015329394964711
  64    0.00014246997854239
  65    -5.7938923736598e-05
  66    0.00013616997327451
  67    3.6984076772277e-05
  68    0.00010592796660035
  69    -0.00053070434464059
  70    8.1684284497536e-05
  71    -6.1873166720564e-05
  72    -3.4310119310496e-05
  73    -0.00098429954574391
  74    0.00075852455291803
  75    0.00057951388524808
  76    0.00014263938635691
  77    0.00012501123049059
  78    -8.878113581721e-05
  79    -6.317320372557e-05
  80    0.00015738427373861
  81    -1.125244695179e-05
  82    -0.00023123670705822
  83    -6.2219502442028e-05
  84    4.5477361807285e-05
  85    -4.6937636535491e-05
  86    -1.3026901592387e-05
  87    -8.9971197239719e-06
  88    0.00062776877448824
  89    -3.1243905330436e-05
  90    1.9128113880734e-06
  91    -5.5283862433135e-06
  92    -0.00027700085351227
  93    -0.00063151769917046
  94    2.2442148223849e-05
  95    -2.0218932605806e-05
  96    -1.1898236557697e-05
  97    -8.7815449050809e-06
  98    2.1895144304302e-05
  99    4.8012120212039e-05
 100    8.1284163068751e-05
 101    0.00017521085411459
 102    -9.0710047586904e-06
 103    1.3195886584308e-05
 104    -7.4562481878579e-05
 105    9.2270215224791e-05
 106    0.00022859135768157
 107    6.7427251968375e-05
 108    -8.3620629992923e-06
 109    -7.1335571517996e-05
 110    -4.3529251665546e-05
 111    6.8581132285566e-05
 112    4.4623992103065e-05
 113    -2.1568106481798e-05
 114    -7.0292626074999e-05
 115    3.9659508902011e-05
 116    5.4399438504001e-05
 117    -0.00085688096381347
 118    -2.2169286992418e-05
 119    3.5974245919859e-05
 120    -2.5613659100943e-05
 121    -0.00031782610108792
 122    -1.7739864895793e-05
 123    0.00013363111602862
 124    8.5793850865522e-06
 125    -1.045431174714e-05
 126    -1.6628886394478e-05
 127    3.0134188356493e-05
 128    -4.8823835986064e-05
 129    1.8163181219194e-05
 130    0.00031940559956357
 131    -8.8418089789615e-06
 132    -6.5168482394426e-06
 133    -2.901601197794e-05
 134    7.440074550072e-06
 135    0.00012053430913153
 136    1.5037784239676e-05
 137    2.2263245640863e-05
 138    2.9546748090065e-05
 139    2.1064644729915e-05
 140    3.5270197160963e-05
 141    -0.00028914632938506
 142    5.6522785987449e-07
 143    -1.2980978695867e-06
 144    6.2842332483215e-06
 145    0.0002386305379914
 146    -5.206988736209e-05
 147    -6.4878339547498e-05
 148    2.1070214035317e-06
 149    -3.4248144403656e-06
 150    2.5083983989085e-06
 151    -1.0279717691445e-05
 152    4.9442525852851e-06
 153    8.108673063247e-05
 154    0.00012026450177302
 155    2.5741211621657e-05
 156    -2.8169845697797e-05
 157    -1.8496504942991e-05
 158    7.4422721245191e-06
 159    8.9360342474016e-05
 160    5.7266074143542e-05
 161    5.6732011783931e-06
 162    -4.5416302524774e-06
 163    3.0243679018558e-06
 164    1.2462821355291e-05
 165    0.00023362473836721
 166    2.6418958586049e-05
 167    -2.0324718392052e-05
 168    1.6634383846685e-08
 169    -0.00023284868184791
 170    0.00021129427983331
 171    0.00013203933594316
 172    4.2691593926761e-06
 173    -9.5934749425493e-06
 174    1.3164412593821e-05
 175    -3.9520788361739e-06
 176    1.9293622083448e-05
 177    2.0809766437312e-05
 178    -8.1678671386196e-05
 179    8.8884664904223e-07
 180    -2.0304403269153e-06
 181    4.7437892348888e-06
 182    -1.4941463253956e-05
 183    -2.5372058809403e-05
 184    6.5115186570459e-05
 185    3.8758036483944e-06
 186    -4.1585489958105e-06
 187    -3.7256173854421e-06
 188    -0.00012817020885248
 189    0.00010265245229658
 190    8.6146267862416e-05
 191    -1.1418836279905e-06
 192    -1.5821173075751e-06
 193    7.4913372846739e-06
 194    2.8180566840809e-06
 195    5.0866185251514e-06
 196    1.0450432185388e-05
 197    1.6668181401565e-05
 198    -5.3087668431646e-06
 199    -2.2215117424932e-06
 200    3.6085339452183e-06
 201    1.3246446004977e-05
 202    -4.2691814821373e-06
 203    1.3224054914124e-05
 204    -1.0491847812114e-05
 205    -1.1637908311673e-05
 206    -8.3955327586577e-06
 207    -6.8973217115185e-05
 208    1.6645453766959e-05
 209    -4.0543005612785e-06
 210    -1.5268722073747e-05
 211    1.7532448418277e-05
 212    2.8335705396521e-05
 213    -0.0002529708390973
 214    -8.1274231682004e-06
 215    3.4907386466888e-06
 216    7.2166632167798e-06
 217    -0.00019812016287226
 218    5.5170070862045e-05
 219    7.5900828822601e-05
 220    1.6895753579217e-06
 221    1.6830324070763e-05
 222    -5.6565358320098e-06
 223    -8.9670433387424e-06
 224    1.2384510863917e-06
 225    -2.4694451300637e-05
 226    -5.4171902375743e-05
 227    1.2205413527458e-05
 228    1.7884642942992e-06
 229    9.7394898389514e-07
 230    -8.8431749078317e-06
 231    -5.3045315864514e-05
 232    3.937563930322e-06
 233    -6.3320560196184e-06
 234    -1.185667000339e-05
 235    -4.1126050703689e-07
 236    -1.5518745455924e-06
 237    7.7559396711507e-05
 238    -1.4109230983904e-06
 239    -2.6101172383645e-06
 240    2.5796105608839e-06
 241    -3.4774276726348e-05
 242    6.2385040074442e-05
 243    -1.8793090715696e-05
 244    -1.8151308972802e-06
 245    -1.9697286140619e-06
 246    1.8842505983664e-06
 247    -1.3380161991665e-07
 248    -8.6381102725578e-07
 249    1.6730377018024e-05
 250    -1.4701003917157e-05
 251    4.563181777475e-06
 252    1.1075666863893e-06
 253    4.0434705784218e-07
 254    1.4911583095579e-05
 255    -5.6335363871415e-05
 256    1.736403316661e-08
 257    -4.4490044185622e-06
 258    9.9205853131816e-07
 259    1.1228203371917e-05
 260    2.1338690055407e-05
 261    -7.9941672416787e-05
 262    5.2727938327725e-06