[Molden Format]
made by pyscf v[2.0.1]
[Atoms] (AU)
O   1   8     0.00000000000000     0.00000000000000    10.18586013564153
H   2   1     0.00000000000000     0.00000000000000     8.36245831374057
H   3   1    -0.05031916615174     1.78353065140343    10.56173183210820
O   4   8     0.00000000000000     0.00000000000000     2.31533471513237
C   5   6     0.00000000000000     0.00000000000000     0.00000000000000
C   6   6     2.01118073026938    -1.40227222164369    -1.50774939176400
C   7   6    -2.01249334291722     1.41331050329955    -1.50315905028694
H   8   1     3.32037363730244    -2.26721897153159    -0.13599698591495
C   9   6     3.45899267434009     0.28739631745591    -3.37437943254505
H   10   1     1.07662969841332    -2.94725144642667    -2.56541439481080
H   11   1    -2.67503415753480     0.18421555839588    -3.06194479365997
H   12   1    -1.07974048864772     3.03851734677796    -2.43674295017013
C   13   6    -4.21607110578555     2.32938802552922     0.11994162256091
H   14   1     4.24440173074564     1.93368664142019    -2.34976285512790
H   15   1     2.15020713235517     1.04714335134846    -4.81494497423699
C   16   6     5.60746363007797    -1.12419643481196    -4.70268606082550
H   17   1    -3.46838323670267     3.50951302338067     1.66946842715333
H   18   1    -5.11873485366228     0.68575958301209     1.04047743976495
C   19   6    -6.18314754751344     3.80909592987882    -1.39656589068747
H   20   1     6.93011263717176    -1.87550812453645    -3.26656317360070
C   21   6     7.06356622236532     0.52877932406334    -6.57829775293605
H   22   1     4.82318879258361    -2.78573437948532    -5.70504560381835
H   23   1    -6.91582688743803     2.61304780074712    -2.95074552451969
H   24   1    -5.26532430573853     5.45420349051338    -2.31005832200284
C   25   6    -8.39941882261433     4.73263980500213     0.21800571437956
H   26   1     7.83338371486801     2.19084139882824    -5.57093109900697
H   27   1     5.73544244039420     1.27376866537418    -8.01071492370229
C   28   6     9.21124858443101    -0.89699110072176    -7.88926949186242
H   29   1    -7.66272760055236     5.92277078003992     1.77035591474408
H   30   1    -9.31497248082589     3.08753015622020     1.12614408368786
C   31   6   -10.35481709231879     6.21833079391143    -1.30905206253246
H   32   1    10.58815905329501    -1.61074586756696    -6.49512691622620
H   33   1    10.23506248045667     0.32468009384095    -9.23072870921204
H   34   1     8.47665842847139    -2.53598436989925    -8.94921964622535
H   35   1    -9.48948872868064     7.90013588951020    -2.18823918416067
H   36   1   -11.93332513000955     6.86460487874102    -0.11255798845995
H   37   1   -11.15126291841033     5.04495968327630    -2.83849898862534
[GTO]
1 0
 s    8 1.00
                 11720  0.00070964594651845
                  1759  0.0054672722921914
                 400.8   0.027823118610189
                 113.7    0.10474773971146
                 37.03    0.28292084635691
                 13.27    0.44849523869833
                 5.025    0.27081688521277
                 1.013    0.01545029160744
 s    8 1.00
                 11720  -0.00031444341168873
                  1759  -0.0024821376810179
                 400.8  -0.012316355381583
                 113.7  -0.050538917343672
                 37.03   -0.13938490331632
                 13.27   -0.32507749481778
                 5.025   -0.22984830758785
                 1.013     1.0953793467883
 s    1 1.00
                0.3023                   1
 p    3 1.00
                  17.7   0.062679166281506
                 3.854    0.33353656587936
                 1.046    0.74123964163973
 p    1 1.00
                0.2753                   1
 d    1 1.00
                 1.185                   1

2 0
 s    3 1.00
                 13.01   0.033498726389998
                 1.962    0.23480080117413
                0.4446     0.8136829578829
 s    1 1.00
                 0.122                   1
 p    1 1.00
                 0.727                   1

3 0
 s    3 1.00
                 13.01   0.033498726389998
                 1.962    0.23480080117413
                0.4446     0.8136829578829
 s    1 1.00
                 0.122                   1
 p    1 1.00
                 0.727                   1

4 0
 s    8 1.00
                 11720  0.00070964594651845
                  1759  0.0054672722921914
                 400.8   0.027823118610189
                 113.7    0.10474773971146
                 37.03    0.28292084635691
                 13.27    0.44849523869833
                 5.025    0.27081688521277
                 1.013    0.01545029160744
 s    8 1.00
                 11720  -0.00031444341168873
                  1759  -0.0024821376810179
                 400.8  -0.012316355381583
                 113.7  -0.050538917343672
                 37.03   -0.13938490331632
                 13.27   -0.32507749481778
                 5.025   -0.22984830758785
                 1.013     1.0953793467883
 s    1 1.00
                0.3023                   1
 p    3 1.00
                  17.7   0.062679166281506
                 3.854    0.33353656587936
                 1.046    0.74123964163973
 p    1 1.00
                0.2753                   1
 d    1 1.00
                 1.185                   1

5 0
 s    8 1.00
                  6665  0.00069158396281299
                  1000  0.0053257961529341
                   228   0.027060721042034
                 64.71    0.10165684614077
                 21.06     0.2745748236174
                 7.495    0.44829431892377
                 2.797    0.28490261071525
                0.5215   0.015194859206082
 s    8 1.00
                  6665  -0.00029326965268655
                  1000  -0.0023180354739745
                   228  -0.011499786038565
                 64.71  -0.046826727009787
                 21.06   -0.12846616875047
                 7.495   -0.30126627246289
                 2.797   -0.25563070233011
                0.5215      1.093793361012
 s    1 1.00
                0.1596                   1
 p    3 1.00
                 9.439   0.056979251590039
                 2.002    0.31320721150073
                0.5456    0.76037674173753
 p    1 1.00
                0.1517                   1
 d    1 1.00
                  0.55                   1

6 0
 s    8 1.00
                  6665  0.00069158396281299
                  1000  0.0053257961529341
                   228   0.027060721042034
                 64.71    0.10165684614077
                 21.06     0.2745748236174
                 7.495    0.44829431892377
                 2.797    0.28490261071525
                0.5215   0.015194859206082
 s    8 1.00
                  6665  -0.00029326965268655
                  1000  -0.0023180354739745
                   228  -0.011499786038565
                 64.71  -0.046826727009787
                 21.06   -0.12846616875047
                 7.495   -0.30126627246289
                 2.797   -0.25563070233011
                0.5215      1.093793361012
 s    1 1.00
                0.1596                   1
 p    3 1.00
                 9.439   0.056979251590039
                 2.002    0.31320721150073
                0.5456    0.76037674173753
 p    1 1.00
                0.1517                   1
 d    1 1.00
                  0.55                   1

7 0
 s    8 1.00
                  6665  0.00069158396281299
                  1000  0.0053257961529341
                   228   0.027060721042034
                 64.71    0.10165684614077
                 21.06     0.2745748236174
                 7.495    0.44829431892377
                 2.797    0.28490261071525
                0.5215   0.015194859206082
 s    8 1.00
                  6665  -0.00029326965268655
                  1000  -0.0023180354739745
                   228  -0.011499786038565
                 64.71  -0.046826727009787
                 21.06   -0.12846616875047
                 7.495   -0.30126627246289
                 2.797   -0.25563070233011
                0.5215      1.093793361012
 s    1 1.00
                0.1596                   1
 p    3 1.00
                 9.439   0.056979251590039
                 2.002    0.31320721150073
                0.5456    0.76037674173753
 p    1 1.00
                0.1517                   1
 d    1 1.00
                  0.55                   1

8 0
 s    3 1.00
                 13.01   0.033498726389998
                 1.962    0.23480080117413
                0.4446     0.8136829578829
 s    1 1.00
                 0.122                   1
 p    1 1.00
                 0.727                   1

9 0
 s    8 1.00
                  6665  0.00069158396281299
                  1000  0.0053257961529341
                   228   0.027060721042034
                 64.71    0.10165684614077
                 21.06     0.2745748236174
                 7.495    0.44829431892377
                 2.797    0.28490261071525
                0.5215   0.015194859206082
 s    8 1.00
                  6665  -0.00029326965268655
                  1000  -0.0023180354739745
                   228  -0.011499786038565
                 64.71  -0.046826727009787
                 21.06   -0.12846616875047
                 7.495   -0.30126627246289
                 2.797   -0.25563070233011
                0.5215      1.093793361012
 s    1 1.00
                0.1596                   1
 p    3 1.00
                 9.439   0.056979251590039
                 2.002    0.31320721150073
                0.5456    0.76037674173753
 p    1 1.00
                0.1517                   1
 d    1 1.00
                  0.55                   1

10 0
 s    3 1.00
                 13.01   0.033498726389998
                 1.962    0.23480080117413
                0.4446     0.8136829578829
 s    1 1.00
                 0.122                   1
 p    1 1.00
                 0.727                   1

11 0
 s    3 1.00
                 13.01   0.033498726389998
                 1.962    0.23480080117413
                0.4446     0.8136829578829
 s    1 1.00
                 0.122                   1
 p    1 1.00
                 0.727                   1

12 0
 s    3 1.00
                 13.01   0.033498726389998
                 1.962    0.23480080117413
                0.4446     0.8136829578829
 s    1 1.00
                 0.122                   1
 p    1 1.00
                 0.727                   1

13 0
 s    8 1.00
                  6665  0.00069158396281299
                  1000  0.0053257961529341
                   228   0.027060721042034
                 64.71    0.10165684614077
                 21.06     0.2745748236174
                 7.495    0.44829431892377
                 2.797    0.28490261071525
                0.5215   0.015194859206082
 s    8 1.00
                  6665  -0.00029326965268655
                  1000  -0.0023180354739745
                   228  -0.011499786038565
                 64.71  -0.046826727009787
                 21.06   -0.12846616875047
                 7.495   -0.30126627246289
                 2.797   -0.25563070233011
                0.5215      1.093793361012
 s    1 1.00
                0.1596                   1
 p    3 1.00
                 9.439   0.056979251590039
                 2.002    0.31320721150073
                0.5456    0.76037674173753
 p    1 1.00
                0.1517                   1
 d    1 1.00
                  0.55                   1

14 0
 s    3 1.00
                 13.01   0.033498726389998
                 1.962    0.23480080117413
                0.4446     0.8136829578829
 s    1 1.00
                 0.122                   1
 p    1 1.00
                 0.727                   1

15 0
 s    3 1.00
                 13.01   0.033498726389998
                 1.962    0.23480080117413
                0.4446     0.8136829578829
 s    1 1.00
                 0.122                   1
 p    1 1.00
                 0.727                   1

16 0
 s    8 1.00
                  6665  0.00069158396281299
                  1000  0.0053257961529341
                   228   0.027060721042034
                 64.71    0.10165684614077
                 21.06     0.2745748236174
                 7.495    0.44829431892377
                 2.797    0.28490261071525
                0.5215   0.015194859206082
 s    8 1.00
                  6665  -0.00029326965268655
                  1000  -0.0023180354739745
                   228  -0.011499786038565
                 64.71  -0.046826727009787
                 21.06   -0.12846616875047
                 7.495   -0.30126627246289
                 2.797   -0.25563070233011
                0.5215      1.093793361012
 s    1 1.00
                0.1596                   1
 p    3 1.00
                 9.439   0.056979251590039
                 2.002    0.31320721150073
                0.5456    0.76037674173753
 p    1 1.00
                0.1517                   1
 d    1 1.00
                  0.55                   1

17 0
 s    3 1.00
                 13.01   0.033498726389998
                 1.962    0.23480080117413
                0.4446     0.8136829578829
 s    1 1.00
                 0.122                   1
 p    1 1.00
                 0.727                   1

18 0
 s    3 1.00
                 13.01   0.033498726389998
                 1.962    0.23480080117413
                0.4446     0.8136829578829
 s    1 1.00
                 0.122                   1
 p    1 1.00
                 0.727                   1

19 0
 s    8 1.00
                  6665  0.00069158396281299
                  1000  0.0053257961529341
                   228   0.027060721042034
                 64.71    0.10165684614077
                 21.06     0.2745748236174
                 7.495    0.44829431892377
                 2.797    0.28490261071525
                0.5215   0.015194859206082
 s    8 1.00
                  6665  -0.00029326965268655
                  1000  -0.0023180354739745
                   228  -0.011499786038565
                 64.71  -0.046826727009787
                 21.06   -0.12846616875047
                 7.495   -0.30126627246289
                 2.797   -0.25563070233011
                0.5215      1.093793361012
 s    1 1.00
                0.1596                   1
 p    3 1.00
                 9.439   0.056979251590039
                 2.002    0.31320721150073
                0.5456    0.76037674173753
 p    1 1.00
                0.1517                   1
 d    1 1.00
                  0.55                   1

20 0
 s    3 1.00
                 13.01   0.033498726389998
                 1.962    0.23480080117413
                0.4446     0.8136829578829
 s    1 1.00
                 0.122                   1
 p    1 1.00
                 0.727                   1

21 0
 s    8 1.00
                  6665  0.00069158396281299
                  1000  0.0053257961529341
                   228   0.027060721042034
                 64.71    0.10165684614077
                 21.06     0.2745748236174
                 7.495    0.44829431892377
                 2.797    0.28490261071525
                0.5215   0.015194859206082
 s    8 1.00
                  6665  -0.00029326965268655
                  1000  -0.0023180354739745
                   228  -0.011499786038565
                 64.71  -0.046826727009787
                 21.06   -0.12846616875047
                 7.495   -0.30126627246289
                 2.797   -0.25563070233011
                0.5215      1.093793361012
 s    1 1.00
                0.1596                   1
 p    3 1.00
                 9.439   0.056979251590039
                 2.002    0.31320721150073
                0.5456    0.76037674173753
 p    1 1.00
                0.1517                   1
 d    1 1.00
                  0.55                   1

22 0
 s    3 1.00
                 13.01   0.033498726389998
                 1.962    0.23480080117413
                0.4446     0.8136829578829
 s    1 1.00
                 0.122                   1
 p    1 1.00
                 0.727                   1

23 0
 s    3 1.00
                 13.01   0.033498726389998
                 1.962    0.23480080117413
                0.4446     0.8136829578829
 s    1 1.00
                 0.122                   1
 p    1 1.00
                 0.727                   1

24 0
 s    3 1.00
                 13.01   0.033498726389998
                 1.962    0.23480080117413
                0.4446     0.8136829578829
 s    1 1.00
                 0.122                   1
 p    1 1.00
                 0.727                   1

25 0
 s    8 1.00
                  6665  0.00069158396281299
                  1000  0.0053257961529341
                   228   0.027060721042034
                 64.71    0.10165684614077
                 21.06     0.2745748236174
                 7.495    0.44829431892377
                 2.797    0.28490261071525
                0.5215   0.015194859206082
 s    8 1.00
                  6665  -0.00029326965268655
                  1000  -0.0023180354739745
                   228  -0.011499786038565
                 64.71  -0.046826727009787
                 21.06   -0.12846616875047
                 7.495   -0.30126627246289
                 2.797   -0.25563070233011
                0.5215      1.093793361012
 s    1 1.00
                0.1596                   1
 p    3 1.00
                 9.439   0.056979251590039
                 2.002    0.31320721150073
                0.5456    0.76037674173753
 p    1 1.00
                0.1517                   1
 d    1 1.00
                  0.55                   1

26 0
 s    3 1.00
                 13.01   0.033498726389998
                 1.962    0.23480080117413
                0.4446     0.8136829578829
 s    1 1.00
                 0.122                   1
 p    1 1.00
                 0.727                   1

27 0
 s    3 1.00
                 13.01   0.033498726389998
                 1.962    0.23480080117413
                0.4446     0.8136829578829
 s    1 1.00
                 0.122                   1
 p    1 1.00
                 0.727                   1

28 0
 s    8 1.00
                  6665  0.00069158396281299
                  1000  0.0053257961529341
                   228   0.027060721042034
                 64.71    0.10165684614077
                 21.06     0.2745748236174
                 7.495    0.44829431892377
                 2.797    0.28490261071525
                0.5215   0.015194859206082
 s    8 1.00
                  6665  -0.00029326965268655
                  1000  -0.0023180354739745
                   228  -0.011499786038565
                 64.71  -0.046826727009787
                 21.06   -0.12846616875047
                 7.495   -0.30126627246289
                 2.797   -0.25563070233011
                0.5215      1.093793361012
 s    1 1.00
                0.1596                   1
 p    3 1.00
                 9.439   0.056979251590039
                 2.002    0.31320721150073
                0.5456    0.76037674173753
 p    1 1.00
                0.1517                   1
 d    1 1.00
                  0.55                   1

29 0
 s    3 1.00
                 13.01   0.033498726389998
                 1.962    0.23480080117413
                0.4446     0.8136829578829
 s    1 1.00
                 0.122                   1
 p    1 1.00
                 0.727                   1

30 0
 s    3 1.00
                 13.01   0.033498726389998
                 1.962    0.23480080117413
                0.4446     0.8136829578829
 s    1 1.00
                 0.122                   1
 p    1 1.00
                 0.727                   1

31 0
 s    8 1.00
                  6665  0.00069158396281299
                  1000  0.0053257961529341
                   228   0.027060721042034
                 64.71    0.10165684614077
                 21.06     0.2745748236174
                 7.495    0.44829431892377
                 2.797    0.28490261071525
                0.5215   0.015194859206082
 s    8 1.00
                  6665  -0.00029326965268655
                  1000  -0.0023180354739745
                   228  -0.011499786038565
                 64.71  -0.046826727009787
                 21.06   -0.12846616875047
                 7.495   -0.30126627246289
                 2.797   -0.25563070233011
                0.5215      1.093793361012
 s    1 1.00
                0.1596                   1
 p    3 1.00
                 9.439   0.056979251590039
                 2.002    0.31320721150073
                0.5456    0.76037674173753
 p    1 1.00
                0.1517                   1
 d    1 1.00
                  0.55                   1

32 0
 s    3 1.00
                 13.01   0.033498726389998
                 1.962    0.23480080117413
                0.4446     0.8136829578829
 s    1 1.00
                 0.122                   1
 p    1 1.00
                 0.727                   1

33 0
 s    3 1.00
                 13.01   0.033498726389998
                 1.962    0.23480080117413
                0.4446     0.8136829578829
 s    1 1.00
                 0.122                   1
 p    1 1.00
                 0.727                   1

34 0
 s    3 1.00
                 13.01   0.033498726389998
                 1.962    0.23480080117413
                0.4446     0.8136829578829
 s    1 1.00
                 0.122                   1
 p    1 1.00
                 0.727                   1

35 0
 s    3 1.00
                 13.01   0.033498726389998
                 1.962    0.23480080117413
                0.4446     0.8136829578829
 s    1 1.00
                 0.122                   1
 p    1 1.00
                 0.727                   1

36 0
 s    3 1.00
                 13.01   0.033498726389998
                 1.962    0.23480080117413
                0.4446     0.8136829578829
 s    1 1.00
                 0.122                   1
 p    1 1.00
                 0.727                   1

37 0
 s    3 1.00
                 13.01   0.033498726389998
                 1.962    0.23480080117413
                0.4446     0.8136829578829
 s    1 1.00
                 0.122                   1
 p    1 1.00
                 0.727                   1

[5d]
[7f]
[9g]

[MO]
 Sym= A
 Ene=               0
 Spin= Alpha
 Occup=    1.00000
   1    -3.7157224246681e-05
   2    -2.810469356179e-05
   3    0.00010051458415855
   4    -7.7625991782938e-08
   5    3.8797847263011e-06
   6    1.6798382735567e-06
   7    5.4200672294816e-07
   8    -2.0500213071085e-05
   9    -7.1154994184179e-05
  10    1.2372536510329e-05
  11     8.64571597529e-09
  12    -8.0872063197504e-07
  13    5.1230876288128e-07
  14    2.5427786652604e-08
  15    -1.3318890504999e-05
  16    -0.00014490055165645
  17    -8.685191557979e-08
  18    1.2999739046298e-06
  19    -3.5568253372784e-05
  20    -6.2639418082733e-06
  21    5.6167369439875e-05
  22    1.7366753455687e-07
  23    -5.7079308901351e-06
  24    2.2719055545002e-06
  25       1.0013633763488
  26    0.0019449548611418
  27    -0.0068130941936046
  28    -4.6723891734136e-06
  29    6.8012105715533e-06
  30    -0.0016379031874398
  31    -1.8759373158207e-06
  32    -2.3099263071856e-06
  33    0.0018473751266444
  34    0.00012506493522568
  35    -2.9675010563413e-06
  36    1.3194924606626e-06
  37    6.7553996148155e-05
  38    -0.00017590262675918
  39    0.00027542284391516
  40    0.00039335697947697
  41     0.001438522896849
  42    1.5669359254712e-05
  43    -8.5795415076984e-06
  44    -2.6413401492668e-05
  45    9.2929246051494e-05
  46    -6.8637663091803e-05
  47    0.0035512077005596
  48    -0.00054211174338905
  49    -9.2130863142383e-06
  50    1.8947157400466e-06
  51    3.0991665458705e-05
  52    -0.00011277288105307
  53    -8.0631447762066e-05
  54    -0.00016457839778515
  55    0.0013652499222506
  56    0.0001066199082572
  57    -2.3899836030097e-05
  58    6.1071111732123e-05
  59    -0.00040698837580547
  60    0.00046466028920721
  61    -0.0008897421846769
  62    -0.00011887708452013
  63    0.0001531144831094
  64    -0.00014252004662844
  65    5.7676472594478e-05
  66    -0.00013526567178041
  67    -3.6517546316355e-05
  68    -0.00010509908595139
  69    0.00053202291503121
  70    -8.2131700550547e-05
  71    6.2335752929044e-05
  72    3.5150120062598e-05
  73    0.00098839753400013
  74    -0.00076064351352615
  75    -0.0005856950400453
  76    -0.00014199617110813
  77    -0.00012519265390766
  78    8.8801746905364e-05
  79    6.2891448527515e-05
  80    -0.00015663375580468
  81    1.3063402055571e-05
  82    0.00023301973192189
  83    6.2467380904036e-05
  84    -4.568139354571e-05
  85    4.6509851533415e-05
  86    1.2975507432106e-05
  87    8.7664001295135e-06
  88    -0.00063312170903543
  89    3.1643072443378e-05
  90    -1.8687609257959e-06
  91    5.2378624508918e-06
  92    0.00027850328054776
  93    0.00063792597678359
  94    -2.0682727371128e-05
  95    2.0445793589874e-05
  96    1.2009704640499e-05
  97    9.0471884192382e-06
  98    -2.1573934592147e-05
  99    -4.8714742030925e-05
 100    -8.2613799526497e-05
 101    -0.00017693314782379
 102    8.3240433293631e-06
 103    -1.3441498860183e-05
 104    7.5239208348804e-05
 105    -9.3140965410876e-05
 106    -0.00023016899247987
 107    -6.725104599475e-05
 108    7.5145395730926e-06
 109    7.1695477361632e-05
 110    4.3414089717065e-05
 111    -7.0747904031417e-05
 112    -4.4230899251814e-05
 113    2.2030865944188e-05
 114    7.0704981302727e-05
 115    -3.9141701723646e-05
 116    -5.32325082492e-05
 117    0.0008605266927496
 118    2.2947473868194e-05
 119    -3.6484818665988e-05
 120    2.5580003552649e-05
 121    0.00031297074865222
 122    1.959806453195e-05
 123    -0.00014065287991228
 124    -8.5480525918249e-06
 125    1.0057438672921e-05
 126    1.6182282880948e-05
 127    -3.0045160895927e-05
 128    4.8896025314816e-05
 129    -1.8431127233197e-05
 130    -0.00032307917163555
 131    9.005639895636e-06
 132    6.5609999318483e-06
 133    2.9139075074998e-05
 134    -7.720192583339e-06
 135    -0.00012007229092646
 136    -1.512283577397e-05
 137    -2.2564786688562e-05
 138    -2.9758338149397e-05
 139    -2.1274300417458e-05
 140    -3.5623109528482e-05
 141    0.00029375388119589
 142    -6.7385061148106e-07
 143    1.2098735951307e-06
 144    -6.2418909689346e-06
 145    -0.0002392770442618
 146    5.4049350342954e-05
 147    6.3778471739378e-05
 148    -2.1606490771359e-06
 149    3.4667713738866e-06
 150    -2.7455585506168e-06
 151    1.0458300366808e-05
 152    -4.9033208141985e-06
 153    -8.0690618606358e-05
 154    -0.00011473427721406
 155    -2.6046364484244e-05
 156    2.7471630073585e-05
 157    1.7933877112801e-05
 158    -7.2088163346761e-06
 159    -8.8741708035101e-05
 160    -5.7039205590968e-05
 161    -5.6917044987646e-06
 162    4.8061812128371e-06
 163    -2.4935525076488e-06
 164    -1.1562115167661e-05
 165    -0.00024167466793497
 166    -2.6622059828117e-05
 167    2.0394387720838e-05
 168    -2.2654646849311e-08
 169    0.00023081578617784
 170    -0.00020902761889981
 171    -0.0001346573996983
 172    -4.1012998174141e-06
 173    9.5343843393106e-06
 174    -1.3076473695022e-05
 175    3.9053594420302e-06
 176    -1.9061995403261e-05
 177    -2.0966200975502e-05
 178    8.2546151241581e-05
 179    -1.0144093936504e-06
 180    1.9493190720478e-06
 181    -4.6857372687079e-06
 182    1.519429504962e-05
 183    2.5799283784828e-05
 184    -6.8159594004455e-05
 185    -3.8143975066301e-06
 186    4.2423100019018e-06
 187    3.6709458900901e-06
 188    0.00012934200998125
 189    -0.00010256007493596
 190    -8.778372080567e-05
 191    1.1228666248189e-06
 192    1.6636881448462e-06
 193    -7.4642172047153e-06
 194    -2.8038860522945e-06
 195    -5.2219972703439e-06
 196    -1.0290418604538e-05
 197    -1.6862278704747e-05
 198    5.3137095442949e-06
 199    2.2098420017194e-06
 200    -3.5146168580133e-06
 201    -1.3015000456784e-05
 202    3.7812907914948e-06
 203    -1.3324091926539e-05
 204    1.0395473343815e-05
 205    1.1614782353912e-05
 206    8.5300828429618e-06
 207    6.8794164096404e-05
 208    -1.6552610683404e-05
 209    4.0213136591813e-06
 210    1.5335606849004e-05
 211    -1.7739475995982e-05
 212    -2.8666740593632e-05
 213    0.00025644748916806
 214    8.3417527565548e-06
 215    -3.5510306287197e-06
 216    -7.2416346687311e-06
 217    0.0001976817986372
 218    -5.4961441476907e-05
 219    -7.6517539236262e-05
 220    -1.69981227646e-06
 221    -1.6780023607075e-05
 222    5.668608447825e-06
 223    8.9932179314666e-06
 224    -1.2734625206787e-06
 225    2.4996660296652e-05
 226    5.474854093032e-05
 227    -1.2288531239049e-05
 228    -1.847460341341e-06
 229    -9.6508897890306e-07
 230    8.9686644319187e-06
 231    5.2976374286311e-05
 232    -3.9751585238484e-06
 233    6.3834117844562e-06
 234    1.1898909090464e-05
 235    4.3310801916474e-07
 236    1.601661568558e-06
 237    -7.7816418139101e-05
 238    1.3853322475181e-06
 239    2.6311954519161e-06
 240    -2.5669916304402e-06
 241    3.5073450966176e-05
 242    -6.2716432984969e-05
 243    1.8933756375854e-05
 244    1.8396542778357e-06
 245    1.9932809033957e-06
 246    -1.8772890259737e-06
 247    1.289248399003e-07
 248    8.6849048937763e-07
 249    -1.6684899643919e-05
 250    1.3719602142876e-05
 251    -4.5184276178394e-06
 252    -1.0323155410063e-06
 253    -3.0727923752243e-07
 254    -1.5101646055122e-05
 255    5.6242274250795e-05
 256    6.6736859111688e-08
 257    4.406408039698e-06
 258    -9.6986621110941e-07
 259    -1.1049757068405e-05
 260    -2.1045980032128e-05
 261    7.7813566567343e-05
 262    -5.3306357187572e-06