[Molden Format]
made by pyscf v[2.0.1]
[Atoms] (AU)
O   1   8     0.00000000000000     0.00000000000000     9.05202446090250
H   2   1     0.00000000000000     0.00000000000000     7.22862263900153
H   3   1    -0.05031916615174     1.78353065140343     9.42789615736916
O   4   8     0.00000000000000     0.00000000000000     2.31533471513237
C   5   6     0.00000000000000     0.00000000000000     0.00000000000000
C   6   6     2.01118073026938    -1.40227222164369    -1.50774939176400
C   7   6    -2.01249334291722     1.41331050329955    -1.50315905028694
H   8   1     3.32037363730244    -2.26721897153159    -0.13599698591495
C   9   6     3.45899267434009     0.28739631745591    -3.37437943254505
H   10   1     1.07662969841332    -2.94725144642667    -2.56541439481080
H   11   1    -2.67503415753480     0.18421555839588    -3.06194479365997
H   12   1    -1.07974048864772     3.03851734677796    -2.43674295017013
C   13   6    -4.21607110578555     2.32938802552922     0.11994162256091
H   14   1     4.24440173074564     1.93368664142019    -2.34976285512790
H   15   1     2.15020713235517     1.04714335134846    -4.81494497423699
C   16   6     5.60746363007797    -1.12419643481196    -4.70268606082550
H   17   1    -3.46838323670267     3.50951302338067     1.66946842715333
H   18   1    -5.11873485366228     0.68575958301209     1.04047743976495
C   19   6    -6.18314754751344     3.80909592987882    -1.39656589068747
H   20   1     6.93011263717176    -1.87550812453645    -3.26656317360070
C   21   6     7.06356622236532     0.52877932406334    -6.57829775293605
H   22   1     4.82318879258361    -2.78573437948532    -5.70504560381835
H   23   1    -6.91582688743803     2.61304780074712    -2.95074552451969
H   24   1    -5.26532430573853     5.45420349051338    -2.31005832200284
C   25   6    -8.39941882261433     4.73263980500213     0.21800571437956
H   26   1     7.83338371486801     2.19084139882824    -5.57093109900697
H   27   1     5.73544244039420     1.27376866537418    -8.01071492370229
C   28   6     9.21124858443101    -0.89699110072176    -7.88926949186242
H   29   1    -7.66272760055236     5.92277078003992     1.77035591474408
H   30   1    -9.31497248082589     3.08753015622020     1.12614408368786
C   31   6   -10.35481709231879     6.21833079391143    -1.30905206253246
H   32   1    10.58815905329501    -1.61074586756696    -6.49512691622620
H   33   1    10.23506248045667     0.32468009384095    -9.23072870921204
H   34   1     8.47665842847139    -2.53598436989925    -8.94921964622535
H   35   1    -9.48948872868064     7.90013588951020    -2.18823918416067
H   36   1   -11.93332513000955     6.86460487874102    -0.11255798845995
H   37   1   -11.15126291841033     5.04495968327630    -2.83849898862534
[GTO]
1 0
 s    8 1.00
                 11720  0.00070964594651845
                  1759  0.0054672722921914
                 400.8   0.027823118610189
                 113.7    0.10474773971146
                 37.03    0.28292084635691
                 13.27    0.44849523869833
                 5.025    0.27081688521277
                 1.013    0.01545029160744
 s    8 1.00
                 11720  -0.00031444341168873
                  1759  -0.0024821376810179
                 400.8  -0.012316355381583
                 113.7  -0.050538917343672
                 37.03   -0.13938490331632
                 13.27   -0.32507749481778
                 5.025   -0.22984830758785
                 1.013     1.0953793467883
 s    1 1.00
                0.3023                   1
 p    3 1.00
                  17.7   0.062679166281506
                 3.854    0.33353656587936
                 1.046    0.74123964163973
 p    1 1.00
                0.2753                   1
 d    1 1.00
                 1.185                   1

2 0
 s    3 1.00
                 13.01   0.033498726389998
                 1.962    0.23480080117413
                0.4446     0.8136829578829
 s    1 1.00
                 0.122                   1
 p    1 1.00
                 0.727                   1

3 0
 s    3 1.00
                 13.01   0.033498726389998
                 1.962    0.23480080117413
                0.4446     0.8136829578829
 s    1 1.00
                 0.122                   1
 p    1 1.00
                 0.727                   1

4 0
 s    8 1.00
                 11720  0.00070964594651845
                  1759  0.0054672722921914
                 400.8   0.027823118610189
                 113.7    0.10474773971146
                 37.03    0.28292084635691
                 13.27    0.44849523869833
                 5.025    0.27081688521277
                 1.013    0.01545029160744
 s    8 1.00
                 11720  -0.00031444341168873
                  1759  -0.0024821376810179
                 400.8  -0.012316355381583
                 113.7  -0.050538917343672
                 37.03   -0.13938490331632
                 13.27   -0.32507749481778
                 5.025   -0.22984830758785
                 1.013     1.0953793467883
 s    1 1.00
                0.3023                   1
 p    3 1.00
                  17.7   0.062679166281506
                 3.854    0.33353656587936
                 1.046    0.74123964163973
 p    1 1.00
                0.2753                   1
 d    1 1.00
                 1.185                   1

5 0
 s    8 1.00
                  6665  0.00069158396281299
                  1000  0.0053257961529341
                   228   0.027060721042034
                 64.71    0.10165684614077
                 21.06     0.2745748236174
                 7.495    0.44829431892377
                 2.797    0.28490261071525
                0.5215   0.015194859206082
 s    8 1.00
                  6665  -0.00029326965268655
                  1000  -0.0023180354739745
                   228  -0.011499786038565
                 64.71  -0.046826727009787
                 21.06   -0.12846616875047
                 7.495   -0.30126627246289
                 2.797   -0.25563070233011
                0.5215      1.093793361012
 s    1 1.00
                0.1596                   1
 p    3 1.00
                 9.439   0.056979251590039
                 2.002    0.31320721150073
                0.5456    0.76037674173753
 p    1 1.00
                0.1517                   1
 d    1 1.00
                  0.55                   1

6 0
 s    8 1.00
                  6665  0.00069158396281299
                  1000  0.0053257961529341
                   228   0.027060721042034
                 64.71    0.10165684614077
                 21.06     0.2745748236174
                 7.495    0.44829431892377
                 2.797    0.28490261071525
                0.5215   0.015194859206082
 s    8 1.00
                  6665  -0.00029326965268655
                  1000  -0.0023180354739745
                   228  -0.011499786038565
                 64.71  -0.046826727009787
                 21.06   -0.12846616875047
                 7.495   -0.30126627246289
                 2.797   -0.25563070233011
                0.5215      1.093793361012
 s    1 1.00
                0.1596                   1
 p    3 1.00
                 9.439   0.056979251590039
                 2.002    0.31320721150073
                0.5456    0.76037674173753
 p    1 1.00
                0.1517                   1
 d    1 1.00
                  0.55                   1

7 0
 s    8 1.00
                  6665  0.00069158396281299
                  1000  0.0053257961529341
                   228   0.027060721042034
                 64.71    0.10165684614077
                 21.06     0.2745748236174
                 7.495    0.44829431892377
                 2.797    0.28490261071525
                0.5215   0.015194859206082
 s    8 1.00
                  6665  -0.00029326965268655
                  1000  -0.0023180354739745
                   228  -0.011499786038565
                 64.71  -0.046826727009787
                 21.06   -0.12846616875047
                 7.495   -0.30126627246289
                 2.797   -0.25563070233011
                0.5215      1.093793361012
 s    1 1.00
                0.1596                   1
 p    3 1.00
                 9.439   0.056979251590039
                 2.002    0.31320721150073
                0.5456    0.76037674173753
 p    1 1.00
                0.1517                   1
 d    1 1.00
                  0.55                   1

8 0
 s    3 1.00
                 13.01   0.033498726389998
                 1.962    0.23480080117413
                0.4446     0.8136829578829
 s    1 1.00
                 0.122                   1
 p    1 1.00
                 0.727                   1

9 0
 s    8 1.00
                  6665  0.00069158396281299
                  1000  0.0053257961529341
                   228   0.027060721042034
                 64.71    0.10165684614077
                 21.06     0.2745748236174
                 7.495    0.44829431892377
                 2.797    0.28490261071525
                0.5215   0.015194859206082
 s    8 1.00
                  6665  -0.00029326965268655
                  1000  -0.0023180354739745
                   228  -0.011499786038565
                 64.71  -0.046826727009787
                 21.06   -0.12846616875047
                 7.495   -0.30126627246289
                 2.797   -0.25563070233011
                0.5215      1.093793361012
 s    1 1.00
                0.1596                   1
 p    3 1.00
                 9.439   0.056979251590039
                 2.002    0.31320721150073
                0.5456    0.76037674173753
 p    1 1.00
                0.1517                   1
 d    1 1.00
                  0.55                   1

10 0
 s    3 1.00
                 13.01   0.033498726389998
                 1.962    0.23480080117413
                0.4446     0.8136829578829
 s    1 1.00
                 0.122                   1
 p    1 1.00
                 0.727                   1

11 0
 s    3 1.00
                 13.01   0.033498726389998
                 1.962    0.23480080117413
                0.4446     0.8136829578829
 s    1 1.00
                 0.122                   1
 p    1 1.00
                 0.727                   1

12 0
 s    3 1.00
                 13.01   0.033498726389998
                 1.962    0.23480080117413
                0.4446     0.8136829578829
 s    1 1.00
                 0.122                   1
 p    1 1.00
                 0.727                   1

13 0
 s    8 1.00
                  6665  0.00069158396281299
                  1000  0.0053257961529341
                   228   0.027060721042034
                 64.71    0.10165684614077
                 21.06     0.2745748236174
                 7.495    0.44829431892377
                 2.797    0.28490261071525
                0.5215   0.015194859206082
 s    8 1.00
                  6665  -0.00029326965268655
                  1000  -0.0023180354739745
                   228  -0.011499786038565
                 64.71  -0.046826727009787
                 21.06   -0.12846616875047
                 7.495   -0.30126627246289
                 2.797   -0.25563070233011
                0.5215      1.093793361012
 s    1 1.00
                0.1596                   1
 p    3 1.00
                 9.439   0.056979251590039
                 2.002    0.31320721150073
                0.5456    0.76037674173753
 p    1 1.00
                0.1517                   1
 d    1 1.00
                  0.55                   1

14 0
 s    3 1.00
                 13.01   0.033498726389998
                 1.962    0.23480080117413
                0.4446     0.8136829578829
 s    1 1.00
                 0.122                   1
 p    1 1.00
                 0.727                   1

15 0
 s    3 1.00
                 13.01   0.033498726389998
                 1.962    0.23480080117413
                0.4446     0.8136829578829
 s    1 1.00
                 0.122                   1
 p    1 1.00
                 0.727                   1

16 0
 s    8 1.00
                  6665  0.00069158396281299
                  1000  0.0053257961529341
                   228   0.027060721042034
                 64.71    0.10165684614077
                 21.06     0.2745748236174
                 7.495    0.44829431892377
                 2.797    0.28490261071525
                0.5215   0.015194859206082
 s    8 1.00
                  6665  -0.00029326965268655
                  1000  -0.0023180354739745
                   228  -0.011499786038565
                 64.71  -0.046826727009787
                 21.06   -0.12846616875047
                 7.495   -0.30126627246289
                 2.797   -0.25563070233011
                0.5215      1.093793361012
 s    1 1.00
                0.1596                   1
 p    3 1.00
                 9.439   0.056979251590039
                 2.002    0.31320721150073
                0.5456    0.76037674173753
 p    1 1.00
                0.1517                   1
 d    1 1.00
                  0.55                   1

17 0
 s    3 1.00
                 13.01   0.033498726389998
                 1.962    0.23480080117413
                0.4446     0.8136829578829
 s    1 1.00
                 0.122                   1
 p    1 1.00
                 0.727                   1

18 0
 s    3 1.00
                 13.01   0.033498726389998
                 1.962    0.23480080117413
                0.4446     0.8136829578829
 s    1 1.00
                 0.122                   1
 p    1 1.00
                 0.727                   1

19 0
 s    8 1.00
                  6665  0.00069158396281299
                  1000  0.0053257961529341
                   228   0.027060721042034
                 64.71    0.10165684614077
                 21.06     0.2745748236174
                 7.495    0.44829431892377
                 2.797    0.28490261071525
                0.5215   0.015194859206082
 s    8 1.00
                  6665  -0.00029326965268655
                  1000  -0.0023180354739745
                   228  -0.011499786038565
                 64.71  -0.046826727009787
                 21.06   -0.12846616875047
                 7.495   -0.30126627246289
                 2.797   -0.25563070233011
                0.5215      1.093793361012
 s    1 1.00
                0.1596                   1
 p    3 1.00
                 9.439   0.056979251590039
                 2.002    0.31320721150073
                0.5456    0.76037674173753
 p    1 1.00
                0.1517                   1
 d    1 1.00
                  0.55                   1

20 0
 s    3 1.00
                 13.01   0.033498726389998
                 1.962    0.23480080117413
                0.4446     0.8136829578829
 s    1 1.00
                 0.122                   1
 p    1 1.00
                 0.727                   1

21 0
 s    8 1.00
                  6665  0.00069158396281299
                  1000  0.0053257961529341
                   228   0.027060721042034
                 64.71    0.10165684614077
                 21.06     0.2745748236174
                 7.495    0.44829431892377
                 2.797    0.28490261071525
                0.5215   0.015194859206082
 s    8 1.00
                  6665  -0.00029326965268655
                  1000  -0.0023180354739745
                   228  -0.011499786038565
                 64.71  -0.046826727009787
                 21.06   -0.12846616875047
                 7.495   -0.30126627246289
                 2.797   -0.25563070233011
                0.5215      1.093793361012
 s    1 1.00
                0.1596                   1
 p    3 1.00
                 9.439   0.056979251590039
                 2.002    0.31320721150073
                0.5456    0.76037674173753
 p    1 1.00
                0.1517                   1
 d    1 1.00
                  0.55                   1

22 0
 s    3 1.00
                 13.01   0.033498726389998
                 1.962    0.23480080117413
                0.4446     0.8136829578829
 s    1 1.00
                 0.122                   1
 p    1 1.00
                 0.727                   1

23 0
 s    3 1.00
                 13.01   0.033498726389998
                 1.962    0.23480080117413
                0.4446     0.8136829578829
 s    1 1.00
                 0.122                   1
 p    1 1.00
                 0.727                   1

24 0
 s    3 1.00
                 13.01   0.033498726389998
                 1.962    0.23480080117413
                0.4446     0.8136829578829
 s    1 1.00
                 0.122                   1
 p    1 1.00
                 0.727                   1

25 0
 s    8 1.00
                  6665  0.00069158396281299
                  1000  0.0053257961529341
                   228   0.027060721042034
                 64.71    0.10165684614077
                 21.06     0.2745748236174
                 7.495    0.44829431892377
                 2.797    0.28490261071525
                0.5215   0.015194859206082
 s    8 1.00
                  6665  -0.00029326965268655
                  1000  -0.0023180354739745
                   228  -0.011499786038565
                 64.71  -0.046826727009787
                 21.06   -0.12846616875047
                 7.495   -0.30126627246289
                 2.797   -0.25563070233011
                0.5215      1.093793361012
 s    1 1.00
                0.1596                   1
 p    3 1.00
                 9.439   0.056979251590039
                 2.002    0.31320721150073
                0.5456    0.76037674173753
 p    1 1.00
                0.1517                   1
 d    1 1.00
                  0.55                   1

26 0
 s    3 1.00
                 13.01   0.033498726389998
                 1.962    0.23480080117413
                0.4446     0.8136829578829
 s    1 1.00
                 0.122                   1
 p    1 1.00
                 0.727                   1

27 0
 s    3 1.00
                 13.01   0.033498726389998
                 1.962    0.23480080117413
                0.4446     0.8136829578829
 s    1 1.00
                 0.122                   1
 p    1 1.00
                 0.727                   1

28 0
 s    8 1.00
                  6665  0.00069158396281299
                  1000  0.0053257961529341
                   228   0.027060721042034
                 64.71    0.10165684614077
                 21.06     0.2745748236174
                 7.495    0.44829431892377
                 2.797    0.28490261071525
                0.5215   0.015194859206082
 s    8 1.00
                  6665  -0.00029326965268655
                  1000  -0.0023180354739745
                   228  -0.011499786038565
                 64.71  -0.046826727009787
                 21.06   -0.12846616875047
                 7.495   -0.30126627246289
                 2.797   -0.25563070233011
                0.5215      1.093793361012
 s    1 1.00
                0.1596                   1
 p    3 1.00
                 9.439   0.056979251590039
                 2.002    0.31320721150073
                0.5456    0.76037674173753
 p    1 1.00
                0.1517                   1
 d    1 1.00
                  0.55                   1

29 0
 s    3 1.00
                 13.01   0.033498726389998
                 1.962    0.23480080117413
                0.4446     0.8136829578829
 s    1 1.00
                 0.122                   1
 p    1 1.00
                 0.727                   1

30 0
 s    3 1.00
                 13.01   0.033498726389998
                 1.962    0.23480080117413
                0.4446     0.8136829578829
 s    1 1.00
                 0.122                   1
 p    1 1.00
                 0.727                   1

31 0
 s    8 1.00
                  6665  0.00069158396281299
                  1000  0.0053257961529341
                   228   0.027060721042034
                 64.71    0.10165684614077
                 21.06     0.2745748236174
                 7.495    0.44829431892377
                 2.797    0.28490261071525
                0.5215   0.015194859206082
 s    8 1.00
                  6665  -0.00029326965268655
                  1000  -0.0023180354739745
                   228  -0.011499786038565
                 64.71  -0.046826727009787
                 21.06   -0.12846616875047
                 7.495   -0.30126627246289
                 2.797   -0.25563070233011
                0.5215      1.093793361012
 s    1 1.00
                0.1596                   1
 p    3 1.00
                 9.439   0.056979251590039
                 2.002    0.31320721150073
                0.5456    0.76037674173753
 p    1 1.00
                0.1517                   1
 d    1 1.00
                  0.55                   1

32 0
 s    3 1.00
                 13.01   0.033498726389998
                 1.962    0.23480080117413
                0.4446     0.8136829578829
 s    1 1.00
                 0.122                   1
 p    1 1.00
                 0.727                   1

33 0
 s    3 1.00
                 13.01   0.033498726389998
                 1.962    0.23480080117413
                0.4446     0.8136829578829
 s    1 1.00
                 0.122                   1
 p    1 1.00
                 0.727                   1

34 0
 s    3 1.00
                 13.01   0.033498726389998
                 1.962    0.23480080117413
                0.4446     0.8136829578829
 s    1 1.00
                 0.122                   1
 p    1 1.00
                 0.727                   1

35 0
 s    3 1.00
                 13.01   0.033498726389998
                 1.962    0.23480080117413
                0.4446     0.8136829578829
 s    1 1.00
                 0.122                   1
 p    1 1.00
                 0.727                   1

36 0
 s    3 1.00
                 13.01   0.033498726389998
                 1.962    0.23480080117413
                0.4446     0.8136829578829
 s    1 1.00
                 0.122                   1
 p    1 1.00
                 0.727                   1

37 0
 s    3 1.00
                 13.01   0.033498726389998
                 1.962    0.23480080117413
                0.4446     0.8136829578829
 s    1 1.00
                 0.122                   1
 p    1 1.00
                 0.727                   1

[5d]
[7f]
[9g]

[MO]
 Sym= A
 Ene=               0
 Spin= Alpha
 Occup=    1.00000
   1    5.8078675342488e-05
   2    4.920166323487e-05
   3    -0.0001330682367383
   4    2.0565910368579e-08
   5    -5.6948921908979e-06
   6    -1.3403193465694e-05
   7    -5.5607323893386e-07
   8    2.5927550058623e-05
   9    8.1292647659042e-05
  10    -7.7223342012226e-06
  11    5.3741635049857e-08
  12    2.0033498963452e-07
  13    -3.7497740311914e-07
  14    -6.7044113851141e-09
  15    1.7533009554203e-05
  16    0.00020576322897592
  17    2.8077622874029e-07
  18    -1.9558817474536e-06
  19    4.1164888924971e-06
  20    7.4487447829843e-06
  21    -6.940818611411e-05
  22    -1.651374044504e-07
  23    3.9970880425373e-06
  24    -1.4950609677694e-06
  25      -1.0013732377323
  26    -0.0019665979874621
  27    0.0069009057986018
  28    4.9659714644954e-06
  29    -8.267645039827e-06
  30    0.0016284606058822
  31    1.9252125893551e-06
  32    3.1347328509131e-06
  33    -0.0019163377646715
  34    -0.00011551591164476
  35    2.8693375046502e-06
  36    -1.4159826486715e-06
  37    -6.7024529369352e-05
  38    0.00017444790560768
  39    -0.00028407614100362
  40    -0.00041215191971868
  41    -0.0015052664985312
  42    -1.6272364312056e-05
  43    8.6239426513501e-06
  44    8.1488447996353e-06
  45    -9.3791651835035e-05
  46    7.0321849656086e-05
  47    -0.0036197889592689
  48    0.00052585131600808
  49    9.0669852023211e-06
  50    -1.9877310908666e-06
  51    -3.1770114274059e-05
  52    0.00011473726938712
  53    8.0450968769592e-05
  54    0.00016410370281451
  55    -0.0013754644837602
  56    -0.00010714691002286
  57    2.3877269480998e-05
  58    -6.3103383527969e-05
  59    0.00040912471647176
  60    -0.00046792173703091
  61    0.00091523327075505
  62    0.00011795313516205
  63    -0.00015288873931281
  64    0.00014274093138523
  65    -5.7192106230045e-05
  66    0.00013357802522041
  67    3.5713558710061e-05
  68    0.00010365764300449
  69    -0.00053767965137391
  70    8.2997785778616e-05
  71    -6.3242928565621e-05
  72    -3.6648927110866e-05
  73    -0.0009974206464415
  74    0.0007665302534143
  75    0.00059841053438027
  76    0.0001409933392553
  77    0.00012559043987241
  78    -8.887275701205e-05
  79    -6.2505549529629e-05
  80    0.00015543905732835
  81    -1.6628556781473e-05
  82    -0.00023833393870809
  83    -6.2954597379269e-05
  84    4.6042814340029e-05
  85    -4.5547583242161e-05
  86    -1.2886627676982e-05
  87    -8.3800415302463e-06
  88    0.00064367092370479
  89    -3.2294025689579e-05
  90    1.8422941616087e-06
  91    -4.6816738404569e-06
  92    -0.00028196350527712
  93    -0.00065122409860999
  94    1.688759527798e-05
  95    -2.0961179623208e-05
  96    -1.2240126955799e-05
  97    -9.5240185310991e-06
  98    2.0964390597828e-05
  99    5.0204742938697e-05
 100    8.5215821826911e-05
 101    0.00018086531251267
 102    -6.877819070478e-06
 103    1.3979588610359e-05
 104    -7.6721636474396e-05
 105    9.4851888668997e-05
 106    0.00023366579640096
 107    6.700275148644e-05
 108    -5.8970703901151e-06
 109    -7.2543606503515e-05
 110    -4.3382330142856e-05
 111    7.4791875830961e-05
 112    4.3505659669767e-05
 113    -2.2948840950016e-05
 114    -7.1647361433974e-05
 115    3.8075961462058e-05
 116    5.0961442262539e-05
 117    -0.00086579006591244
 118    -2.4288492657865e-05
 119    3.7407975523904e-05
 120    -2.5375511493124e-05
 121    -0.00030630038301421
 122    -2.3172922660689e-05
 123    0.00015113177567692
 124    8.4292193631779e-06
 125    -9.2390018839591e-06
 126    -1.5637022324428e-05
 127    3.0053953498625e-05
 128    -4.9397228816241e-05
 129    1.9031686050596e-05
 130    0.00033086152075002
 131    -9.32542110073e-06
 132    -6.650700759008e-06
 133    -2.9390394174038e-05
 134    8.1710219886787e-06
 135    0.00011930735279322
 136    1.5312713607814e-05
 137    2.3173698413725e-05
 138      3.0245234303e-05
 139    2.1723449494776e-05
 140    3.6390210876738e-05
 141    -0.00030316150352243
 142    8.605865615898e-07
 143    -1.0200110838795e-06
 144    6.1537703170168e-06
 145    0.0002406609494869
 146    -5.7831913869359e-05
 147    -6.1581511722264e-05
 148    2.2655695553452e-06
 149    -3.5816497095225e-06
 150    3.251692903586e-06
 151    -1.0832630736699e-05
 152    4.8297990653107e-06
 153    8.0669144596995e-05
 154    0.00010572657667019
 155    2.6564935517262e-05
 156    -2.6400267516679e-05
 157    -1.712045111252e-05
 158    7.0575128885424e-06
 159    8.7008486622703e-05
 160    5.6810126874356e-05
 161    5.7349994268353e-06
 162    -5.1018882503199e-06
 163    1.7177883949782e-06
 164    1.0222000620179e-05
 165    0.00025342654853089
 166    2.6933146415059e-05
 167    -2.0506402259773e-05
 168    -8.6093889156544e-08
 169    -0.00022858728866946
 170    0.00020684257424878
 171    0.0001388469858082
 172    3.8607210605536e-06
 173    -9.5348614468742e-06
 174    1.3035359036333e-05
 175    -3.8392011101564e-06
 176    1.8850087519436e-05
 177    2.1270535885706e-05
 178    -8.4052811785328e-05
 179    1.2211857309949e-06
 180    -1.7843502447022e-06
 181    4.5525719140446e-06
 182    -1.5708699741749e-05
 183    -2.6668439680966e-05
 184    7.4317544540286e-05
 185    3.6906224574224e-06
 186    -4.4144015235132e-06
 187    -3.5613209279927e-06
 188    -0.00013174092578488
 189    0.00010247283075088
 190    9.0981696230973e-05
 191    -1.0918133599921e-06
 192    -1.8244948178224e-06
 193    7.4231471905831e-06
 194    2.7776758416232e-06
 195    5.4940248302619e-06
 196    1.0015457780979e-05
 197    1.7322712285232e-05
 198    -5.3247562889779e-06
 199    -2.1926845476439e-06
 200    3.336677692169e-06
 201    1.2788365401049e-05
 202    -2.7935647393766e-06
 203    1.3542899571642e-05
 204    -1.0283086730594e-05
 205    -1.1591644811211e-05
 206    -8.7739533019248e-06
 207    -6.885042334826e-05
 208    1.6466657895773e-05
 209    -3.9988031515715e-06
 210    -1.5496702768581e-05
 211    1.8107343976611e-05
 212    2.9253693485286e-05
 213    -0.00026296613378474
 214    -8.7573993302386e-06
 215    3.7006281251801e-06
 216    7.2753352456162e-06
 217    -0.00019676273810326
 218    5.4103933088828e-05
 219    7.783727475105e-05
 220    1.7313747169247e-06
 221    1.6695555919418e-05
 222    -5.6659299222913e-06
 223    -9.0569760299304e-06
 224    1.3268941388129e-06
 225    -2.5614223691514e-05
 226    -5.5953183808778e-05
 227    1.2462771356279e-05
 228    1.9693369515361e-06
 229    9.5525501711725e-07
 230    -9.2319314035082e-06
 231    -5.2988319990259e-05
 232    4.0491286163516e-06
 233    -6.4835952730228e-06
 234    -1.2003242839409e-05
 235    -4.8162160958192e-07
 236    -1.7087856727701e-06
 237    7.8396458799809e-05
 238    -1.3331279873917e-06
 239    -2.6743101693133e-06
 240    2.5464906289588e-06
 241    -3.5665213048664e-05
 242    6.3379197331379e-05
 243    -1.9202003646698e-05
 244    -1.8848555882484e-06
 245    -2.0434979392621e-06
 246    1.8622519853443e-06
 247    -1.1979723111052e-07
 248    -8.7069173780495e-07
 249    1.6609256727284e-05
 250    -1.1958969456749e-05
 251    4.4181602090757e-06
 252    9.4299099179496e-07
 253    1.1640991279697e-07
 254    1.5366347627405e-05
 255    -5.6124734234447e-05
 256    -2.3022939285119e-07
 257    -4.3154030735885e-06
 258    9.061637978811e-07
 259    1.0775231151555e-05
 260    2.0605660752887e-05
 261    -7.3896544891796e-05
 262    5.4754203991052e-06