[Molden Format]
made by pyscf v[2.0.1]
[Atoms] (AU)
O   1   8     0.00000000000000     0.00000000000000     7.54024356125045
H   2   1     0.00000000000000     0.00000000000000     5.71684173934948
H   3   1    -0.05031916615174     1.78353065140343     7.91611525771711
O   4   8     0.00000000000000     0.00000000000000     2.31533471513237
C   5   6     0.00000000000000     0.00000000000000     0.00000000000000
C   6   6     2.01118073026938    -1.40227222164369    -1.50774939176400
C   7   6    -2.01249334291722     1.41331050329955    -1.50315905028694
H   8   1     3.32037363730244    -2.26721897153159    -0.13599698591495
C   9   6     3.45899267434009     0.28739631745591    -3.37437943254505
H   10   1     1.07662969841332    -2.94725144642667    -2.56541439481080
H   11   1    -2.67503415753480     0.18421555839588    -3.06194479365997
H   12   1    -1.07974048864772     3.03851734677796    -2.43674295017013
C   13   6    -4.21607110578555     2.32938802552922     0.11994162256091
H   14   1     4.24440173074564     1.93368664142019    -2.34976285512790
H   15   1     2.15020713235517     1.04714335134846    -4.81494497423699
C   16   6     5.60746363007797    -1.12419643481196    -4.70268606082550
H   17   1    -3.46838323670267     3.50951302338067     1.66946842715333
H   18   1    -5.11873485366228     0.68575958301209     1.04047743976495
C   19   6    -6.18314754751344     3.80909592987882    -1.39656589068747
H   20   1     6.93011263717176    -1.87550812453645    -3.26656317360070
C   21   6     7.06356622236532     0.52877932406334    -6.57829775293605
H   22   1     4.82318879258361    -2.78573437948532    -5.70504560381835
H   23   1    -6.91582688743803     2.61304780074712    -2.95074552451969
H   24   1    -5.26532430573853     5.45420349051338    -2.31005832200284
C   25   6    -8.39941882261433     4.73263980500213     0.21800571437956
H   26   1     7.83338371486801     2.19084139882824    -5.57093109900697
H   27   1     5.73544244039420     1.27376866537418    -8.01071492370229
C   28   6     9.21124858443101    -0.89699110072176    -7.88926949186242
H   29   1    -7.66272760055236     5.92277078003992     1.77035591474408
H   30   1    -9.31497248082589     3.08753015622020     1.12614408368786
C   31   6   -10.35481709231879     6.21833079391143    -1.30905206253246
H   32   1    10.58815905329501    -1.61074586756696    -6.49512691622620
H   33   1    10.23506248045667     0.32468009384095    -9.23072870921204
H   34   1     8.47665842847139    -2.53598436989925    -8.94921964622535
H   35   1    -9.48948872868064     7.90013588951020    -2.18823918416067
H   36   1   -11.93332513000955     6.86460487874102    -0.11255798845995
H   37   1   -11.15126291841033     5.04495968327630    -2.83849898862534
[GTO]
1 0
 s    8 1.00
                 11720  0.00070964594651845
                  1759  0.0054672722921914
                 400.8   0.027823118610189
                 113.7    0.10474773971146
                 37.03    0.28292084635691
                 13.27    0.44849523869833
                 5.025    0.27081688521277
                 1.013    0.01545029160744
 s    8 1.00
                 11720  -0.00031444341168873
                  1759  -0.0024821376810179
                 400.8  -0.012316355381583
                 113.7  -0.050538917343672
                 37.03   -0.13938490331632
                 13.27   -0.32507749481778
                 5.025   -0.22984830758785
                 1.013     1.0953793467883
 s    1 1.00
                0.3023                   1
 p    3 1.00
                  17.7   0.062679166281506
                 3.854    0.33353656587936
                 1.046    0.74123964163973
 p    1 1.00
                0.2753                   1
 d    1 1.00
                 1.185                   1

2 0
 s    3 1.00
                 13.01   0.033498726389998
                 1.962    0.23480080117413
                0.4446     0.8136829578829
 s    1 1.00
                 0.122                   1
 p    1 1.00
                 0.727                   1

3 0
 s    3 1.00
                 13.01   0.033498726389998
                 1.962    0.23480080117413
                0.4446     0.8136829578829
 s    1 1.00
                 0.122                   1
 p    1 1.00
                 0.727                   1

4 0
 s    8 1.00
                 11720  0.00070964594651845
                  1759  0.0054672722921914
                 400.8   0.027823118610189
                 113.7    0.10474773971146
                 37.03    0.28292084635691
                 13.27    0.44849523869833
                 5.025    0.27081688521277
                 1.013    0.01545029160744
 s    8 1.00
                 11720  -0.00031444341168873
                  1759  -0.0024821376810179
                 400.8  -0.012316355381583
                 113.7  -0.050538917343672
                 37.03   -0.13938490331632
                 13.27   -0.32507749481778
                 5.025   -0.22984830758785
                 1.013     1.0953793467883
 s    1 1.00
                0.3023                   1
 p    3 1.00
                  17.7   0.062679166281506
                 3.854    0.33353656587936
                 1.046    0.74123964163973
 p    1 1.00
                0.2753                   1
 d    1 1.00
                 1.185                   1

5 0
 s    8 1.00
                  6665  0.00069158396281299
                  1000  0.0053257961529341
                   228   0.027060721042034
                 64.71    0.10165684614077
                 21.06     0.2745748236174
                 7.495    0.44829431892377
                 2.797    0.28490261071525
                0.5215   0.015194859206082
 s    8 1.00
                  6665  -0.00029326965268655
                  1000  -0.0023180354739745
                   228  -0.011499786038565
                 64.71  -0.046826727009787
                 21.06   -0.12846616875047
                 7.495   -0.30126627246289
                 2.797   -0.25563070233011
                0.5215      1.093793361012
 s    1 1.00
                0.1596                   1
 p    3 1.00
                 9.439   0.056979251590039
                 2.002    0.31320721150073
                0.5456    0.76037674173753
 p    1 1.00
                0.1517                   1
 d    1 1.00
                  0.55                   1

6 0
 s    8 1.00
                  6665  0.00069158396281299
                  1000  0.0053257961529341
                   228   0.027060721042034
                 64.71    0.10165684614077
                 21.06     0.2745748236174
                 7.495    0.44829431892377
                 2.797    0.28490261071525
                0.5215   0.015194859206082
 s    8 1.00
                  6665  -0.00029326965268655
                  1000  -0.0023180354739745
                   228  -0.011499786038565
                 64.71  -0.046826727009787
                 21.06   -0.12846616875047
                 7.495   -0.30126627246289
                 2.797   -0.25563070233011
                0.5215      1.093793361012
 s    1 1.00
                0.1596                   1
 p    3 1.00
                 9.439   0.056979251590039
                 2.002    0.31320721150073
                0.5456    0.76037674173753
 p    1 1.00
                0.1517                   1
 d    1 1.00
                  0.55                   1

7 0
 s    8 1.00
                  6665  0.00069158396281299
                  1000  0.0053257961529341
                   228   0.027060721042034
                 64.71    0.10165684614077
                 21.06     0.2745748236174
                 7.495    0.44829431892377
                 2.797    0.28490261071525
                0.5215   0.015194859206082
 s    8 1.00
                  6665  -0.00029326965268655
                  1000  -0.0023180354739745
                   228  -0.011499786038565
                 64.71  -0.046826727009787
                 21.06   -0.12846616875047
                 7.495   -0.30126627246289
                 2.797   -0.25563070233011
                0.5215      1.093793361012
 s    1 1.00
                0.1596                   1
 p    3 1.00
                 9.439   0.056979251590039
                 2.002    0.31320721150073
                0.5456    0.76037674173753
 p    1 1.00
                0.1517                   1
 d    1 1.00
                  0.55                   1

8 0
 s    3 1.00
                 13.01   0.033498726389998
                 1.962    0.23480080117413
                0.4446     0.8136829578829
 s    1 1.00
                 0.122                   1
 p    1 1.00
                 0.727                   1

9 0
 s    8 1.00
                  6665  0.00069158396281299
                  1000  0.0053257961529341
                   228   0.027060721042034
                 64.71    0.10165684614077
                 21.06     0.2745748236174
                 7.495    0.44829431892377
                 2.797    0.28490261071525
                0.5215   0.015194859206082
 s    8 1.00
                  6665  -0.00029326965268655
                  1000  -0.0023180354739745
                   228  -0.011499786038565
                 64.71  -0.046826727009787
                 21.06   -0.12846616875047
                 7.495   -0.30126627246289
                 2.797   -0.25563070233011
                0.5215      1.093793361012
 s    1 1.00
                0.1596                   1
 p    3 1.00
                 9.439   0.056979251590039
                 2.002    0.31320721150073
                0.5456    0.76037674173753
 p    1 1.00
                0.1517                   1
 d    1 1.00
                  0.55                   1

10 0
 s    3 1.00
                 13.01   0.033498726389998
                 1.962    0.23480080117413
                0.4446     0.8136829578829
 s    1 1.00
                 0.122                   1
 p    1 1.00
                 0.727                   1

11 0
 s    3 1.00
                 13.01   0.033498726389998
                 1.962    0.23480080117413
                0.4446     0.8136829578829
 s    1 1.00
                 0.122                   1
 p    1 1.00
                 0.727                   1

12 0
 s    3 1.00
                 13.01   0.033498726389998
                 1.962    0.23480080117413
                0.4446     0.8136829578829
 s    1 1.00
                 0.122                   1
 p    1 1.00
                 0.727                   1

13 0
 s    8 1.00
                  6665  0.00069158396281299
                  1000  0.0053257961529341
                   228   0.027060721042034
                 64.71    0.10165684614077
                 21.06     0.2745748236174
                 7.495    0.44829431892377
                 2.797    0.28490261071525
                0.5215   0.015194859206082
 s    8 1.00
                  6665  -0.00029326965268655
                  1000  -0.0023180354739745
                   228  -0.011499786038565
                 64.71  -0.046826727009787
                 21.06   -0.12846616875047
                 7.495   -0.30126627246289
                 2.797   -0.25563070233011
                0.5215      1.093793361012
 s    1 1.00
                0.1596                   1
 p    3 1.00
                 9.439   0.056979251590039
                 2.002    0.31320721150073
                0.5456    0.76037674173753
 p    1 1.00
                0.1517                   1
 d    1 1.00
                  0.55                   1

14 0
 s    3 1.00
                 13.01   0.033498726389998
                 1.962    0.23480080117413
                0.4446     0.8136829578829
 s    1 1.00
                 0.122                   1
 p    1 1.00
                 0.727                   1

15 0
 s    3 1.00
                 13.01   0.033498726389998
                 1.962    0.23480080117413
                0.4446     0.8136829578829
 s    1 1.00
                 0.122                   1
 p    1 1.00
                 0.727                   1

16 0
 s    8 1.00
                  6665  0.00069158396281299
                  1000  0.0053257961529341
                   228   0.027060721042034
                 64.71    0.10165684614077
                 21.06     0.2745748236174
                 7.495    0.44829431892377
                 2.797    0.28490261071525
                0.5215   0.015194859206082
 s    8 1.00
                  6665  -0.00029326965268655
                  1000  -0.0023180354739745
                   228  -0.011499786038565
                 64.71  -0.046826727009787
                 21.06   -0.12846616875047
                 7.495   -0.30126627246289
                 2.797   -0.25563070233011
                0.5215      1.093793361012
 s    1 1.00
                0.1596                   1
 p    3 1.00
                 9.439   0.056979251590039
                 2.002    0.31320721150073
                0.5456    0.76037674173753
 p    1 1.00
                0.1517                   1
 d    1 1.00
                  0.55                   1

17 0
 s    3 1.00
                 13.01   0.033498726389998
                 1.962    0.23480080117413
                0.4446     0.8136829578829
 s    1 1.00
                 0.122                   1
 p    1 1.00
                 0.727                   1

18 0
 s    3 1.00
                 13.01   0.033498726389998
                 1.962    0.23480080117413
                0.4446     0.8136829578829
 s    1 1.00
                 0.122                   1
 p    1 1.00
                 0.727                   1

19 0
 s    8 1.00
                  6665  0.00069158396281299
                  1000  0.0053257961529341
                   228   0.027060721042034
                 64.71    0.10165684614077
                 21.06     0.2745748236174
                 7.495    0.44829431892377
                 2.797    0.28490261071525
                0.5215   0.015194859206082
 s    8 1.00
                  6665  -0.00029326965268655
                  1000  -0.0023180354739745
                   228  -0.011499786038565
                 64.71  -0.046826727009787
                 21.06   -0.12846616875047
                 7.495   -0.30126627246289
                 2.797   -0.25563070233011
                0.5215      1.093793361012
 s    1 1.00
                0.1596                   1
 p    3 1.00
                 9.439   0.056979251590039
                 2.002    0.31320721150073
                0.5456    0.76037674173753
 p    1 1.00
                0.1517                   1
 d    1 1.00
                  0.55                   1

20 0
 s    3 1.00
                 13.01   0.033498726389998
                 1.962    0.23480080117413
                0.4446     0.8136829578829
 s    1 1.00
                 0.122                   1
 p    1 1.00
                 0.727                   1

21 0
 s    8 1.00
                  6665  0.00069158396281299
                  1000  0.0053257961529341
                   228   0.027060721042034
                 64.71    0.10165684614077
                 21.06     0.2745748236174
                 7.495    0.44829431892377
                 2.797    0.28490261071525
                0.5215   0.015194859206082
 s    8 1.00
                  6665  -0.00029326965268655
                  1000  -0.0023180354739745
                   228  -0.011499786038565
                 64.71  -0.046826727009787
                 21.06   -0.12846616875047
                 7.495   -0.30126627246289
                 2.797   -0.25563070233011
                0.5215      1.093793361012
 s    1 1.00
                0.1596                   1
 p    3 1.00
                 9.439   0.056979251590039
                 2.002    0.31320721150073
                0.5456    0.76037674173753
 p    1 1.00
                0.1517                   1
 d    1 1.00
                  0.55                   1

22 0
 s    3 1.00
                 13.01   0.033498726389998
                 1.962    0.23480080117413
                0.4446     0.8136829578829
 s    1 1.00
                 0.122                   1
 p    1 1.00
                 0.727                   1

23 0
 s    3 1.00
                 13.01   0.033498726389998
                 1.962    0.23480080117413
                0.4446     0.8136829578829
 s    1 1.00
                 0.122                   1
 p    1 1.00
                 0.727                   1

24 0
 s    3 1.00
                 13.01   0.033498726389998
                 1.962    0.23480080117413
                0.4446     0.8136829578829
 s    1 1.00
                 0.122                   1
 p    1 1.00
                 0.727                   1

25 0
 s    8 1.00
                  6665  0.00069158396281299
                  1000  0.0053257961529341
                   228   0.027060721042034
                 64.71    0.10165684614077
                 21.06     0.2745748236174
                 7.495    0.44829431892377
                 2.797    0.28490261071525
                0.5215   0.015194859206082
 s    8 1.00
                  6665  -0.00029326965268655
                  1000  -0.0023180354739745
                   228  -0.011499786038565
                 64.71  -0.046826727009787
                 21.06   -0.12846616875047
                 7.495   -0.30126627246289
                 2.797   -0.25563070233011
                0.5215      1.093793361012
 s    1 1.00
                0.1596                   1
 p    3 1.00
                 9.439   0.056979251590039
                 2.002    0.31320721150073
                0.5456    0.76037674173753
 p    1 1.00
                0.1517                   1
 d    1 1.00
                  0.55                   1

26 0
 s    3 1.00
                 13.01   0.033498726389998
                 1.962    0.23480080117413
                0.4446     0.8136829578829
 s    1 1.00
                 0.122                   1
 p    1 1.00
                 0.727                   1

27 0
 s    3 1.00
                 13.01   0.033498726389998
                 1.962    0.23480080117413
                0.4446     0.8136829578829
 s    1 1.00
                 0.122                   1
 p    1 1.00
                 0.727                   1

28 0
 s    8 1.00
                  6665  0.00069158396281299
                  1000  0.0053257961529341
                   228   0.027060721042034
                 64.71    0.10165684614077
                 21.06     0.2745748236174
                 7.495    0.44829431892377
                 2.797    0.28490261071525
                0.5215   0.015194859206082
 s    8 1.00
                  6665  -0.00029326965268655
                  1000  -0.0023180354739745
                   228  -0.011499786038565
                 64.71  -0.046826727009787
                 21.06   -0.12846616875047
                 7.495   -0.30126627246289
                 2.797   -0.25563070233011
                0.5215      1.093793361012
 s    1 1.00
                0.1596                   1
 p    3 1.00
                 9.439   0.056979251590039
                 2.002    0.31320721150073
                0.5456    0.76037674173753
 p    1 1.00
                0.1517                   1
 d    1 1.00
                  0.55                   1

29 0
 s    3 1.00
                 13.01   0.033498726389998
                 1.962    0.23480080117413
                0.4446     0.8136829578829
 s    1 1.00
                 0.122                   1
 p    1 1.00
                 0.727                   1

30 0
 s    3 1.00
                 13.01   0.033498726389998
                 1.962    0.23480080117413
                0.4446     0.8136829578829
 s    1 1.00
                 0.122                   1
 p    1 1.00
                 0.727                   1

31 0
 s    8 1.00
                  6665  0.00069158396281299
                  1000  0.0053257961529341
                   228   0.027060721042034
                 64.71    0.10165684614077
                 21.06     0.2745748236174
                 7.495    0.44829431892377
                 2.797    0.28490261071525
                0.5215   0.015194859206082
 s    8 1.00
                  6665  -0.00029326965268655
                  1000  -0.0023180354739745
                   228  -0.011499786038565
                 64.71  -0.046826727009787
                 21.06   -0.12846616875047
                 7.495   -0.30126627246289
                 2.797   -0.25563070233011
                0.5215      1.093793361012
 s    1 1.00
                0.1596                   1
 p    3 1.00
                 9.439   0.056979251590039
                 2.002    0.31320721150073
                0.5456    0.76037674173753
 p    1 1.00
                0.1517                   1
 d    1 1.00
                  0.55                   1

32 0
 s    3 1.00
                 13.01   0.033498726389998
                 1.962    0.23480080117413
                0.4446     0.8136829578829
 s    1 1.00
                 0.122                   1
 p    1 1.00
                 0.727                   1

33 0
 s    3 1.00
                 13.01   0.033498726389998
                 1.962    0.23480080117413
                0.4446     0.8136829578829
 s    1 1.00
                 0.122                   1
 p    1 1.00
                 0.727                   1

34 0
 s    3 1.00
                 13.01   0.033498726389998
                 1.962    0.23480080117413
                0.4446     0.8136829578829
 s    1 1.00
                 0.122                   1
 p    1 1.00
                 0.727                   1

35 0
 s    3 1.00
                 13.01   0.033498726389998
                 1.962    0.23480080117413
                0.4446     0.8136829578829
 s    1 1.00
                 0.122                   1
 p    1 1.00
                 0.727                   1

36 0
 s    3 1.00
                 13.01   0.033498726389998
                 1.962    0.23480080117413
                0.4446     0.8136829578829
 s    1 1.00
                 0.122                   1
 p    1 1.00
                 0.727                   1

37 0
 s    3 1.00
                 13.01   0.033498726389998
                 1.962    0.23480080117413
                0.4446     0.8136829578829
 s    1 1.00
                 0.122                   1
 p    1 1.00
                 0.727                   1

[5d]
[7f]
[9g]

[MO]
 Sym= A
 Ene=               0
 Spin= Alpha
 Occup=    1.00000
   1    5.5992405730789e-05
   2    2.9264816132074e-05
   3    -0.00011969097018939
   4    -5.807005741037e-07
   5    -3.8613424720133e-06
   6    2.1573020646245e-07
   7    4.7136510828289e-07
   8    2.1310118380635e-05
   9    3.057278688984e-05
  10    -4.6174756839533e-06
  11    2.8201238685073e-07
  12    -2.5531057294701e-06
  13    -1.7302023166419e-06
  14    -4.4472733036374e-08
  15    7.1097596386755e-05
  16    0.00022253792362787
  17    1.0465285359771e-06
  18    -3.2166694989455e-06
  19    -2.0301796490006e-06
  20    -4.0828606057994e-06
  21    -4.0466203643447e-05
  22    -1.7117452939951e-07
  23    -2.198598465725e-06
  24    7.2256656308172e-06
  25      -1.0013929786786
  26    -0.002023633604506
  27    0.0070345903991296
  28    5.5853194872226e-06
  29    -1.2292804878424e-05
  30    0.0015961226731302
  31    1.6398193695458e-06
  32    5.2447960081085e-06
  33    -0.0020441412520401
  34    -0.0001040068512359
  35    2.735414162456e-06
  36    -1.4798615170426e-06
  37    -6.4940320841445e-05
  38    0.0001691393377651
  39    -0.00029836806160223
  40    -0.00044214483430099
  41    -0.0016190180266657
  42    -1.7083603812799e-05
  43    8.7037497224121e-06
  44    -2.1537477034557e-05
  45    -9.7107856883178e-05
  46    7.3065241580777e-05
  47    -0.0037497626423218
  48    0.00049789550567215
  49    8.9950704767073e-06
  50    -2.1670893691459e-06
  51    -3.2857166693906e-05
  52    0.00011775377633256
  53    7.964278482624e-05
  54    0.00016253900687382
  55    -0.0013925555807736
  56    -0.00010775661761702
  57    2.3646443091969e-05
  58    -6.4545754880195e-05
  59    0.00041690655946837
  60    -0.00047483789396823
  61    0.00096045865375754
  62    0.00011679681680766
  63    -0.0001524952888896
  64    0.00014309776522491
  65    -5.6517105528885e-05
  66    0.00013100850300671
  67    3.3927841127542e-05
  68    0.0001005312278107
  69    -0.00054654512885452
  70    8.3962902887889e-05
  71    -6.4452322774495e-05
  72    -3.7048633518882e-05
  73     -0.00101712416014
  74    0.00078153238009222
  75    0.00062388723280465
  76    0.0001399176288177
  77    0.00012586939947749
  78    -8.881266737609e-05
  79    -6.2022718712505e-05
  80    0.00015385916367465
  81    -2.1376427309987e-05
  82    -0.00025011155786869
  83    -6.3861921175405e-05
  84    4.662964229681e-05
  85    -4.369344857068e-05
  86    -1.2843326591138e-05
  87    -8.409676982737e-06
  88    0.00065843068368338
  89    -3.2197644468007e-05
  90    2.1322267122449e-06
  91    -4.0499846505241e-06
  92    -0.00028703747178042
  93    -0.00067338284945763
  94    1.0344003087666e-05
  95    -2.1852518582109e-05
  96    -1.2524825095103e-05
  97    -1.0117760084046e-05
  98    1.9840981856302e-05
  99    5.2799159223717e-05
 100    8.830903780552e-05
 101    0.00018738905657068
 102    -4.5247267943919e-06
 103    1.4750224419761e-05
 104    -7.9381833183272e-05
 105    9.5913548156805e-05
 106    0.0002391771028791
 107    6.6678028516349e-05
 108    -3.430795008233e-06
 109    -7.4512203227569e-05
 110    -4.4787826659787e-05
 111    8.0091685618796e-05
 112    4.2475899890615e-05
 113    -2.4363145690883e-05
 114    -7.3593429875652e-05
 115    3.7237654374286e-05
 116    4.9283638678965e-05
 117    -0.00088037665044127
 118    -2.5454818553809e-05
 119    3.8398989377576e-05
 120    -2.5404459867005e-05
 121    -0.00030343427043661
 122    -2.8672153339428e-05
 123    0.00016214487387464
 124    7.9465176001232e-06
 125    -7.6309256325905e-06
 126    -1.5614155984901e-05
 127    3.0486147791489e-05
 128    -5.1098304420072e-05
 129    1.9949821102378e-05
 130    0.00034406935751709
 131    -9.8075860965784e-06
 132    -6.7167507667286e-06
 133    -2.9768335172651e-05
 134    8.2096278792689e-06
 135    0.00011928447060065
 136    1.5578321304882e-05
 137    2.4143135921381e-05
 138    3.1207507582109e-05
 139    2.2526403410708e-05
 140    3.7888129664749e-05
 141    -0.0003184584545478
 142    8.8660474638172e-07
 143    -5.6635888238534e-07
 144    6.0838038855372e-06
 145    0.00024291612491089
 146    -6.3373720735894e-05
 147    -5.8562522960007e-05
 148    2.4047174347248e-06
 149    -3.8309276247917e-06
 150    4.1724842660891e-06
 151    -1.1516478225823e-05
 152    4.6965795194606e-06
 153    8.2118081055016e-05
 154    9.6884252300981e-05
 155    2.6987794597813e-05
 156    -2.5374422200283e-05
 157    -1.6950108575029e-05
 158    7.5668733423662e-06
 159    8.4414298978539e-05
 160    5.7039387296434e-05
 161    6.058400392792e-06
 162    -5.4431138977132e-06
 163    8.4815229382936e-07
 164    8.6960592602637e-06
 165    0.00026715773703341
 166    2.7300574508416e-05
 167    -2.0685712383151e-05
 168    -4.3850289178423e-07
 169    -0.00022838602050992
 170    0.00020787638051916
 171    0.00014457830897389
 172    3.5906908520483e-06
 173    -9.787751190447e-06
 174    1.3274194786001e-05
 175    -3.7194673135667e-06
 176    1.8944527268802e-05
 177    2.1747414108111e-05
 178    -8.5988004264226e-05
 179    1.4685873050524e-06
 180    -1.5203555037303e-06
 181    4.3069525586244e-06
 182    -1.6532202059027e-05
 183    -2.8082471045403e-05
 184    8.4129594642418e-05
 185    3.488135808086e-06
 186    -4.6752663415753e-06
 187    -3.4273674407703e-06
 188    -0.00013530012602074
 189    0.00010267872977646
 190    9.5739660418934e-05
 191    -1.0562391084576e-06
 192      -2.065349747e-06
 193    7.3933927636781e-06
 194    2.7490078688526e-06
 195    5.9094589278014e-06
 196    9.6806031710812e-06
 197    1.8178662538384e-05
 198    -5.3703848954265e-06
 199    -2.1880309146802e-06
 200    3.1018422813913e-06
 201    1.2741264348604e-05
 202    -1.2552118165522e-06
 203    1.3931348470622e-05
 204    -1.0257945644345e-05
 205    -1.1641905534491e-05
 206    -9.2694798013726e-06
 207    -6.9992837504817e-05
 208    1.6531684830236e-05
 209    -4.0461333778659e-06
 210    -1.5855065708808e-05
 211    1.8673792570924e-05
 212    3.0207458000155e-05
 213    -0.00027310560049013
 214    -9.3081264733156e-06
 215    3.9490458998957e-06
 216    7.3265232808724e-06
 217    -0.00019663448746305
 218    5.2574929793819e-05
 219    8.0383283587306e-05
 220    1.8202007177613e-06
 221    1.6710954492707e-05
 222    -5.6553428709564e-06
 223    -9.2382628447682e-06
 224    1.4154919167282e-06
 225    -2.6651145648804e-05
 226    -5.8054223488131e-05
 227    1.274180161935e-05
 228    2.1800385723313e-06
 229    9.6513938800658e-07
 230    -9.6399798761673e-06
 231    -5.3489466995579e-05
 232    4.149951776298e-06
 233    -6.6310794224474e-06
 234    -1.2235822227499e-05
 235    -5.536925160067e-07
 236    -1.849475353733e-06
 237    7.9274242876518e-05
 238    -1.2620389419169e-06
 239    -2.7361518321582e-06
 240    2.5488432164814e-06
 241    -3.661941100044e-05
 242    6.4363145384426e-05
 243    -1.9682247122277e-05
 244    -1.9532700958163e-06
 245    -2.1190624132859e-06
 246    1.8332033805443e-06
 247    -1.0026079020463e-07
 248    -8.5756598486911e-07
 249    1.6642787537378e-05
 250    -9.982117811277e-06
 251    4.2790518916964e-06
 252    9.3620241045795e-07
 253    -1.3302379901653e-07
 254    1.5673796195295e-05
 255    -5.6516889798627e-05
 256    -4.7578909119133e-07
 257    -4.2122378813447e-06
 258    7.9575927431168e-07
 259    1.0519267344339e-05
 260    2.0202847554009e-05
 261    -6.9089975679871e-05
 262    5.7040306706789e-06
 263    -2.8694131725321e-06