[Molden Format]
made by pyscf v[2.0.1]
[Atoms] (AU)
O   1   8     0.00000000000000     0.00000000000000    10.56380536055454
H   2   1     0.00000000000000     0.00000000000000     8.74040353865358
H   3   1    -0.05031916615174     1.78353065140343    10.93967705702121
O   4   8     0.00000000000000     0.00000000000000     2.31533471513237
C   5   6     0.00000000000000     0.00000000000000     0.00000000000000
C   6   6     2.01118073026938    -1.40227222164369    -1.50774939176400
C   7   6    -2.01249334291722     1.41331050329955    -1.50315905028694
H   8   1     3.32037363730244    -2.26721897153159    -0.13599698591495
C   9   6     3.45899267434009     0.28739631745591    -3.37437943254505
H   10   1     1.07662969841332    -2.94725144642667    -2.56541439481080
H   11   1    -2.67503415753480     0.18421555839588    -3.06194479365997
H   12   1    -1.07974048864772     3.03851734677796    -2.43674295017013
C   13   6    -4.21607110578555     2.32938802552922     0.11994162256091
H   14   1     4.24440173074564     1.93368664142019    -2.34976285512790
H   15   1     2.15020713235517     1.04714335134846    -4.81494497423699
C   16   6     5.60746363007797    -1.12419643481196    -4.70268606082550
H   17   1    -3.46838323670267     3.50951302338067     1.66946842715333
H   18   1    -5.11873485366228     0.68575958301209     1.04047743976495
C   19   6    -6.18314754751344     3.80909592987882    -1.39656589068747
H   20   1     6.93011263717176    -1.87550812453645    -3.26656317360070
C   21   6     7.06356622236532     0.52877932406334    -6.57829775293605
H   22   1     4.82318879258361    -2.78573437948532    -5.70504560381835
H   23   1    -6.91582688743803     2.61304780074712    -2.95074552451969
H   24   1    -5.26532430573853     5.45420349051338    -2.31005832200284
C   25   6    -8.39941882261433     4.73263980500213     0.21800571437956
H   26   1     7.83338371486801     2.19084139882824    -5.57093109900697
H   27   1     5.73544244039420     1.27376866537418    -8.01071492370229
C   28   6     9.21124858443101    -0.89699110072176    -7.88926949186242
H   29   1    -7.66272760055236     5.92277078003992     1.77035591474408
H   30   1    -9.31497248082589     3.08753015622020     1.12614408368786
C   31   6   -10.35481709231879     6.21833079391143    -1.30905206253246
H   32   1    10.58815905329501    -1.61074586756696    -6.49512691622620
H   33   1    10.23506248045667     0.32468009384095    -9.23072870921204
H   34   1     8.47665842847139    -2.53598436989925    -8.94921964622535
H   35   1    -9.48948872868064     7.90013588951020    -2.18823918416067
H   36   1   -11.93332513000955     6.86460487874102    -0.11255798845995
H   37   1   -11.15126291841033     5.04495968327630    -2.83849898862534
[GTO]
1 0
 s    8 1.00
                 11720  0.00070964594651845
                  1759  0.0054672722921914
                 400.8   0.027823118610189
                 113.7    0.10474773971146
                 37.03    0.28292084635691
                 13.27    0.44849523869833
                 5.025    0.27081688521277
                 1.013    0.01545029160744
 s    8 1.00
                 11720  -0.00031444341168873
                  1759  -0.0024821376810179
                 400.8  -0.012316355381583
                 113.7  -0.050538917343672
                 37.03   -0.13938490331632
                 13.27   -0.32507749481778
                 5.025   -0.22984830758785
                 1.013     1.0953793467883
 s    1 1.00
                0.3023                   1
 p    3 1.00
                  17.7   0.062679166281506
                 3.854    0.33353656587936
                 1.046    0.74123964163973
 p    1 1.00
                0.2753                   1
 d    1 1.00
                 1.185                   1

2 0
 s    3 1.00
                 13.01   0.033498726389998
                 1.962    0.23480080117413
                0.4446     0.8136829578829
 s    1 1.00
                 0.122                   1
 p    1 1.00
                 0.727                   1

3 0
 s    3 1.00
                 13.01   0.033498726389998
                 1.962    0.23480080117413
                0.4446     0.8136829578829
 s    1 1.00
                 0.122                   1
 p    1 1.00
                 0.727                   1

4 0
 s    8 1.00
                 11720  0.00070964594651845
                  1759  0.0054672722921914
                 400.8   0.027823118610189
                 113.7    0.10474773971146
                 37.03    0.28292084635691
                 13.27    0.44849523869833
                 5.025    0.27081688521277
                 1.013    0.01545029160744
 s    8 1.00
                 11720  -0.00031444341168873
                  1759  -0.0024821376810179
                 400.8  -0.012316355381583
                 113.7  -0.050538917343672
                 37.03   -0.13938490331632
                 13.27   -0.32507749481778
                 5.025   -0.22984830758785
                 1.013     1.0953793467883
 s    1 1.00
                0.3023                   1
 p    3 1.00
                  17.7   0.062679166281506
                 3.854    0.33353656587936
                 1.046    0.74123964163973
 p    1 1.00
                0.2753                   1
 d    1 1.00
                 1.185                   1

5 0
 s    8 1.00
                  6665  0.00069158396281299
                  1000  0.0053257961529341
                   228   0.027060721042034
                 64.71    0.10165684614077
                 21.06     0.2745748236174
                 7.495    0.44829431892377
                 2.797    0.28490261071525
                0.5215   0.015194859206082
 s    8 1.00
                  6665  -0.00029326965268655
                  1000  -0.0023180354739745
                   228  -0.011499786038565
                 64.71  -0.046826727009787
                 21.06   -0.12846616875047
                 7.495   -0.30126627246289
                 2.797   -0.25563070233011
                0.5215      1.093793361012
 s    1 1.00
                0.1596                   1
 p    3 1.00
                 9.439   0.056979251590039
                 2.002    0.31320721150073
                0.5456    0.76037674173753
 p    1 1.00
                0.1517                   1
 d    1 1.00
                  0.55                   1

6 0
 s    8 1.00
                  6665  0.00069158396281299
                  1000  0.0053257961529341
                   228   0.027060721042034
                 64.71    0.10165684614077
                 21.06     0.2745748236174
                 7.495    0.44829431892377
                 2.797    0.28490261071525
                0.5215   0.015194859206082
 s    8 1.00
                  6665  -0.00029326965268655
                  1000  -0.0023180354739745
                   228  -0.011499786038565
                 64.71  -0.046826727009787
                 21.06   -0.12846616875047
                 7.495   -0.30126627246289
                 2.797   -0.25563070233011
                0.5215      1.093793361012
 s    1 1.00
                0.1596                   1
 p    3 1.00
                 9.439   0.056979251590039
                 2.002    0.31320721150073
                0.5456    0.76037674173753
 p    1 1.00
                0.1517                   1
 d    1 1.00
                  0.55                   1

7 0
 s    8 1.00
                  6665  0.00069158396281299
                  1000  0.0053257961529341
                   228   0.027060721042034
                 64.71    0.10165684614077
                 21.06     0.2745748236174
                 7.495    0.44829431892377
                 2.797    0.28490261071525
                0.5215   0.015194859206082
 s    8 1.00
                  6665  -0.00029326965268655
                  1000  -0.0023180354739745
                   228  -0.011499786038565
                 64.71  -0.046826727009787
                 21.06   -0.12846616875047
                 7.495   -0.30126627246289
                 2.797   -0.25563070233011
                0.5215      1.093793361012
 s    1 1.00
                0.1596                   1
 p    3 1.00
                 9.439   0.056979251590039
                 2.002    0.31320721150073
                0.5456    0.76037674173753
 p    1 1.00
                0.1517                   1
 d    1 1.00
                  0.55                   1

8 0
 s    3 1.00
                 13.01   0.033498726389998
                 1.962    0.23480080117413
                0.4446     0.8136829578829
 s    1 1.00
                 0.122                   1
 p    1 1.00
                 0.727                   1

9 0
 s    8 1.00
                  6665  0.00069158396281299
                  1000  0.0053257961529341
                   228   0.027060721042034
                 64.71    0.10165684614077
                 21.06     0.2745748236174
                 7.495    0.44829431892377
                 2.797    0.28490261071525
                0.5215   0.015194859206082
 s    8 1.00
                  6665  -0.00029326965268655
                  1000  -0.0023180354739745
                   228  -0.011499786038565
                 64.71  -0.046826727009787
                 21.06   -0.12846616875047
                 7.495   -0.30126627246289
                 2.797   -0.25563070233011
                0.5215      1.093793361012
 s    1 1.00
                0.1596                   1
 p    3 1.00
                 9.439   0.056979251590039
                 2.002    0.31320721150073
                0.5456    0.76037674173753
 p    1 1.00
                0.1517                   1
 d    1 1.00
                  0.55                   1

10 0
 s    3 1.00
                 13.01   0.033498726389998
                 1.962    0.23480080117413
                0.4446     0.8136829578829
 s    1 1.00
                 0.122                   1
 p    1 1.00
                 0.727                   1

11 0
 s    3 1.00
                 13.01   0.033498726389998
                 1.962    0.23480080117413
                0.4446     0.8136829578829
 s    1 1.00
                 0.122                   1
 p    1 1.00
                 0.727                   1

12 0
 s    3 1.00
                 13.01   0.033498726389998
                 1.962    0.23480080117413
                0.4446     0.8136829578829
 s    1 1.00
                 0.122                   1
 p    1 1.00
                 0.727                   1

13 0
 s    8 1.00
                  6665  0.00069158396281299
                  1000  0.0053257961529341
                   228   0.027060721042034
                 64.71    0.10165684614077
                 21.06     0.2745748236174
                 7.495    0.44829431892377
                 2.797    0.28490261071525
                0.5215   0.015194859206082
 s    8 1.00
                  6665  -0.00029326965268655
                  1000  -0.0023180354739745
                   228  -0.011499786038565
                 64.71  -0.046826727009787
                 21.06   -0.12846616875047
                 7.495   -0.30126627246289
                 2.797   -0.25563070233011
                0.5215      1.093793361012
 s    1 1.00
                0.1596                   1
 p    3 1.00
                 9.439   0.056979251590039
                 2.002    0.31320721150073
                0.5456    0.76037674173753
 p    1 1.00
                0.1517                   1
 d    1 1.00
                  0.55                   1

14 0
 s    3 1.00
                 13.01   0.033498726389998
                 1.962    0.23480080117413
                0.4446     0.8136829578829
 s    1 1.00
                 0.122                   1
 p    1 1.00
                 0.727                   1

15 0
 s    3 1.00
                 13.01   0.033498726389998
                 1.962    0.23480080117413
                0.4446     0.8136829578829
 s    1 1.00
                 0.122                   1
 p    1 1.00
                 0.727                   1

16 0
 s    8 1.00
                  6665  0.00069158396281299
                  1000  0.0053257961529341
                   228   0.027060721042034
                 64.71    0.10165684614077
                 21.06     0.2745748236174
                 7.495    0.44829431892377
                 2.797    0.28490261071525
                0.5215   0.015194859206082
 s    8 1.00
                  6665  -0.00029326965268655
                  1000  -0.0023180354739745
                   228  -0.011499786038565
                 64.71  -0.046826727009787
                 21.06   -0.12846616875047
                 7.495   -0.30126627246289
                 2.797   -0.25563070233011
                0.5215      1.093793361012
 s    1 1.00
                0.1596                   1
 p    3 1.00
                 9.439   0.056979251590039
                 2.002    0.31320721150073
                0.5456    0.76037674173753
 p    1 1.00
                0.1517                   1
 d    1 1.00
                  0.55                   1

17 0
 s    3 1.00
                 13.01   0.033498726389998
                 1.962    0.23480080117413
                0.4446     0.8136829578829
 s    1 1.00
                 0.122                   1
 p    1 1.00
                 0.727                   1

18 0
 s    3 1.00
                 13.01   0.033498726389998
                 1.962    0.23480080117413
                0.4446     0.8136829578829
 s    1 1.00
                 0.122                   1
 p    1 1.00
                 0.727                   1

19 0
 s    8 1.00
                  6665  0.00069158396281299
                  1000  0.0053257961529341
                   228   0.027060721042034
                 64.71    0.10165684614077
                 21.06     0.2745748236174
                 7.495    0.44829431892377
                 2.797    0.28490261071525
                0.5215   0.015194859206082
 s    8 1.00
                  6665  -0.00029326965268655
                  1000  -0.0023180354739745
                   228  -0.011499786038565
                 64.71  -0.046826727009787
                 21.06   -0.12846616875047
                 7.495   -0.30126627246289
                 2.797   -0.25563070233011
                0.5215      1.093793361012
 s    1 1.00
                0.1596                   1
 p    3 1.00
                 9.439   0.056979251590039
                 2.002    0.31320721150073
                0.5456    0.76037674173753
 p    1 1.00
                0.1517                   1
 d    1 1.00
                  0.55                   1

20 0
 s    3 1.00
                 13.01   0.033498726389998
                 1.962    0.23480080117413
                0.4446     0.8136829578829
 s    1 1.00
                 0.122                   1
 p    1 1.00
                 0.727                   1

21 0
 s    8 1.00
                  6665  0.00069158396281299
                  1000  0.0053257961529341
                   228   0.027060721042034
                 64.71    0.10165684614077
                 21.06     0.2745748236174
                 7.495    0.44829431892377
                 2.797    0.28490261071525
                0.5215   0.015194859206082
 s    8 1.00
                  6665  -0.00029326965268655
                  1000  -0.0023180354739745
                   228  -0.011499786038565
                 64.71  -0.046826727009787
                 21.06   -0.12846616875047
                 7.495   -0.30126627246289
                 2.797   -0.25563070233011
                0.5215      1.093793361012
 s    1 1.00
                0.1596                   1
 p    3 1.00
                 9.439   0.056979251590039
                 2.002    0.31320721150073
                0.5456    0.76037674173753
 p    1 1.00
                0.1517                   1
 d    1 1.00
                  0.55                   1

22 0
 s    3 1.00
                 13.01   0.033498726389998
                 1.962    0.23480080117413
                0.4446     0.8136829578829
 s    1 1.00
                 0.122                   1
 p    1 1.00
                 0.727                   1

23 0
 s    3 1.00
                 13.01   0.033498726389998
                 1.962    0.23480080117413
                0.4446     0.8136829578829
 s    1 1.00
                 0.122                   1
 p    1 1.00
                 0.727                   1

24 0
 s    3 1.00
                 13.01   0.033498726389998
                 1.962    0.23480080117413
                0.4446     0.8136829578829
 s    1 1.00
                 0.122                   1
 p    1 1.00
                 0.727                   1

25 0
 s    8 1.00
                  6665  0.00069158396281299
                  1000  0.0053257961529341
                   228   0.027060721042034
                 64.71    0.10165684614077
                 21.06     0.2745748236174
                 7.495    0.44829431892377
                 2.797    0.28490261071525
                0.5215   0.015194859206082
 s    8 1.00
                  6665  -0.00029326965268655
                  1000  -0.0023180354739745
                   228  -0.011499786038565
                 64.71  -0.046826727009787
                 21.06   -0.12846616875047
                 7.495   -0.30126627246289
                 2.797   -0.25563070233011
                0.5215      1.093793361012
 s    1 1.00
                0.1596                   1
 p    3 1.00
                 9.439   0.056979251590039
                 2.002    0.31320721150073
                0.5456    0.76037674173753
 p    1 1.00
                0.1517                   1
 d    1 1.00
                  0.55                   1

26 0
 s    3 1.00
                 13.01   0.033498726389998
                 1.962    0.23480080117413
                0.4446     0.8136829578829
 s    1 1.00
                 0.122                   1
 p    1 1.00
                 0.727                   1

27 0
 s    3 1.00
                 13.01   0.033498726389998
                 1.962    0.23480080117413
                0.4446     0.8136829578829
 s    1 1.00
                 0.122                   1
 p    1 1.00
                 0.727                   1

28 0
 s    8 1.00
                  6665  0.00069158396281299
                  1000  0.0053257961529341
                   228   0.027060721042034
                 64.71    0.10165684614077
                 21.06     0.2745748236174
                 7.495    0.44829431892377
                 2.797    0.28490261071525
                0.5215   0.015194859206082
 s    8 1.00
                  6665  -0.00029326965268655
                  1000  -0.0023180354739745
                   228  -0.011499786038565
                 64.71  -0.046826727009787
                 21.06   -0.12846616875047
                 7.495   -0.30126627246289
                 2.797   -0.25563070233011
                0.5215      1.093793361012
 s    1 1.00
                0.1596                   1
 p    3 1.00
                 9.439   0.056979251590039
                 2.002    0.31320721150073
                0.5456    0.76037674173753
 p    1 1.00
                0.1517                   1
 d    1 1.00
                  0.55                   1

29 0
 s    3 1.00
                 13.01   0.033498726389998
                 1.962    0.23480080117413
                0.4446     0.8136829578829
 s    1 1.00
                 0.122                   1
 p    1 1.00
                 0.727                   1

30 0
 s    3 1.00
                 13.01   0.033498726389998
                 1.962    0.23480080117413
                0.4446     0.8136829578829
 s    1 1.00
                 0.122                   1
 p    1 1.00
                 0.727                   1

31 0
 s    8 1.00
                  6665  0.00069158396281299
                  1000  0.0053257961529341
                   228   0.027060721042034
                 64.71    0.10165684614077
                 21.06     0.2745748236174
                 7.495    0.44829431892377
                 2.797    0.28490261071525
                0.5215   0.015194859206082
 s    8 1.00
                  6665  -0.00029326965268655
                  1000  -0.0023180354739745
                   228  -0.011499786038565
                 64.71  -0.046826727009787
                 21.06   -0.12846616875047
                 7.495   -0.30126627246289
                 2.797   -0.25563070233011
                0.5215      1.093793361012
 s    1 1.00
                0.1596                   1
 p    3 1.00
                 9.439   0.056979251590039
                 2.002    0.31320721150073
                0.5456    0.76037674173753
 p    1 1.00
                0.1517                   1
 d    1 1.00
                  0.55                   1

32 0
 s    3 1.00
                 13.01   0.033498726389998
                 1.962    0.23480080117413
                0.4446     0.8136829578829
 s    1 1.00
                 0.122                   1
 p    1 1.00
                 0.727                   1

33 0
 s    3 1.00
                 13.01   0.033498726389998
                 1.962    0.23480080117413
                0.4446     0.8136829578829
 s    1 1.00
                 0.122                   1
 p    1 1.00
                 0.727                   1

34 0
 s    3 1.00
                 13.01   0.033498726389998
                 1.962    0.23480080117413
                0.4446     0.8136829578829
 s    1 1.00
                 0.122                   1
 p    1 1.00
                 0.727                   1

35 0
 s    3 1.00
                 13.01   0.033498726389998
                 1.962    0.23480080117413
                0.4446     0.8136829578829
 s    1 1.00
                 0.122                   1
 p    1 1.00
                 0.727                   1

36 0
 s    3 1.00
                 13.01   0.033498726389998
                 1.962    0.23480080117413
                0.4446     0.8136829578829
 s    1 1.00
                 0.122                   1
 p    1 1.00
                 0.727                   1

37 0
 s    3 1.00
                 13.01   0.033498726389998
                 1.962    0.23480080117413
                0.4446     0.8136829578829
 s    1 1.00
                 0.122                   1
 p    1 1.00
                 0.727                   1

[5d]
[7f]
[9g]

[MO]
 Sym= A
 Ene=               0
 Spin= Alpha
 Occup=    1.00000
   1    3.0337296084744e-05
   2    2.1469926398074e-05
   3    -8.0875721789146e-05
   4    6.837257353381e-08
   5    -3.0760512529982e-06
   6    -3.2289469120001e-07
   7    -4.6869768766832e-07
   8    1.734130051426e-05
   9    5.8919491236939e-05
  10    -1.0804532486831e-05
  11    -1.2909691417271e-08
  12    7.4752456317476e-07
  13    -5.7139687500668e-07
  14    -3.0219988989419e-08
  15    1.045916981104e-05
  16    0.00011747085827638
  17    5.905125951335e-08
  18    -1.0868925198365e-06
  19    3.2811052393951e-05
  20    4.8447949997715e-06
  21    -4.6939184692856e-05
  22    -1.5628065562297e-07
  23    5.2760066174816e-06
  24    -1.8196321145827e-06
  25      -1.0013610370827
  26    -0.0019400633524014
  27    0.0067924343806419
  28    4.6009421154041e-06
  29    -6.4657467063784e-06
  30    0.0016401876481521
  31    1.8847802534759e-06
  32    2.1549900665191e-06
  33    -0.0018331480976126
  34    -0.00012741593587034
  35    2.9929391267837e-06
  36    -1.2982712512731e-06
  37    -6.766302040962e-05
  38    0.00017620985527126
  39    -0.00027362004512972
  40    -0.0003893361223931
  41    -0.0014233221021525
  42    -1.551532107921e-05
  43    8.5671992794368e-06
  44     3.05555150806e-05
  45    -9.3106620778096e-05
  46    6.8386516601299e-05
  47    -0.0035365401064804
  48    0.00054589097509204
  49    9.2684270955047e-06
  50    -1.8940417232979e-06
  51    -3.07978100863e-05
  52    0.00011230821007338
  53    8.0653758850467e-05
  54    0.00016465515298492
  55    -0.0013628425353199
  56    -0.00010650283210834
  57    2.3893223834502e-05
  58    -6.0574502845317e-05
  59    0.00040682092853943
  60    -0.00046402128329086
  61    0.00088433213110252
  62    0.00011911407873011
  63    -0.00015317011459337
  64    0.00014247618488259
  65    -5.779277717443e-05
  66    0.00013566536865919
  67    3.6718102211668e-05
  68    0.00010545259606801
  69    -0.00053128972267364
  70    8.1921120692223e-05
  71    -6.2123317739026e-05
  72    -3.4780918963635e-05
  73    -0.00098653782857116
  74    0.00075964682778064
  75    0.00058287638705059
  76    0.00014227207150806
  77    0.00012509298270819
  78    -8.8780633087774e-05
  79    -6.3006911180899e-05
  80    0.00015695367896933
  81    -1.2252593126164e-05
  82    -0.00023213150343357
  83    -6.2354445375025e-05
  84    4.5589633820748e-05
  85    -4.6701204547231e-05
  86    -1.2997528175069e-05
  87    -8.866917635667e-06
  88    0.00063070694261149
  89    -3.1466742867694e-05
  90    1.8864669314169e-06
  91    -5.3653233730703e-06
  92    -0.00027778274197616
  93    -0.00063500961724186
  94    2.1466030102119e-05
  95    -2.033931442107e-05
  96    -1.1958810702727e-05
  97    -8.9300666223384e-06
  98    2.1715141600063e-05
  99    4.8390544039966e-05
 100    8.2020779988342e-05
 101    0.00017612024363023
 102    -8.6589356356666e-06
 103    1.3327645119133e-05
 104    -7.4925371118819e-05
 105    9.2746450016211e-05
 106    0.00022943465193115
 107    6.732388812433e-05
 108    -7.8947217066939e-06
 109    -7.1526517127809e-05
 110    -4.3458218871346e-05
 111    6.9763251210245e-05
 112    4.4404987434424e-05
 113    -2.1821407711862e-05
 114    -7.0513724084761e-05
 115    3.9380732084843e-05
 116    5.3765052888514e-05
 117    -0.00085901656601925
 118    -2.260561852845e-05
 119    3.6258218657302e-05
 120    -2.5601004266701e-05
 121    -0.00031503603634313
 122    -1.8773252822519e-05
 123    0.00013764128802816
 124    8.5632348063856e-06
 125    -1.0232389788996e-05
 126    -1.6370487950434e-05
 127    3.007571254295e-05
 128    -4.8848922194895e-05
 129    1.8312156347453e-05
 130    0.0003213940756903
 131    -8.9322734891006e-06
 132    -6.5409017093582e-06
 133    -2.9081590458338e-05
 134    7.5938649848785e-06
 135    0.00012028407659011
 136    1.5080382153053e-05
 137    2.2428062259631e-05
 138    2.9663565212785e-05
 139    2.1180852070515e-05
 140    3.5465733293758e-05
 141    -0.00029168141656533
 142    6.2468588810436e-07
 143    -1.2509461498315e-06
 144    6.2610692969276e-06
 145    0.0002390138944403
 146    -5.3155145702912e-05
 147    -6.428948030148e-05
 148    2.1369043294925e-06
 149    -3.4446443754756e-06
 150    2.6363827754639e-06
 151    -1.0378451081136e-05
 152    4.9222438627242e-06
 153    8.0833544679481e-05
 154    0.00011716461887662
 155    2.5909257761453e-05
 156    -2.7772503136428e-05
 157    -1.8179199782363e-05
 158    7.3007805228741e-06
 159    8.9049932111031e-05
 160    5.7131340625715e-05
 161    5.685665009704e-06
 162    -4.6994072587443e-06
 163    2.7199947795507e-06
 164    1.1946986264654e-05
 165    0.00023824997052974
 166    2.6534271699857e-05
 167    -2.0363813219755e-05
 168    2.4444488430204e-08
 169    -0.00023166313148055
 170    0.00020995217197846
 171    0.00013353051000731
 172    4.1732765136748e-06
 173    -9.5564339295886e-06
 174    1.3111015442305e-05
 175    -3.9246895782565e-06
 176    1.9155794833638e-05
 177    2.0895252814606e-05
 178    -8.2168802089641e-05
 179    9.5868647311212e-07
 180    -1.987265934717e-06
 181    4.7137678596118e-06
 182    -1.5078398421301e-05
 183    -2.5603385032183e-05
 184    6.6767738360845e-05
 185    3.8420982157908e-06
 186    -4.2038681501799e-06
 187    -3.6955089669798e-06
 188    -0.0001288024391459
 189    0.00010259662798154
 190    8.7029494386417e-05
 191    -1.1319081203531e-06
 192    -1.6265540361114e-06
 193    7.476446151018e-06
 194    2.8105441329946e-06
 195    5.1601436525926e-06
 196    1.0365218900772e-05
 197    1.677457077341e-05
 198    -5.3126768254046e-06
 199    -2.215088388925e-06
 200    3.5572091246859e-06
 201    1.3109026896822e-05
 202    -4.003865708206e-06
 203    1.3278393527256e-05
 204    -1.0435726146246e-05
 205    -1.1624956964311e-05
 206    -8.4702336258816e-06
 207    -6.8856148639313e-05
 208    1.6590703967145e-05
 209    -4.0347855203896e-06
 210    -1.5304495185426e-05
 211    1.7648664081025e-05
 212    2.8521880336329e-05
 213    -0.00025490609486384
 214    -8.2453526374935e-06
 215    3.5224945406607e-06
 216    7.2312596317836e-06
 217    -0.00019789272596429
 218    5.5080195018134e-05
 219    7.6240497515382e-05
 220    1.6948875076785e-06
 221    1.6803181186859e-05
 222    -5.6648888045879e-06
 223    -8.9812975417301e-06
 224    1.2588060414156e-06
 225    -2.4857527748508e-05
 226    -5.4481246123302e-05
 227    1.2249953318472e-05
 228    1.8203317168378e-06
 229    9.691203162843e-07
 230    -8.9108796975617e-06
 231    -5.3006571546276e-05
 232    3.9576464827994e-06
 233    -6.3598593416733e-06
 234    -1.1878728397407e-05
 235    -4.2155573013864e-07
 236    -1.5761481498904e-06
 237    7.7685032244833e-05
 238    -1.3971401809612e-06
 239    -2.6218808053702e-06
 240    2.5727720678727e-06
 241    -3.4931060105357e-05
 242    6.2566410199313e-05
 243    -1.887504354754e-05
 244    -1.8286030816313e-06
 245    -1.9819393090394e-06
 246    1.8807576529362e-06
 247    -1.3156866315932e-07
 248    -8.6636132782673e-07
 249    1.6705863380669e-05
 250    -1.4159012028776e-05
 251    4.5393412038704e-06
 252    1.0640060426101e-06
 253    3.5130605282356e-07
 254    1.5021498152846e-05
 255    -5.6284224152228e-05
 256    -2.894233546088e-08
 257    -4.4263038096013e-06
 258    9.8080098672065e-07
 259    1.1127057606302e-05
 260    2.1172199932396e-05
 261    -7.8764763825271e-05
 262    5.3029896398992e-06
 263    -2.6270595356548e-06