[Molden Format]
made by pyscf v[2.0.1]
[Atoms] (AU)
O   1   8     0.00000000000000     0.00000000000000     6.78435311142442
H   2   1     0.00000000000000     0.00000000000000     4.96095128952346
H   3   1    -0.05031916615174     1.78353065140343     7.16022480789109
O   4   8     0.00000000000000     0.00000000000000     2.31533471513237
C   5   6     0.00000000000000     0.00000000000000     0.00000000000000
C   6   6     2.01118073026938    -1.40227222164369    -1.50774939176400
C   7   6    -2.01249334291722     1.41331050329955    -1.50315905028694
H   8   1     3.32037363730244    -2.26721897153159    -0.13599698591495
C   9   6     3.45899267434009     0.28739631745591    -3.37437943254505
H   10   1     1.07662969841332    -2.94725144642667    -2.56541439481080
H   11   1    -2.67503415753480     0.18421555839588    -3.06194479365997
H   12   1    -1.07974048864772     3.03851734677796    -2.43674295017013
C   13   6    -4.21607110578555     2.32938802552922     0.11994162256091
H   14   1     4.24440173074564     1.93368664142019    -2.34976285512790
H   15   1     2.15020713235517     1.04714335134846    -4.81494497423699
C   16   6     5.60746363007797    -1.12419643481196    -4.70268606082550
H   17   1    -3.46838323670267     3.50951302338067     1.66946842715333
H   18   1    -5.11873485366228     0.68575958301209     1.04047743976495
C   19   6    -6.18314754751344     3.80909592987882    -1.39656589068747
H   20   1     6.93011263717176    -1.87550812453645    -3.26656317360070
C   21   6     7.06356622236532     0.52877932406334    -6.57829775293605
H   22   1     4.82318879258361    -2.78573437948532    -5.70504560381835
H   23   1    -6.91582688743803     2.61304780074712    -2.95074552451969
H   24   1    -5.26532430573853     5.45420349051338    -2.31005832200284
C   25   6    -8.39941882261433     4.73263980500213     0.21800571437956
H   26   1     7.83338371486801     2.19084139882824    -5.57093109900697
H   27   1     5.73544244039420     1.27376866537418    -8.01071492370229
C   28   6     9.21124858443101    -0.89699110072176    -7.88926949186242
H   29   1    -7.66272760055236     5.92277078003992     1.77035591474408
H   30   1    -9.31497248082589     3.08753015622020     1.12614408368786
C   31   6   -10.35481709231879     6.21833079391143    -1.30905206253246
H   32   1    10.58815905329501    -1.61074586756696    -6.49512691622620
H   33   1    10.23506248045667     0.32468009384095    -9.23072870921204
H   34   1     8.47665842847139    -2.53598436989925    -8.94921964622535
H   35   1    -9.48948872868064     7.90013588951020    -2.18823918416067
H   36   1   -11.93332513000955     6.86460487874102    -0.11255798845995
H   37   1   -11.15126291841033     5.04495968327630    -2.83849898862534
[GTO]
1 0
 s    8 1.00
                 11720  0.00070964594651845
                  1759  0.0054672722921914
                 400.8   0.027823118610189
                 113.7    0.10474773971146
                 37.03    0.28292084635691
                 13.27    0.44849523869833
                 5.025    0.27081688521277
                 1.013    0.01545029160744
 s    8 1.00
                 11720  -0.00031444341168873
                  1759  -0.0024821376810179
                 400.8  -0.012316355381583
                 113.7  -0.050538917343672
                 37.03   -0.13938490331632
                 13.27   -0.32507749481778
                 5.025   -0.22984830758785
                 1.013     1.0953793467883
 s    1 1.00
                0.3023                   1
 p    3 1.00
                  17.7   0.062679166281506
                 3.854    0.33353656587936
                 1.046    0.74123964163973
 p    1 1.00
                0.2753                   1
 d    1 1.00
                 1.185                   1

2 0
 s    3 1.00
                 13.01   0.033498726389998
                 1.962    0.23480080117413
                0.4446     0.8136829578829
 s    1 1.00
                 0.122                   1
 p    1 1.00
                 0.727                   1

3 0
 s    3 1.00
                 13.01   0.033498726389998
                 1.962    0.23480080117413
                0.4446     0.8136829578829
 s    1 1.00
                 0.122                   1
 p    1 1.00
                 0.727                   1

4 0
 s    8 1.00
                 11720  0.00070964594651845
                  1759  0.0054672722921914
                 400.8   0.027823118610189
                 113.7    0.10474773971146
                 37.03    0.28292084635691
                 13.27    0.44849523869833
                 5.025    0.27081688521277
                 1.013    0.01545029160744
 s    8 1.00
                 11720  -0.00031444341168873
                  1759  -0.0024821376810179
                 400.8  -0.012316355381583
                 113.7  -0.050538917343672
                 37.03   -0.13938490331632
                 13.27   -0.32507749481778
                 5.025   -0.22984830758785
                 1.013     1.0953793467883
 s    1 1.00
                0.3023                   1
 p    3 1.00
                  17.7   0.062679166281506
                 3.854    0.33353656587936
                 1.046    0.74123964163973
 p    1 1.00
                0.2753                   1
 d    1 1.00
                 1.185                   1

5 0
 s    8 1.00
                  6665  0.00069158396281299
                  1000  0.0053257961529341
                   228   0.027060721042034
                 64.71    0.10165684614077
                 21.06     0.2745748236174
                 7.495    0.44829431892377
                 2.797    0.28490261071525
                0.5215   0.015194859206082
 s    8 1.00
                  6665  -0.00029326965268655
                  1000  -0.0023180354739745
                   228  -0.011499786038565
                 64.71  -0.046826727009787
                 21.06   -0.12846616875047
                 7.495   -0.30126627246289
                 2.797   -0.25563070233011
                0.5215      1.093793361012
 s    1 1.00
                0.1596                   1
 p    3 1.00
                 9.439   0.056979251590039
                 2.002    0.31320721150073
                0.5456    0.76037674173753
 p    1 1.00
                0.1517                   1
 d    1 1.00
                  0.55                   1

6 0
 s    8 1.00
                  6665  0.00069158396281299
                  1000  0.0053257961529341
                   228   0.027060721042034
                 64.71    0.10165684614077
                 21.06     0.2745748236174
                 7.495    0.44829431892377
                 2.797    0.28490261071525
                0.5215   0.015194859206082
 s    8 1.00
                  6665  -0.00029326965268655
                  1000  -0.0023180354739745
                   228  -0.011499786038565
                 64.71  -0.046826727009787
                 21.06   -0.12846616875047
                 7.495   -0.30126627246289
                 2.797   -0.25563070233011
                0.5215      1.093793361012
 s    1 1.00
                0.1596                   1
 p    3 1.00
                 9.439   0.056979251590039
                 2.002    0.31320721150073
                0.5456    0.76037674173753
 p    1 1.00
                0.1517                   1
 d    1 1.00
                  0.55                   1

7 0
 s    8 1.00
                  6665  0.00069158396281299
                  1000  0.0053257961529341
                   228   0.027060721042034
                 64.71    0.10165684614077
                 21.06     0.2745748236174
                 7.495    0.44829431892377
                 2.797    0.28490261071525
                0.5215   0.015194859206082
 s    8 1.00
                  6665  -0.00029326965268655
                  1000  -0.0023180354739745
                   228  -0.011499786038565
                 64.71  -0.046826727009787
                 21.06   -0.12846616875047
                 7.495   -0.30126627246289
                 2.797   -0.25563070233011
                0.5215      1.093793361012
 s    1 1.00
                0.1596                   1
 p    3 1.00
                 9.439   0.056979251590039
                 2.002    0.31320721150073
                0.5456    0.76037674173753
 p    1 1.00
                0.1517                   1
 d    1 1.00
                  0.55                   1

8 0
 s    3 1.00
                 13.01   0.033498726389998
                 1.962    0.23480080117413
                0.4446     0.8136829578829
 s    1 1.00
                 0.122                   1
 p    1 1.00
                 0.727                   1

9 0
 s    8 1.00
                  6665  0.00069158396281299
                  1000  0.0053257961529341
                   228   0.027060721042034
                 64.71    0.10165684614077
                 21.06     0.2745748236174
                 7.495    0.44829431892377
                 2.797    0.28490261071525
                0.5215   0.015194859206082
 s    8 1.00
                  6665  -0.00029326965268655
                  1000  -0.0023180354739745
                   228  -0.011499786038565
                 64.71  -0.046826727009787
                 21.06   -0.12846616875047
                 7.495   -0.30126627246289
                 2.797   -0.25563070233011
                0.5215      1.093793361012
 s    1 1.00
                0.1596                   1
 p    3 1.00
                 9.439   0.056979251590039
                 2.002    0.31320721150073
                0.5456    0.76037674173753
 p    1 1.00
                0.1517                   1
 d    1 1.00
                  0.55                   1

10 0
 s    3 1.00
                 13.01   0.033498726389998
                 1.962    0.23480080117413
                0.4446     0.8136829578829
 s    1 1.00
                 0.122                   1
 p    1 1.00
                 0.727                   1

11 0
 s    3 1.00
                 13.01   0.033498726389998
                 1.962    0.23480080117413
                0.4446     0.8136829578829
 s    1 1.00
                 0.122                   1
 p    1 1.00
                 0.727                   1

12 0
 s    3 1.00
                 13.01   0.033498726389998
                 1.962    0.23480080117413
                0.4446     0.8136829578829
 s    1 1.00
                 0.122                   1
 p    1 1.00
                 0.727                   1

13 0
 s    8 1.00
                  6665  0.00069158396281299
                  1000  0.0053257961529341
                   228   0.027060721042034
                 64.71    0.10165684614077
                 21.06     0.2745748236174
                 7.495    0.44829431892377
                 2.797    0.28490261071525
                0.5215   0.015194859206082
 s    8 1.00
                  6665  -0.00029326965268655
                  1000  -0.0023180354739745
                   228  -0.011499786038565
                 64.71  -0.046826727009787
                 21.06   -0.12846616875047
                 7.495   -0.30126627246289
                 2.797   -0.25563070233011
                0.5215      1.093793361012
 s    1 1.00
                0.1596                   1
 p    3 1.00
                 9.439   0.056979251590039
                 2.002    0.31320721150073
                0.5456    0.76037674173753
 p    1 1.00
                0.1517                   1
 d    1 1.00
                  0.55                   1

14 0
 s    3 1.00
                 13.01   0.033498726389998
                 1.962    0.23480080117413
                0.4446     0.8136829578829
 s    1 1.00
                 0.122                   1
 p    1 1.00
                 0.727                   1

15 0
 s    3 1.00
                 13.01   0.033498726389998
                 1.962    0.23480080117413
                0.4446     0.8136829578829
 s    1 1.00
                 0.122                   1
 p    1 1.00
                 0.727                   1

16 0
 s    8 1.00
                  6665  0.00069158396281299
                  1000  0.0053257961529341
                   228   0.027060721042034
                 64.71    0.10165684614077
                 21.06     0.2745748236174
                 7.495    0.44829431892377
                 2.797    0.28490261071525
                0.5215   0.015194859206082
 s    8 1.00
                  6665  -0.00029326965268655
                  1000  -0.0023180354739745
                   228  -0.011499786038565
                 64.71  -0.046826727009787
                 21.06   -0.12846616875047
                 7.495   -0.30126627246289
                 2.797   -0.25563070233011
                0.5215      1.093793361012
 s    1 1.00
                0.1596                   1
 p    3 1.00
                 9.439   0.056979251590039
                 2.002    0.31320721150073
                0.5456    0.76037674173753
 p    1 1.00
                0.1517                   1
 d    1 1.00
                  0.55                   1

17 0
 s    3 1.00
                 13.01   0.033498726389998
                 1.962    0.23480080117413
                0.4446     0.8136829578829
 s    1 1.00
                 0.122                   1
 p    1 1.00
                 0.727                   1

18 0
 s    3 1.00
                 13.01   0.033498726389998
                 1.962    0.23480080117413
                0.4446     0.8136829578829
 s    1 1.00
                 0.122                   1
 p    1 1.00
                 0.727                   1

19 0
 s    8 1.00
                  6665  0.00069158396281299
                  1000  0.0053257961529341
                   228   0.027060721042034
                 64.71    0.10165684614077
                 21.06     0.2745748236174
                 7.495    0.44829431892377
                 2.797    0.28490261071525
                0.5215   0.015194859206082
 s    8 1.00
                  6665  -0.00029326965268655
                  1000  -0.0023180354739745
                   228  -0.011499786038565
                 64.71  -0.046826727009787
                 21.06   -0.12846616875047
                 7.495   -0.30126627246289
                 2.797   -0.25563070233011
                0.5215      1.093793361012
 s    1 1.00
                0.1596                   1
 p    3 1.00
                 9.439   0.056979251590039
                 2.002    0.31320721150073
                0.5456    0.76037674173753
 p    1 1.00
                0.1517                   1
 d    1 1.00
                  0.55                   1

20 0
 s    3 1.00
                 13.01   0.033498726389998
                 1.962    0.23480080117413
                0.4446     0.8136829578829
 s    1 1.00
                 0.122                   1
 p    1 1.00
                 0.727                   1

21 0
 s    8 1.00
                  6665  0.00069158396281299
                  1000  0.0053257961529341
                   228   0.027060721042034
                 64.71    0.10165684614077
                 21.06     0.2745748236174
                 7.495    0.44829431892377
                 2.797    0.28490261071525
                0.5215   0.015194859206082
 s    8 1.00
                  6665  -0.00029326965268655
                  1000  -0.0023180354739745
                   228  -0.011499786038565
                 64.71  -0.046826727009787
                 21.06   -0.12846616875047
                 7.495   -0.30126627246289
                 2.797   -0.25563070233011
                0.5215      1.093793361012
 s    1 1.00
                0.1596                   1
 p    3 1.00
                 9.439   0.056979251590039
                 2.002    0.31320721150073
                0.5456    0.76037674173753
 p    1 1.00
                0.1517                   1
 d    1 1.00
                  0.55                   1

22 0
 s    3 1.00
                 13.01   0.033498726389998
                 1.962    0.23480080117413
                0.4446     0.8136829578829
 s    1 1.00
                 0.122                   1
 p    1 1.00
                 0.727                   1

23 0
 s    3 1.00
                 13.01   0.033498726389998
                 1.962    0.23480080117413
                0.4446     0.8136829578829
 s    1 1.00
                 0.122                   1
 p    1 1.00
                 0.727                   1

24 0
 s    3 1.00
                 13.01   0.033498726389998
                 1.962    0.23480080117413
                0.4446     0.8136829578829
 s    1 1.00
                 0.122                   1
 p    1 1.00
                 0.727                   1

25 0
 s    8 1.00
                  6665  0.00069158396281299
                  1000  0.0053257961529341
                   228   0.027060721042034
                 64.71    0.10165684614077
                 21.06     0.2745748236174
                 7.495    0.44829431892377
                 2.797    0.28490261071525
                0.5215   0.015194859206082
 s    8 1.00
                  6665  -0.00029326965268655
                  1000  -0.0023180354739745
                   228  -0.011499786038565
                 64.71  -0.046826727009787
                 21.06   -0.12846616875047
                 7.495   -0.30126627246289
                 2.797   -0.25563070233011
                0.5215      1.093793361012
 s    1 1.00
                0.1596                   1
 p    3 1.00
                 9.439   0.056979251590039
                 2.002    0.31320721150073
                0.5456    0.76037674173753
 p    1 1.00
                0.1517                   1
 d    1 1.00
                  0.55                   1

26 0
 s    3 1.00
                 13.01   0.033498726389998
                 1.962    0.23480080117413
                0.4446     0.8136829578829
 s    1 1.00
                 0.122                   1
 p    1 1.00
                 0.727                   1

27 0
 s    3 1.00
                 13.01   0.033498726389998
                 1.962    0.23480080117413
                0.4446     0.8136829578829
 s    1 1.00
                 0.122                   1
 p    1 1.00
                 0.727                   1

28 0
 s    8 1.00
                  6665  0.00069158396281299
                  1000  0.0053257961529341
                   228   0.027060721042034
                 64.71    0.10165684614077
                 21.06     0.2745748236174
                 7.495    0.44829431892377
                 2.797    0.28490261071525
                0.5215   0.015194859206082
 s    8 1.00
                  6665  -0.00029326965268655
                  1000  -0.0023180354739745
                   228  -0.011499786038565
                 64.71  -0.046826727009787
                 21.06   -0.12846616875047
                 7.495   -0.30126627246289
                 2.797   -0.25563070233011
                0.5215      1.093793361012
 s    1 1.00
                0.1596                   1
 p    3 1.00
                 9.439   0.056979251590039
                 2.002    0.31320721150073
                0.5456    0.76037674173753
 p    1 1.00
                0.1517                   1
 d    1 1.00
                  0.55                   1

29 0
 s    3 1.00
                 13.01   0.033498726389998
                 1.962    0.23480080117413
                0.4446     0.8136829578829
 s    1 1.00
                 0.122                   1
 p    1 1.00
                 0.727                   1

30 0
 s    3 1.00
                 13.01   0.033498726389998
                 1.962    0.23480080117413
                0.4446     0.8136829578829
 s    1 1.00
                 0.122                   1
 p    1 1.00
                 0.727                   1

31 0
 s    8 1.00
                  6665  0.00069158396281299
                  1000  0.0053257961529341
                   228   0.027060721042034
                 64.71    0.10165684614077
                 21.06     0.2745748236174
                 7.495    0.44829431892377
                 2.797    0.28490261071525
                0.5215   0.015194859206082
 s    8 1.00
                  6665  -0.00029326965268655
                  1000  -0.0023180354739745
                   228  -0.011499786038565
                 64.71  -0.046826727009787
                 21.06   -0.12846616875047
                 7.495   -0.30126627246289
                 2.797   -0.25563070233011
                0.5215      1.093793361012
 s    1 1.00
                0.1596                   1
 p    3 1.00
                 9.439   0.056979251590039
                 2.002    0.31320721150073
                0.5456    0.76037674173753
 p    1 1.00
                0.1517                   1
 d    1 1.00
                  0.55                   1

32 0
 s    3 1.00
                 13.01   0.033498726389998
                 1.962    0.23480080117413
                0.4446     0.8136829578829
 s    1 1.00
                 0.122                   1
 p    1 1.00
                 0.727                   1

33 0
 s    3 1.00
                 13.01   0.033498726389998
                 1.962    0.23480080117413
                0.4446     0.8136829578829
 s    1 1.00
                 0.122                   1
 p    1 1.00
                 0.727                   1

34 0
 s    3 1.00
                 13.01   0.033498726389998
                 1.962    0.23480080117413
                0.4446     0.8136829578829
 s    1 1.00
                 0.122                   1
 p    1 1.00
                 0.727                   1

35 0
 s    3 1.00
                 13.01   0.033498726389998
                 1.962    0.23480080117413
                0.4446     0.8136829578829
 s    1 1.00
                 0.122                   1
 p    1 1.00
                 0.727                   1

36 0
 s    3 1.00
                 13.01   0.033498726389998
                 1.962    0.23480080117413
                0.4446     0.8136829578829
 s    1 1.00
                 0.122                   1
 p    1 1.00
                 0.727                   1

37 0
 s    3 1.00
                 13.01   0.033498726389998
                 1.962    0.23480080117413
                0.4446     0.8136829578829
 s    1 1.00
                 0.122                   1
 p    1 1.00
                 0.727                   1

[5d]
[7f]
[9g]

[MO]
 Sym= A
 Ene=               0
 Spin= Alpha
 Occup=    1.00000
   1    -7.3025002402608e-05
   2    -2.438995841344e-06
   3    -0.00013077257968762
   4    1.3251841368322e-06
   5    -1.6678557227691e-07
   6    5.5140105029561e-05
   7    -2.0328933016174e-06
   8    -1.5169655010461e-05
   9    0.00013916090348619
  10    -6.1218707822195e-05
  11    -2.7559819529259e-07
  12    2.8815509536006e-06
  13    4.6758377450045e-06
  14    2.0480067654154e-07
  15    4.8014475629526e-05
  16    -0.00012182784012096
  17    -1.4233145626384e-06
  18    5.0357960082297e-06
  19    0.00016065688267124
  20    2.8266673346148e-05
  21    -8.6054690473157e-06
  22    2.4073700471582e-07
  23    5.9924332882554e-06
  24    -9.9481918821831e-06
  25       1.0014129066856
  26     0.002115044361284
  27    -0.007041692308243
  28    -5.3336610956549e-06
  29    1.5338336421045e-05
  30    -0.0015527519736064
  31    -3.572330387324e-07
  32    -5.6018551681857e-06
  33    0.0021322675329369
  34    0.00013905267778988
  35    -2.6436850314839e-06
  36    1.0455321298782e-06
  37    6.2124604151362e-05
  38    -0.00016279401142873
  39    0.00030060142963016
  40    0.00044371886547106
  41    0.0017374545099342
  42    1.7235276742857e-05
  43    -9.2512444520219e-06
  44    3.428144541863e-05
  45    8.235110639047e-05
  46    -6.3949053031045e-05
  47    0.0037273411814025
  48    -0.00050016124049646
  49    -8.4331457748394e-06
  50    1.220066749224e-06
  51    3.5322843538527e-05
  52    -0.00012390812201477
  53    -7.908204748735e-05
  54    -0.00016267453323502
  55    0.0013739642224348
  56    0.00010928466538811
  57    -2.5481838611492e-05
  58    5.8098971297625e-05
  59    -0.00039113009590217
  60    0.00046271870475599
  61    -0.00095314656649072
  62    -0.00011462886377874
  63    0.00015585716678528
  64    -0.0001457891005508
  65    5.6308413992085e-05
  66    -0.00013023018642362
  67    -3.1504705047142e-05
  68    -9.7583723937098e-05
  69    0.00049027948049707
  70    -8.5632468816104e-05
  71    6.5279154008798e-05
  72    2.963878163383e-05
  73    0.00099672557744687
  74    -0.0007624856313091
  75    -0.00063911941351027
  76    -0.00013732691251392
  77    -0.00012909108324989
  78    9.0753916633697e-05
  79    6.1305635942244e-05
  80    -0.00015179074831093
  81    1.5298736402734e-05
  82    0.0002355705321361
  83    6.4546331351726e-05
  84    -4.7371386734476e-05
  85    4.5917152131564e-05
  86    1.3278213506821e-05
  87    1.0390305208934e-05
  88    -0.00064485815417387
  89    2.9973846324986e-05
  90    -2.3757742707262e-06
  91    5.8603167262525e-06
  92    0.00028564245529435
  93    0.00066173778956126
  94    -2.3139054432051e-05
  95    2.1606249204834e-05
  96    1.2146428630899e-05
  97    9.9243240932823e-06
  98    -1.9558112808515e-05
  99    -5.3089349847002e-05
 100    -8.2411401610259e-05
 101    -0.00018419767277213
 102     4.12908275628e-06
 103    -1.3968184004858e-05
 104    7.8643236236773e-05
 105    -8.9592940660446e-05
 106    -0.00023381289153047
 107    -6.5705252945006e-05
 108    2.8777567833592e-06
 109    7.4949301455021e-05
 110    4.8771894705078e-05
 111    -8.2170932821151e-05
 112    -4.2033579390534e-05
 113    2.4047821451116e-05
 114    7.3191613946224e-05
 115    -4.1064058106375e-05
 116    -5.6292892134293e-05
 117    0.00092004277535972
 118    2.3626925194468e-05
 119    -3.7513715232932e-05
 120    2.823316271791e-05
 121    0.00029428979803908
 122    3.4479038958041e-05
 123    -0.00017108197718126
 124    -7.4074770974453e-06
 125    9.2929783300869e-06
 126    1.4762911983177e-05
 127    -3.0599046112053e-05
 128    5.0229936860364e-05
 129    -1.6467748563342e-05
 130    -0.0003398133540403
 131    9.5255392981941e-06
 132    6.4262617400559e-06
 133    2.9961814104534e-05
 134    -8.3348596990481e-06
 135    -0.00011685923041739
 136    -1.6377934243264e-05
 137    -2.3799031326878e-05
 138    -2.9169326056218e-05
 139    -2.1133095558909e-05
 140    -3.5772167260808e-05
 141    0.00030325762372206
 142    -6.0455676364527e-07
 143    -8.8190594189363e-08
 144    -6.5368605266717e-06
 145    -0.00022754819296074
 146    6.4450644470046e-05
 147    5.6200500507492e-05
 148    -2.1472378514143e-06
 149    4.2493159364772e-06
 150    -4.3142753414415e-06
 151    1.0924230826523e-05
 152    -4.1556985553626e-06
 153    -8.0783237474117e-05
 154    -0.00010222728861741
 155    -2.6331842016415e-05
 156    2.5651298496752e-05
 157    1.7952539181269e-05
 158    -6.755414449131e-06
 159    -9.0977559615607e-05
 160    -5.6915100496146e-05
 161    -6.9494348958756e-06
 162    6.4230806687902e-06
 163    1.2379341011617e-06
 164    -5.3940009467492e-06
 165    -0.00029414662579208
 166    -2.7505537122126e-05
 167    2.0987721360938e-05
 168    -6.4781343985886e-07
 169    0.00021006824759461
 170    -0.00019585558799621
 171    -0.00014845723188204
 172    -2.8543103287868e-06
 173    8.7708321513402e-06
 174    -1.2514935047805e-05
 175    3.2613780398112e-06
 176    -1.7478487194918e-05
 177    -2.1910274208333e-05
 178    8.490812323152e-05
 179    -2.072028321716e-06
 180    1.192501940034e-06
 181    -4.0804582423506e-06
 182    1.6586995155093e-05
 183    2.8298852710156e-05
 184    -8.4199457465061e-05
 185    -3.5666421587785e-06
 186    4.6273544148441e-06
 187    3.7141706080305e-06
 188    0.00013489527833732
 189    -0.00010320044372153
 190    -0.00010086716306568
 191    7.1499663848364e-07
 192    2.1175084303575e-06
 193    -7.1272977528517e-06
 194    -2.6165163383436e-06
 195    -5.9381021240958e-06
 196    -7.7004882038715e-06
 197    -1.6026287032565e-05
 198    4.9789571318005e-06
 199    2.1768777322637e-06
 200    -2.9934726161663e-06
 201    -1.091152592882e-05
 202    1.051231033429e-06
 203    -1.3221487020794e-05
 204    9.7755967875186e-06
 205    1.1470603419179e-05
 206    1.073699021003e-05
 207    7.0606947896614e-05
 208    -1.5752035631356e-05
 209    3.542287009924e-06
 210    1.575880699403e-05
 211    -1.8293201635736e-05
 212    -2.9645870250451e-05
 213    0.00026661974254934
 214    8.7860464900616e-06
 215    -3.626596061612e-06
 216    -7.3751305626855e-06
 217    0.0001972519197598
 218    -5.3749377385369e-05
 219    -7.9692894525127e-05
 220    -1.7733880734078e-06
 221    -1.6796330779868e-05
 222    5.6630833675255e-06
 223    9.2460128112166e-06
 224    -1.411814766995e-06
 225    2.7114506403519e-05
 226    5.9344155234527e-05
 227    -1.2808525621298e-05
 228    -2.2625539197577e-06
 229    -8.005336382631e-07
 230    9.464979636052e-06
 231    5.0649718956059e-05
 232    -4.2960716104764e-06
 233    6.7697067317863e-06
 234     1.22052370713e-05
 235    1.0297566320888e-06
 236    2.6291658467421e-06
 237    -8.2892966081884e-05
 238    1.2925066278987e-06
 239    2.5468185898973e-06
 240    -2.5280772664681e-06
 241    3.9525878535296e-05
 242    -6.3828822298324e-05
 243    1.8129939654988e-05
 244    2.0364070793025e-06
 245    2.246222563173e-06
 246    -1.7331921164975e-06
 247    -1.2460394318463e-07
 248    1.0440182562854e-06
 249    -1.6596961443491e-05
 250    1.1945764655762e-05
 251    -4.3693667826318e-06
 252    -1.0148250110812e-06
 253    -1.5469417001265e-07
 254    -1.578329899782e-05
 255    5.8055923861371e-05
 256    5.381253825293e-07
 257    4.4008176803348e-06
 258    -9.6854844601475e-07
 259    -9.9684515191702e-06
 260    -1.9135552573368e-05
 261    6.9153047426538e-05
 262    -5.1873968134399e-06