[Molden Format]
made by pyscf v[2.0.1]
[Atoms] (AU)
O   1   8     0.00000000000000     0.00000000000000    10.94175058546756
H   2   1     0.00000000000000     0.00000000000000     9.11834876356659
H   3   1    -0.05031916615174     1.78353065140343    11.31762228193423
O   4   8     0.00000000000000     0.00000000000000     2.31533471513237
C   5   6     0.00000000000000     0.00000000000000     0.00000000000000
C   6   6     2.01118073026938    -1.40227222164369    -1.50774939176400
C   7   6    -2.01249334291722     1.41331050329955    -1.50315905028694
H   8   1     3.32037363730244    -2.26721897153159    -0.13599698591495
C   9   6     3.45899267434009     0.28739631745591    -3.37437943254505
H   10   1     1.07662969841332    -2.94725144642667    -2.56541439481080
H   11   1    -2.67503415753480     0.18421555839588    -3.06194479365997
H   12   1    -1.07974048864772     3.03851734677796    -2.43674295017013
C   13   6    -4.21607110578555     2.32938802552922     0.11994162256091
H   14   1     4.24440173074564     1.93368664142019    -2.34976285512790
H   15   1     2.15020713235517     1.04714335134846    -4.81494497423699
C   16   6     5.60746363007797    -1.12419643481196    -4.70268606082550
H   17   1    -3.46838323670267     3.50951302338067     1.66946842715333
H   18   1    -5.11873485366228     0.68575958301209     1.04047743976495
C   19   6    -6.18314754751344     3.80909592987882    -1.39656589068747
H   20   1     6.93011263717176    -1.87550812453645    -3.26656317360070
C   21   6     7.06356622236532     0.52877932406334    -6.57829775293605
H   22   1     4.82318879258361    -2.78573437948532    -5.70504560381835
H   23   1    -6.91582688743803     2.61304780074712    -2.95074552451969
H   24   1    -5.26532430573853     5.45420349051338    -2.31005832200284
C   25   6    -8.39941882261433     4.73263980500213     0.21800571437956
H   26   1     7.83338371486801     2.19084139882824    -5.57093109900697
H   27   1     5.73544244039420     1.27376866537418    -8.01071492370229
C   28   6     9.21124858443101    -0.89699110072176    -7.88926949186242
H   29   1    -7.66272760055236     5.92277078003992     1.77035591474408
H   30   1    -9.31497248082589     3.08753015622020     1.12614408368786
C   31   6   -10.35481709231879     6.21833079391143    -1.30905206253246
H   32   1    10.58815905329501    -1.61074586756696    -6.49512691622620
H   33   1    10.23506248045667     0.32468009384095    -9.23072870921204
H   34   1     8.47665842847139    -2.53598436989925    -8.94921964622535
H   35   1    -9.48948872868064     7.90013588951020    -2.18823918416067
H   36   1   -11.93332513000955     6.86460487874102    -0.11255798845995
H   37   1   -11.15126291841033     5.04495968327630    -2.83849898862534
[GTO]
1 0
 s    8 1.00
                 11720  0.00070964594651845
                  1759  0.0054672722921914
                 400.8   0.027823118610189
                 113.7    0.10474773971146
                 37.03    0.28292084635691
                 13.27    0.44849523869833
                 5.025    0.27081688521277
                 1.013    0.01545029160744
 s    8 1.00
                 11720  -0.00031444341168873
                  1759  -0.0024821376810179
                 400.8  -0.012316355381583
                 113.7  -0.050538917343672
                 37.03   -0.13938490331632
                 13.27   -0.32507749481778
                 5.025   -0.22984830758785
                 1.013     1.0953793467883
 s    1 1.00
                0.3023                   1
 p    3 1.00
                  17.7   0.062679166281506
                 3.854    0.33353656587936
                 1.046    0.74123964163973
 p    1 1.00
                0.2753                   1
 d    1 1.00
                 1.185                   1

2 0
 s    3 1.00
                 13.01   0.033498726389998
                 1.962    0.23480080117413
                0.4446     0.8136829578829
 s    1 1.00
                 0.122                   1
 p    1 1.00
                 0.727                   1

3 0
 s    3 1.00
                 13.01   0.033498726389998
                 1.962    0.23480080117413
                0.4446     0.8136829578829
 s    1 1.00
                 0.122                   1
 p    1 1.00
                 0.727                   1

4 0
 s    8 1.00
                 11720  0.00070964594651845
                  1759  0.0054672722921914
                 400.8   0.027823118610189
                 113.7    0.10474773971146
                 37.03    0.28292084635691
                 13.27    0.44849523869833
                 5.025    0.27081688521277
                 1.013    0.01545029160744
 s    8 1.00
                 11720  -0.00031444341168873
                  1759  -0.0024821376810179
                 400.8  -0.012316355381583
                 113.7  -0.050538917343672
                 37.03   -0.13938490331632
                 13.27   -0.32507749481778
                 5.025   -0.22984830758785
                 1.013     1.0953793467883
 s    1 1.00
                0.3023                   1
 p    3 1.00
                  17.7   0.062679166281506
                 3.854    0.33353656587936
                 1.046    0.74123964163973
 p    1 1.00
                0.2753                   1
 d    1 1.00
                 1.185                   1

5 0
 s    8 1.00
                  6665  0.00069158396281299
                  1000  0.0053257961529341
                   228   0.027060721042034
                 64.71    0.10165684614077
                 21.06     0.2745748236174
                 7.495    0.44829431892377
                 2.797    0.28490261071525
                0.5215   0.015194859206082
 s    8 1.00
                  6665  -0.00029326965268655
                  1000  -0.0023180354739745
                   228  -0.011499786038565
                 64.71  -0.046826727009787
                 21.06   -0.12846616875047
                 7.495   -0.30126627246289
                 2.797   -0.25563070233011
                0.5215      1.093793361012
 s    1 1.00
                0.1596                   1
 p    3 1.00
                 9.439   0.056979251590039
                 2.002    0.31320721150073
                0.5456    0.76037674173753
 p    1 1.00
                0.1517                   1
 d    1 1.00
                  0.55                   1

6 0
 s    8 1.00
                  6665  0.00069158396281299
                  1000  0.0053257961529341
                   228   0.027060721042034
                 64.71    0.10165684614077
                 21.06     0.2745748236174
                 7.495    0.44829431892377
                 2.797    0.28490261071525
                0.5215   0.015194859206082
 s    8 1.00
                  6665  -0.00029326965268655
                  1000  -0.0023180354739745
                   228  -0.011499786038565
                 64.71  -0.046826727009787
                 21.06   -0.12846616875047
                 7.495   -0.30126627246289
                 2.797   -0.25563070233011
                0.5215      1.093793361012
 s    1 1.00
                0.1596                   1
 p    3 1.00
                 9.439   0.056979251590039
                 2.002    0.31320721150073
                0.5456    0.76037674173753
 p    1 1.00
                0.1517                   1
 d    1 1.00
                  0.55                   1

7 0
 s    8 1.00
                  6665  0.00069158396281299
                  1000  0.0053257961529341
                   228   0.027060721042034
                 64.71    0.10165684614077
                 21.06     0.2745748236174
                 7.495    0.44829431892377
                 2.797    0.28490261071525
                0.5215   0.015194859206082
 s    8 1.00
                  6665  -0.00029326965268655
                  1000  -0.0023180354739745
                   228  -0.011499786038565
                 64.71  -0.046826727009787
                 21.06   -0.12846616875047
                 7.495   -0.30126627246289
                 2.797   -0.25563070233011
                0.5215      1.093793361012
 s    1 1.00
                0.1596                   1
 p    3 1.00
                 9.439   0.056979251590039
                 2.002    0.31320721150073
                0.5456    0.76037674173753
 p    1 1.00
                0.1517                   1
 d    1 1.00
                  0.55                   1

8 0
 s    3 1.00
                 13.01   0.033498726389998
                 1.962    0.23480080117413
                0.4446     0.8136829578829
 s    1 1.00
                 0.122                   1
 p    1 1.00
                 0.727                   1

9 0
 s    8 1.00
                  6665  0.00069158396281299
                  1000  0.0053257961529341
                   228   0.027060721042034
                 64.71    0.10165684614077
                 21.06     0.2745748236174
                 7.495    0.44829431892377
                 2.797    0.28490261071525
                0.5215   0.015194859206082
 s    8 1.00
                  6665  -0.00029326965268655
                  1000  -0.0023180354739745
                   228  -0.011499786038565
                 64.71  -0.046826727009787
                 21.06   -0.12846616875047
                 7.495   -0.30126627246289
                 2.797   -0.25563070233011
                0.5215      1.093793361012
 s    1 1.00
                0.1596                   1
 p    3 1.00
                 9.439   0.056979251590039
                 2.002    0.31320721150073
                0.5456    0.76037674173753
 p    1 1.00
                0.1517                   1
 d    1 1.00
                  0.55                   1

10 0
 s    3 1.00
                 13.01   0.033498726389998
                 1.962    0.23480080117413
                0.4446     0.8136829578829
 s    1 1.00
                 0.122                   1
 p    1 1.00
                 0.727                   1

11 0
 s    3 1.00
                 13.01   0.033498726389998
                 1.962    0.23480080117413
                0.4446     0.8136829578829
 s    1 1.00
                 0.122                   1
 p    1 1.00
                 0.727                   1

12 0
 s    3 1.00
                 13.01   0.033498726389998
                 1.962    0.23480080117413
                0.4446     0.8136829578829
 s    1 1.00
                 0.122                   1
 p    1 1.00
                 0.727                   1

13 0
 s    8 1.00
                  6665  0.00069158396281299
                  1000  0.0053257961529341
                   228   0.027060721042034
                 64.71    0.10165684614077
                 21.06     0.2745748236174
                 7.495    0.44829431892377
                 2.797    0.28490261071525
                0.5215   0.015194859206082
 s    8 1.00
                  6665  -0.00029326965268655
                  1000  -0.0023180354739745
                   228  -0.011499786038565
                 64.71  -0.046826727009787
                 21.06   -0.12846616875047
                 7.495   -0.30126627246289
                 2.797   -0.25563070233011
                0.5215      1.093793361012
 s    1 1.00
                0.1596                   1
 p    3 1.00
                 9.439   0.056979251590039
                 2.002    0.31320721150073
                0.5456    0.76037674173753
 p    1 1.00
                0.1517                   1
 d    1 1.00
                  0.55                   1

14 0
 s    3 1.00
                 13.01   0.033498726389998
                 1.962    0.23480080117413
                0.4446     0.8136829578829
 s    1 1.00
                 0.122                   1
 p    1 1.00
                 0.727                   1

15 0
 s    3 1.00
                 13.01   0.033498726389998
                 1.962    0.23480080117413
                0.4446     0.8136829578829
 s    1 1.00
                 0.122                   1
 p    1 1.00
                 0.727                   1

16 0
 s    8 1.00
                  6665  0.00069158396281299
                  1000  0.0053257961529341
                   228   0.027060721042034
                 64.71    0.10165684614077
                 21.06     0.2745748236174
                 7.495    0.44829431892377
                 2.797    0.28490261071525
                0.5215   0.015194859206082
 s    8 1.00
                  6665  -0.00029326965268655
                  1000  -0.0023180354739745
                   228  -0.011499786038565
                 64.71  -0.046826727009787
                 21.06   -0.12846616875047
                 7.495   -0.30126627246289
                 2.797   -0.25563070233011
                0.5215      1.093793361012
 s    1 1.00
                0.1596                   1
 p    3 1.00
                 9.439   0.056979251590039
                 2.002    0.31320721150073
                0.5456    0.76037674173753
 p    1 1.00
                0.1517                   1
 d    1 1.00
                  0.55                   1

17 0
 s    3 1.00
                 13.01   0.033498726389998
                 1.962    0.23480080117413
                0.4446     0.8136829578829
 s    1 1.00
                 0.122                   1
 p    1 1.00
                 0.727                   1

18 0
 s    3 1.00
                 13.01   0.033498726389998
                 1.962    0.23480080117413
                0.4446     0.8136829578829
 s    1 1.00
                 0.122                   1
 p    1 1.00
                 0.727                   1

19 0
 s    8 1.00
                  6665  0.00069158396281299
                  1000  0.0053257961529341
                   228   0.027060721042034
                 64.71    0.10165684614077
                 21.06     0.2745748236174
                 7.495    0.44829431892377
                 2.797    0.28490261071525
                0.5215   0.015194859206082
 s    8 1.00
                  6665  -0.00029326965268655
                  1000  -0.0023180354739745
                   228  -0.011499786038565
                 64.71  -0.046826727009787
                 21.06   -0.12846616875047
                 7.495   -0.30126627246289
                 2.797   -0.25563070233011
                0.5215      1.093793361012
 s    1 1.00
                0.1596                   1
 p    3 1.00
                 9.439   0.056979251590039
                 2.002    0.31320721150073
                0.5456    0.76037674173753
 p    1 1.00
                0.1517                   1
 d    1 1.00
                  0.55                   1

20 0
 s    3 1.00
                 13.01   0.033498726389998
                 1.962    0.23480080117413
                0.4446     0.8136829578829
 s    1 1.00
                 0.122                   1
 p    1 1.00
                 0.727                   1

21 0
 s    8 1.00
                  6665  0.00069158396281299
                  1000  0.0053257961529341
                   228   0.027060721042034
                 64.71    0.10165684614077
                 21.06     0.2745748236174
                 7.495    0.44829431892377
                 2.797    0.28490261071525
                0.5215   0.015194859206082
 s    8 1.00
                  6665  -0.00029326965268655
                  1000  -0.0023180354739745
                   228  -0.011499786038565
                 64.71  -0.046826727009787
                 21.06   -0.12846616875047
                 7.495   -0.30126627246289
                 2.797   -0.25563070233011
                0.5215      1.093793361012
 s    1 1.00
                0.1596                   1
 p    3 1.00
                 9.439   0.056979251590039
                 2.002    0.31320721150073
                0.5456    0.76037674173753
 p    1 1.00
                0.1517                   1
 d    1 1.00
                  0.55                   1

22 0
 s    3 1.00
                 13.01   0.033498726389998
                 1.962    0.23480080117413
                0.4446     0.8136829578829
 s    1 1.00
                 0.122                   1
 p    1 1.00
                 0.727                   1

23 0
 s    3 1.00
                 13.01   0.033498726389998
                 1.962    0.23480080117413
                0.4446     0.8136829578829
 s    1 1.00
                 0.122                   1
 p    1 1.00
                 0.727                   1

24 0
 s    3 1.00
                 13.01   0.033498726389998
                 1.962    0.23480080117413
                0.4446     0.8136829578829
 s    1 1.00
                 0.122                   1
 p    1 1.00
                 0.727                   1

25 0
 s    8 1.00
                  6665  0.00069158396281299
                  1000  0.0053257961529341
                   228   0.027060721042034
                 64.71    0.10165684614077
                 21.06     0.2745748236174
                 7.495    0.44829431892377
                 2.797    0.28490261071525
                0.5215   0.015194859206082
 s    8 1.00
                  6665  -0.00029326965268655
                  1000  -0.0023180354739745
                   228  -0.011499786038565
                 64.71  -0.046826727009787
                 21.06   -0.12846616875047
                 7.495   -0.30126627246289
                 2.797   -0.25563070233011
                0.5215      1.093793361012
 s    1 1.00
                0.1596                   1
 p    3 1.00
                 9.439   0.056979251590039
                 2.002    0.31320721150073
                0.5456    0.76037674173753
 p    1 1.00
                0.1517                   1
 d    1 1.00
                  0.55                   1

26 0
 s    3 1.00
                 13.01   0.033498726389998
                 1.962    0.23480080117413
                0.4446     0.8136829578829
 s    1 1.00
                 0.122                   1
 p    1 1.00
                 0.727                   1

27 0
 s    3 1.00
                 13.01   0.033498726389998
                 1.962    0.23480080117413
                0.4446     0.8136829578829
 s    1 1.00
                 0.122                   1
 p    1 1.00
                 0.727                   1

28 0
 s    8 1.00
                  6665  0.00069158396281299
                  1000  0.0053257961529341
                   228   0.027060721042034
                 64.71    0.10165684614077
                 21.06     0.2745748236174
                 7.495    0.44829431892377
                 2.797    0.28490261071525
                0.5215   0.015194859206082
 s    8 1.00
                  6665  -0.00029326965268655
                  1000  -0.0023180354739745
                   228  -0.011499786038565
                 64.71  -0.046826727009787
                 21.06   -0.12846616875047
                 7.495   -0.30126627246289
                 2.797   -0.25563070233011
                0.5215      1.093793361012
 s    1 1.00
                0.1596                   1
 p    3 1.00
                 9.439   0.056979251590039
                 2.002    0.31320721150073
                0.5456    0.76037674173753
 p    1 1.00
                0.1517                   1
 d    1 1.00
                  0.55                   1

29 0
 s    3 1.00
                 13.01   0.033498726389998
                 1.962    0.23480080117413
                0.4446     0.8136829578829
 s    1 1.00
                 0.122                   1
 p    1 1.00
                 0.727                   1

30 0
 s    3 1.00
                 13.01   0.033498726389998
                 1.962    0.23480080117413
                0.4446     0.8136829578829
 s    1 1.00
                 0.122                   1
 p    1 1.00
                 0.727                   1

31 0
 s    8 1.00
                  6665  0.00069158396281299
                  1000  0.0053257961529341
                   228   0.027060721042034
                 64.71    0.10165684614077
                 21.06     0.2745748236174
                 7.495    0.44829431892377
                 2.797    0.28490261071525
                0.5215   0.015194859206082
 s    8 1.00
                  6665  -0.00029326965268655
                  1000  -0.0023180354739745
                   228  -0.011499786038565
                 64.71  -0.046826727009787
                 21.06   -0.12846616875047
                 7.495   -0.30126627246289
                 2.797   -0.25563070233011
                0.5215      1.093793361012
 s    1 1.00
                0.1596                   1
 p    3 1.00
                 9.439   0.056979251590039
                 2.002    0.31320721150073
                0.5456    0.76037674173753
 p    1 1.00
                0.1517                   1
 d    1 1.00
                  0.55                   1

32 0
 s    3 1.00
                 13.01   0.033498726389998
                 1.962    0.23480080117413
                0.4446     0.8136829578829
 s    1 1.00
                 0.122                   1
 p    1 1.00
                 0.727                   1

33 0
 s    3 1.00
                 13.01   0.033498726389998
                 1.962    0.23480080117413
                0.4446     0.8136829578829
 s    1 1.00
                 0.122                   1
 p    1 1.00
                 0.727                   1

34 0
 s    3 1.00
                 13.01   0.033498726389998
                 1.962    0.23480080117413
                0.4446     0.8136829578829
 s    1 1.00
                 0.122                   1
 p    1 1.00
                 0.727                   1

35 0
 s    3 1.00
                 13.01   0.033498726389998
                 1.962    0.23480080117413
                0.4446     0.8136829578829
 s    1 1.00
                 0.122                   1
 p    1 1.00
                 0.727                   1

36 0
 s    3 1.00
                 13.01   0.033498726389998
                 1.962    0.23480080117413
                0.4446     0.8136829578829
 s    1 1.00
                 0.122                   1
 p    1 1.00
                 0.727                   1

37 0
 s    3 1.00
                 13.01   0.033498726389998
                 1.962    0.23480080117413
                0.4446     0.8136829578829
 s    1 1.00
                 0.122                   1
 p    1 1.00
                 0.727                   1

[5d]
[7f]
[9g]

[MO]
 Sym= A
 Ene=               0
 Spin= Alpha
 Occup=    1.00000
   1    -2.4504835903658e-05
   2    -1.5924113481697e-05
   3    6.2037548231558e-05
   4    -5.5770822704997e-08
   5    2.3441340084442e-06
   6    -2.167420395894e-07
   7    3.8467244434821e-07
   8    -1.4036186126838e-05
   9    -4.6330401178708e-05
  10    8.7289089087534e-06
  11     1.33903119894e-08
  12    -6.3620872334307e-07
  13    5.6638348403157e-07
  14    3.0823693470885e-08
  15    -7.6948847600459e-06
  16    -9.1405380143294e-05
  17    -4.0260764192259e-08
  18    8.7706910393844e-07
  19    -2.7357806041267e-05
  20    -3.5440385031913e-06
  21    3.749203012213e-05
  22    1.3260899466123e-07
  23    -4.5498223601022e-06
  24    1.359194346662e-06
  25       1.0013593083647
  26    0.0019364364363073
  27    -0.0067774006940649
  28    -4.5379033284656e-06
  29    6.1787499386614e-06
  30    -0.0016422586212431
  31    -1.9072557001459e-06
  32    -2.0304659509198e-06
  33    0.0018235632347906
  34    0.00012919284503996
  35    -3.014376991517e-06
  36    1.2824122751406e-06
  37    6.7754266074895e-05
  38    -0.00017646505920044
  39    0.00027239608799893
  40    0.00038655212909527
  41    0.0014125947051743
  42    1.5397202309571e-05
  43    -8.5575288834187e-06
  44    -3.3520183051618e-05
  45    9.3377803397686e-05
  46    -6.8281289263401e-05
  47    0.0035260962159284
  48    -0.00054872447379059
  49    -9.3192656683019e-06
  50    1.9030366815126e-06
  51    3.0660886195352e-05
  52    -0.00011198763785872
  53    -8.066499747265e-05
  54    -0.00016470706749493
  55     0.001360977181273
  56    0.00010643148304518
  57    -2.389366726778e-05
  58     6.02005015106e-05
  59    -0.00040671290063869
  60    0.00046355579921083
  61    -0.00088054959009404
  62    -0.00011929361974956
  63    0.00015323093871621
  64    -0.0001424615587547
  65    5.787925818954e-05
  66    -0.00013596324219035
  67    -3.6873214459084e-05
  68    -0.00010572807719992
  69    0.00053089862016616
  70    -8.1774446647865e-05
  71    6.1971581450143e-05
  72    3.4503788303452e-05
  73    0.00098519840142509
  74    -0.00075896732017159
  75    -0.00058085110612136
  76    -0.00014248624231997
  77    -0.0001250342899454
  78    8.8774596269986e-05
  79    6.3101565414096e-05
  80    -0.00015720385644898
  81    1.1658540632405e-05
  82    0.0002315711457021
  83    6.2272580522031e-05
  84    -4.5521805573592e-05
  85    4.6840034213023e-05
  86    1.3014633039261e-05
  87    8.943546418523e-06
  88    -0.00062894950586637
  89    3.1334344412003e-05
  90    -1.9016175012046e-06
  91    5.4609785503807e-06
  92    0.00027729811083828
  93    0.00063291239201461
  94    -2.2040239089488e-05
  95    2.026579436833e-05
  96    1.1922433978476e-05
  97    8.8422399556649e-06
  98    -2.182114080718e-05
  99    -4.8161204595121e-05
 100    -8.1584222239422e-05
 101    -0.00017556200137555
 102    8.9047487959204e-06
 103    -1.3247918431323e-05
 104    7.4705042873022e-05
 105    -9.2461189660564e-05
 106    -0.00022892222772892
 107    -6.7383060802273e-05
 108    8.1734518967247e-06
 109    7.1409692412097e-05
 110    4.3497982163336e-05
 111    -6.9050798925299e-05
 112    -4.4534591337376e-05
 113    2.1669594163635e-05
 114    7.0379702785386e-05
 115    -3.954797141048e-05
 116    -5.4144623653376e-05
 117    0.00085776766603677
 118    2.2347575850446e-05
 119    -3.6089430764218e-05
 120    2.5609519528667e-05
 121    0.00031667063680162
 122    1.8154421034708e-05
 123    -0.00013529012182202
 124    -8.5731210516641e-06
 125    1.0361781648608e-05
 126    1.6521173984281e-05
 127    -3.0107228611646e-05
 128    4.8829634694448e-05
 129    -1.8224969792266e-05
 130    -0.00032019433920823
 131    8.8783288015223e-06
 132    6.5264840962899e-06
 133    2.9041287646173e-05
 134    -7.5008602561084e-06
 135    -0.00012043573468485
 136    -1.5052880290631e-05
 137    -2.2329193065216e-05
 138    -2.9594699232715e-05
 139    -2.1112344883337e-05
 140    -3.5350506656757e-05
 141    0.00029017137360936
 142    -5.8879076728139e-07
 143    1.2797511153055e-06
 144    -6.2748586505059e-06
 145    -0.00023880124815199
 146    5.2503260956428e-05
 147    6.4649181665529e-05
 148    -2.1192762232819e-06
 149    3.4313585768984e-06
 150    -2.5590500266289e-06
 151    1.0320004847566e-05
 152    -4.9357423053991e-06
 153    -8.0973489955649e-05
 154    -0.0001189941835836
 155    -2.5809057899151e-05
 156    2.8005178334189e-05
 157    1.8365943567976e-05
 158    -7.3817231727249e-06
 159    -8.9243657539252e-05
 160    -5.7208763802956e-05
 161    -5.6788420005531e-06
 162    4.6090860386295e-06
 163    -2.8986445751321e-06
 164    -1.2249717300479e-05
 165    -0.00023553737626959
 166    -2.6466035791897e-05
 167    2.0340278577213e-05
 168    -2.0577704441347e-08
 169    0.00023235600710208
 170    -0.0002107273255196
 171    -0.00013265303188093
 172    -4.2295899664088e-06
 173    9.5777224979415e-06
 174    -1.314174482074e-05
 175    3.9406010132886e-06
 176    -1.9235310441546e-05
 177    -2.0843783330498e-05
 178    8.1880388086007e-05
 179    -9.168625570835e-07
 180    2.0137902207708e-06
 181    -4.7325037764246e-06
 182    1.4995587979839e-05
 183    2.5463450841549e-05
 184    -6.5770122995543e-05
 185    -3.8622552462607e-06
 186    4.1764761087019e-06
 187    3.713417071029e-06
 188    0.00012841933433214
 189    -0.00010262799420425
 190    -8.6491949119419e-05
 191    1.1382100046463e-06
 192    1.5997934151112e-06
 193    -7.4854580447279e-06
 194    -2.8151878959607e-06
 195    -5.1157985368329e-06
 196    -1.0418182619331e-05
 197    -1.6711913685016e-05
 198    5.3109794627793e-06
 199    2.218984136543e-06
 200    -3.5881062972434e-06
 201    -1.3188485140369e-05
 202    4.1635402757301e-06
 203    -1.3245940793236e-05
 204    1.0468425288998e-05
 205    1.1632573876436e-05
 206    8.4252806435678e-06
 207      6.8919647891e-05
 208    -1.6622429459101e-05
 209    4.0461623434482e-06
 210    1.5282711897994e-05
 211    -1.7580081969287e-05
 212    -2.8412184626339e-05
 213    0.00025375738850465
 214    8.1749168964661e-06
 215    -3.5030671555237e-06
 216    -7.222770577076e-06
 217    0.0001980335511688
 218    -5.5142260829261e-05
 219    -7.6036486673183e-05
 220    -1.6916428771985e-06
 221    -1.6819528893009e-05
 222    5.6605024825185e-06
 223    8.9727424474723e-06
 224    -1.2470147372009e-06
 225    2.4758558527554e-05
 226    5.4292697448984e-05
 227    -1.2222817855053e-05
 228    -1.8010228349902e-06
 229    -9.7210265216443e-07
 230    8.8699563259177e-06
 231    5.3030689434301e-05
 232    -3.9453340991531e-06
 233    6.3429899620075e-06
 234    1.1865100180474e-05
 235    4.1454481999813e-07
 236    1.5600809200354e-06
 237    -7.7602459115406e-05
 238    1.4055237694289e-06
 239    2.6149554665619e-06
 240    -2.576954371793e-06
 241    3.4833045755589e-05
 242    -6.2457683938063e-05
 243    1.8828332447685e-05
 244    1.8205030999824e-06
 245    1.974284460953e-06
 246    -1.8830187046557e-06
 247    1.3316659072781e-07
 248    8.6474729037604e-07
 249    -1.6720745111627e-05
 250    1.4480879109397e-05
 251    -4.5538520489847e-06
 252    -1.0891679290759e-06
 253    -3.8300406401364e-07
 254    -1.4957646780675e-05
 255    5.6314317748007e-05
 256    1.2156554298092e-09
 257    4.440067126384e-06
 258    -9.8784205164722e-07
 259    -1.1186808057737e-05
 260    -2.1270380285142e-05
 261    7.9467717826485e-05
 262    -5.2845116985007e-06