[Molden Format]
made by pyscf v[2.0.1]
[Atoms] (AU)
O   1   8     0.00000000000000     0.00000000000000    11.69764103529358
H   2   1     0.00000000000000     0.00000000000000     9.87423921339262
H   3   1    -0.05031916615174     1.78353065140343    12.07351273176025
O   4   8     0.00000000000000     0.00000000000000     2.31533471513237
C   5   6     0.00000000000000     0.00000000000000     0.00000000000000
C   6   6     2.01118073026938    -1.40227222164369    -1.50774939176400
C   7   6    -2.01249334291722     1.41331050329955    -1.50315905028694
H   8   1     3.32037363730244    -2.26721897153159    -0.13599698591495
C   9   6     3.45899267434009     0.28739631745591    -3.37437943254505
H   10   1     1.07662969841332    -2.94725144642667    -2.56541439481080
H   11   1    -2.67503415753480     0.18421555839588    -3.06194479365997
H   12   1    -1.07974048864772     3.03851734677796    -2.43674295017013
C   13   6    -4.21607110578555     2.32938802552922     0.11994162256091
H   14   1     4.24440173074564     1.93368664142019    -2.34976285512790
H   15   1     2.15020713235517     1.04714335134846    -4.81494497423699
C   16   6     5.60746363007797    -1.12419643481196    -4.70268606082550
H   17   1    -3.46838323670267     3.50951302338067     1.66946842715333
H   18   1    -5.11873485366228     0.68575958301209     1.04047743976495
C   19   6    -6.18314754751344     3.80909592987882    -1.39656589068747
H   20   1     6.93011263717176    -1.87550812453645    -3.26656317360070
C   21   6     7.06356622236532     0.52877932406334    -6.57829775293605
H   22   1     4.82318879258361    -2.78573437948532    -5.70504560381835
H   23   1    -6.91582688743803     2.61304780074712    -2.95074552451969
H   24   1    -5.26532430573853     5.45420349051338    -2.31005832200284
C   25   6    -8.39941882261433     4.73263980500213     0.21800571437956
H   26   1     7.83338371486801     2.19084139882824    -5.57093109900697
H   27   1     5.73544244039420     1.27376866537418    -8.01071492370229
C   28   6     9.21124858443101    -0.89699110072176    -7.88926949186242
H   29   1    -7.66272760055236     5.92277078003992     1.77035591474408
H   30   1    -9.31497248082589     3.08753015622020     1.12614408368786
C   31   6   -10.35481709231879     6.21833079391143    -1.30905206253246
H   32   1    10.58815905329501    -1.61074586756696    -6.49512691622620
H   33   1    10.23506248045667     0.32468009384095    -9.23072870921204
H   34   1     8.47665842847139    -2.53598436989925    -8.94921964622535
H   35   1    -9.48948872868064     7.90013588951020    -2.18823918416067
H   36   1   -11.93332513000955     6.86460487874102    -0.11255798845995
H   37   1   -11.15126291841033     5.04495968327630    -2.83849898862534
[GTO]
1 0
 s    8 1.00
                 11720  0.00070964594651845
                  1759  0.0054672722921914
                 400.8   0.027823118610189
                 113.7    0.10474773971146
                 37.03    0.28292084635691
                 13.27    0.44849523869833
                 5.025    0.27081688521277
                 1.013    0.01545029160744
 s    8 1.00
                 11720  -0.00031444341168873
                  1759  -0.0024821376810179
                 400.8  -0.012316355381583
                 113.7  -0.050538917343672
                 37.03   -0.13938490331632
                 13.27   -0.32507749481778
                 5.025   -0.22984830758785
                 1.013     1.0953793467883
 s    1 1.00
                0.3023                   1
 p    3 1.00
                  17.7   0.062679166281506
                 3.854    0.33353656587936
                 1.046    0.74123964163973
 p    1 1.00
                0.2753                   1
 d    1 1.00
                 1.185                   1

2 0
 s    3 1.00
                 13.01   0.033498726389998
                 1.962    0.23480080117413
                0.4446     0.8136829578829
 s    1 1.00
                 0.122                   1
 p    1 1.00
                 0.727                   1

3 0
 s    3 1.00
                 13.01   0.033498726389998
                 1.962    0.23480080117413
                0.4446     0.8136829578829
 s    1 1.00
                 0.122                   1
 p    1 1.00
                 0.727                   1

4 0
 s    8 1.00
                 11720  0.00070964594651845
                  1759  0.0054672722921914
                 400.8   0.027823118610189
                 113.7    0.10474773971146
                 37.03    0.28292084635691
                 13.27    0.44849523869833
                 5.025    0.27081688521277
                 1.013    0.01545029160744
 s    8 1.00
                 11720  -0.00031444341168873
                  1759  -0.0024821376810179
                 400.8  -0.012316355381583
                 113.7  -0.050538917343672
                 37.03   -0.13938490331632
                 13.27   -0.32507749481778
                 5.025   -0.22984830758785
                 1.013     1.0953793467883
 s    1 1.00
                0.3023                   1
 p    3 1.00
                  17.7   0.062679166281506
                 3.854    0.33353656587936
                 1.046    0.74123964163973
 p    1 1.00
                0.2753                   1
 d    1 1.00
                 1.185                   1

5 0
 s    8 1.00
                  6665  0.00069158396281299
                  1000  0.0053257961529341
                   228   0.027060721042034
                 64.71    0.10165684614077
                 21.06     0.2745748236174
                 7.495    0.44829431892377
                 2.797    0.28490261071525
                0.5215   0.015194859206082
 s    8 1.00
                  6665  -0.00029326965268655
                  1000  -0.0023180354739745
                   228  -0.011499786038565
                 64.71  -0.046826727009787
                 21.06   -0.12846616875047
                 7.495   -0.30126627246289
                 2.797   -0.25563070233011
                0.5215      1.093793361012
 s    1 1.00
                0.1596                   1
 p    3 1.00
                 9.439   0.056979251590039
                 2.002    0.31320721150073
                0.5456    0.76037674173753
 p    1 1.00
                0.1517                   1
 d    1 1.00
                  0.55                   1

6 0
 s    8 1.00
                  6665  0.00069158396281299
                  1000  0.0053257961529341
                   228   0.027060721042034
                 64.71    0.10165684614077
                 21.06     0.2745748236174
                 7.495    0.44829431892377
                 2.797    0.28490261071525
                0.5215   0.015194859206082
 s    8 1.00
                  6665  -0.00029326965268655
                  1000  -0.0023180354739745
                   228  -0.011499786038565
                 64.71  -0.046826727009787
                 21.06   -0.12846616875047
                 7.495   -0.30126627246289
                 2.797   -0.25563070233011
                0.5215      1.093793361012
 s    1 1.00
                0.1596                   1
 p    3 1.00
                 9.439   0.056979251590039
                 2.002    0.31320721150073
                0.5456    0.76037674173753
 p    1 1.00
                0.1517                   1
 d    1 1.00
                  0.55                   1

7 0
 s    8 1.00
                  6665  0.00069158396281299
                  1000  0.0053257961529341
                   228   0.027060721042034
                 64.71    0.10165684614077
                 21.06     0.2745748236174
                 7.495    0.44829431892377
                 2.797    0.28490261071525
                0.5215   0.015194859206082
 s    8 1.00
                  6665  -0.00029326965268655
                  1000  -0.0023180354739745
                   228  -0.011499786038565
                 64.71  -0.046826727009787
                 21.06   -0.12846616875047
                 7.495   -0.30126627246289
                 2.797   -0.25563070233011
                0.5215      1.093793361012
 s    1 1.00
                0.1596                   1
 p    3 1.00
                 9.439   0.056979251590039
                 2.002    0.31320721150073
                0.5456    0.76037674173753
 p    1 1.00
                0.1517                   1
 d    1 1.00
                  0.55                   1

8 0
 s    3 1.00
                 13.01   0.033498726389998
                 1.962    0.23480080117413
                0.4446     0.8136829578829
 s    1 1.00
                 0.122                   1
 p    1 1.00
                 0.727                   1

9 0
 s    8 1.00
                  6665  0.00069158396281299
                  1000  0.0053257961529341
                   228   0.027060721042034
                 64.71    0.10165684614077
                 21.06     0.2745748236174
                 7.495    0.44829431892377
                 2.797    0.28490261071525
                0.5215   0.015194859206082
 s    8 1.00
                  6665  -0.00029326965268655
                  1000  -0.0023180354739745
                   228  -0.011499786038565
                 64.71  -0.046826727009787
                 21.06   -0.12846616875047
                 7.495   -0.30126627246289
                 2.797   -0.25563070233011
                0.5215      1.093793361012
 s    1 1.00
                0.1596                   1
 p    3 1.00
                 9.439   0.056979251590039
                 2.002    0.31320721150073
                0.5456    0.76037674173753
 p    1 1.00
                0.1517                   1
 d    1 1.00
                  0.55                   1

10 0
 s    3 1.00
                 13.01   0.033498726389998
                 1.962    0.23480080117413
                0.4446     0.8136829578829
 s    1 1.00
                 0.122                   1
 p    1 1.00
                 0.727                   1

11 0
 s    3 1.00
                 13.01   0.033498726389998
                 1.962    0.23480080117413
                0.4446     0.8136829578829
 s    1 1.00
                 0.122                   1
 p    1 1.00
                 0.727                   1

12 0
 s    3 1.00
                 13.01   0.033498726389998
                 1.962    0.23480080117413
                0.4446     0.8136829578829
 s    1 1.00
                 0.122                   1
 p    1 1.00
                 0.727                   1

13 0
 s    8 1.00
                  6665  0.00069158396281299
                  1000  0.0053257961529341
                   228   0.027060721042034
                 64.71    0.10165684614077
                 21.06     0.2745748236174
                 7.495    0.44829431892377
                 2.797    0.28490261071525
                0.5215   0.015194859206082
 s    8 1.00
                  6665  -0.00029326965268655
                  1000  -0.0023180354739745
                   228  -0.011499786038565
                 64.71  -0.046826727009787
                 21.06   -0.12846616875047
                 7.495   -0.30126627246289
                 2.797   -0.25563070233011
                0.5215      1.093793361012
 s    1 1.00
                0.1596                   1
 p    3 1.00
                 9.439   0.056979251590039
                 2.002    0.31320721150073
                0.5456    0.76037674173753
 p    1 1.00
                0.1517                   1
 d    1 1.00
                  0.55                   1

14 0
 s    3 1.00
                 13.01   0.033498726389998
                 1.962    0.23480080117413
                0.4446     0.8136829578829
 s    1 1.00
                 0.122                   1
 p    1 1.00
                 0.727                   1

15 0
 s    3 1.00
                 13.01   0.033498726389998
                 1.962    0.23480080117413
                0.4446     0.8136829578829
 s    1 1.00
                 0.122                   1
 p    1 1.00
                 0.727                   1

16 0
 s    8 1.00
                  6665  0.00069158396281299
                  1000  0.0053257961529341
                   228   0.027060721042034
                 64.71    0.10165684614077
                 21.06     0.2745748236174
                 7.495    0.44829431892377
                 2.797    0.28490261071525
                0.5215   0.015194859206082
 s    8 1.00
                  6665  -0.00029326965268655
                  1000  -0.0023180354739745
                   228  -0.011499786038565
                 64.71  -0.046826727009787
                 21.06   -0.12846616875047
                 7.495   -0.30126627246289
                 2.797   -0.25563070233011
                0.5215      1.093793361012
 s    1 1.00
                0.1596                   1
 p    3 1.00
                 9.439   0.056979251590039
                 2.002    0.31320721150073
                0.5456    0.76037674173753
 p    1 1.00
                0.1517                   1
 d    1 1.00
                  0.55                   1

17 0
 s    3 1.00
                 13.01   0.033498726389998
                 1.962    0.23480080117413
                0.4446     0.8136829578829
 s    1 1.00
                 0.122                   1
 p    1 1.00
                 0.727                   1

18 0
 s    3 1.00
                 13.01   0.033498726389998
                 1.962    0.23480080117413
                0.4446     0.8136829578829
 s    1 1.00
                 0.122                   1
 p    1 1.00
                 0.727                   1

19 0
 s    8 1.00
                  6665  0.00069158396281299
                  1000  0.0053257961529341
                   228   0.027060721042034
                 64.71    0.10165684614077
                 21.06     0.2745748236174
                 7.495    0.44829431892377
                 2.797    0.28490261071525
                0.5215   0.015194859206082
 s    8 1.00
                  6665  -0.00029326965268655
                  1000  -0.0023180354739745
                   228  -0.011499786038565
                 64.71  -0.046826727009787
                 21.06   -0.12846616875047
                 7.495   -0.30126627246289
                 2.797   -0.25563070233011
                0.5215      1.093793361012
 s    1 1.00
                0.1596                   1
 p    3 1.00
                 9.439   0.056979251590039
                 2.002    0.31320721150073
                0.5456    0.76037674173753
 p    1 1.00
                0.1517                   1
 d    1 1.00
                  0.55                   1

20 0
 s    3 1.00
                 13.01   0.033498726389998
                 1.962    0.23480080117413
                0.4446     0.8136829578829
 s    1 1.00
                 0.122                   1
 p    1 1.00
                 0.727                   1

21 0
 s    8 1.00
                  6665  0.00069158396281299
                  1000  0.0053257961529341
                   228   0.027060721042034
                 64.71    0.10165684614077
                 21.06     0.2745748236174
                 7.495    0.44829431892377
                 2.797    0.28490261071525
                0.5215   0.015194859206082
 s    8 1.00
                  6665  -0.00029326965268655
                  1000  -0.0023180354739745
                   228  -0.011499786038565
                 64.71  -0.046826727009787
                 21.06   -0.12846616875047
                 7.495   -0.30126627246289
                 2.797   -0.25563070233011
                0.5215      1.093793361012
 s    1 1.00
                0.1596                   1
 p    3 1.00
                 9.439   0.056979251590039
                 2.002    0.31320721150073
                0.5456    0.76037674173753
 p    1 1.00
                0.1517                   1
 d    1 1.00
                  0.55                   1

22 0
 s    3 1.00
                 13.01   0.033498726389998
                 1.962    0.23480080117413
                0.4446     0.8136829578829
 s    1 1.00
                 0.122                   1
 p    1 1.00
                 0.727                   1

23 0
 s    3 1.00
                 13.01   0.033498726389998
                 1.962    0.23480080117413
                0.4446     0.8136829578829
 s    1 1.00
                 0.122                   1
 p    1 1.00
                 0.727                   1

24 0
 s    3 1.00
                 13.01   0.033498726389998
                 1.962    0.23480080117413
                0.4446     0.8136829578829
 s    1 1.00
                 0.122                   1
 p    1 1.00
                 0.727                   1

25 0
 s    8 1.00
                  6665  0.00069158396281299
                  1000  0.0053257961529341
                   228   0.027060721042034
                 64.71    0.10165684614077
                 21.06     0.2745748236174
                 7.495    0.44829431892377
                 2.797    0.28490261071525
                0.5215   0.015194859206082
 s    8 1.00
                  6665  -0.00029326965268655
                  1000  -0.0023180354739745
                   228  -0.011499786038565
                 64.71  -0.046826727009787
                 21.06   -0.12846616875047
                 7.495   -0.30126627246289
                 2.797   -0.25563070233011
                0.5215      1.093793361012
 s    1 1.00
                0.1596                   1
 p    3 1.00
                 9.439   0.056979251590039
                 2.002    0.31320721150073
                0.5456    0.76037674173753
 p    1 1.00
                0.1517                   1
 d    1 1.00
                  0.55                   1

26 0
 s    3 1.00
                 13.01   0.033498726389998
                 1.962    0.23480080117413
                0.4446     0.8136829578829
 s    1 1.00
                 0.122                   1
 p    1 1.00
                 0.727                   1

27 0
 s    3 1.00
                 13.01   0.033498726389998
                 1.962    0.23480080117413
                0.4446     0.8136829578829
 s    1 1.00
                 0.122                   1
 p    1 1.00
                 0.727                   1

28 0
 s    8 1.00
                  6665  0.00069158396281299
                  1000  0.0053257961529341
                   228   0.027060721042034
                 64.71    0.10165684614077
                 21.06     0.2745748236174
                 7.495    0.44829431892377
                 2.797    0.28490261071525
                0.5215   0.015194859206082
 s    8 1.00
                  6665  -0.00029326965268655
                  1000  -0.0023180354739745
                   228  -0.011499786038565
                 64.71  -0.046826727009787
                 21.06   -0.12846616875047
                 7.495   -0.30126627246289
                 2.797   -0.25563070233011
                0.5215      1.093793361012
 s    1 1.00
                0.1596                   1
 p    3 1.00
                 9.439   0.056979251590039
                 2.002    0.31320721150073
                0.5456    0.76037674173753
 p    1 1.00
                0.1517                   1
 d    1 1.00
                  0.55                   1

29 0
 s    3 1.00
                 13.01   0.033498726389998
                 1.962    0.23480080117413
                0.4446     0.8136829578829
 s    1 1.00
                 0.122                   1
 p    1 1.00
                 0.727                   1

30 0
 s    3 1.00
                 13.01   0.033498726389998
                 1.962    0.23480080117413
                0.4446     0.8136829578829
 s    1 1.00
                 0.122                   1
 p    1 1.00
                 0.727                   1

31 0
 s    8 1.00
                  6665  0.00069158396281299
                  1000  0.0053257961529341
                   228   0.027060721042034
                 64.71    0.10165684614077
                 21.06     0.2745748236174
                 7.495    0.44829431892377
                 2.797    0.28490261071525
                0.5215   0.015194859206082
 s    8 1.00
                  6665  -0.00029326965268655
                  1000  -0.0023180354739745
                   228  -0.011499786038565
                 64.71  -0.046826727009787
                 21.06   -0.12846616875047
                 7.495   -0.30126627246289
                 2.797   -0.25563070233011
                0.5215      1.093793361012
 s    1 1.00
                0.1596                   1
 p    3 1.00
                 9.439   0.056979251590039
                 2.002    0.31320721150073
                0.5456    0.76037674173753
 p    1 1.00
                0.1517                   1
 d    1 1.00
                  0.55                   1

32 0
 s    3 1.00
                 13.01   0.033498726389998
                 1.962    0.23480080117413
                0.4446     0.8136829578829
 s    1 1.00
                 0.122                   1
 p    1 1.00
                 0.727                   1

33 0
 s    3 1.00
                 13.01   0.033498726389998
                 1.962    0.23480080117413
                0.4446     0.8136829578829
 s    1 1.00
                 0.122                   1
 p    1 1.00
                 0.727                   1

34 0
 s    3 1.00
                 13.01   0.033498726389998
                 1.962    0.23480080117413
                0.4446     0.8136829578829
 s    1 1.00
                 0.122                   1
 p    1 1.00
                 0.727                   1

35 0
 s    3 1.00
                 13.01   0.033498726389998
                 1.962    0.23480080117413
                0.4446     0.8136829578829
 s    1 1.00
                 0.122                   1
 p    1 1.00
                 0.727                   1

36 0
 s    3 1.00
                 13.01   0.033498726389998
                 1.962    0.23480080117413
                0.4446     0.8136829578829
 s    1 1.00
                 0.122                   1
 p    1 1.00
                 0.727                   1

37 0
 s    3 1.00
                 13.01   0.033498726389998
                 1.962    0.23480080117413
                0.4446     0.8136829578829
 s    1 1.00
                 0.122                   1
 p    1 1.00
                 0.727                   1

[5d]
[7f]
[9g]

[MO]
 Sym= A
 Ene=               0
 Spin= Alpha
 Occup=    1.00000
   1    1.5572959730376e-05
   2    8.067807865655e-06
   3    -3.2454113985351e-05
   4    3.1554215327645e-08
   5    -1.226010821403e-06
   6    3.0460603775393e-07
   7    -2.2516486596992e-07
   8    8.0943088176939e-06
   9    2.5228954037163e-05
  10    -4.8350673423265e-06
  11    -9.5975159162671e-09
  12    3.8550536870671e-07
  13    -4.1878299943366e-07
  14    -2.3307047027095e-08
  15    3.6629576896339e-06
  16    4.9450190847187e-05
  17    1.8482805230807e-08
  18    -5.0670850784214e-07
  19    1.5616921274245e-05
  20    1.692643239732e-06
  21    -2.1146517074974e-05
  22    -8.1522350766497e-08
  23    2.8444012589693e-06
  24    -6.6226866833271e-07
  25      -1.0013574042212
  26    -0.0019322771554293
  27    0.0067613299681731
  28    4.4293875270181e-06
  29    -5.7134878781182e-06
  30       0.0016455913002
  31    1.9759431446619e-06
  32    1.8307749136704e-06
  33    -0.0018144735923794
  34    -0.00013123722769687
  35    3.0463836349189e-06
  36    -1.2606845498561e-06
  37    -6.790015631411e-05
  38      0.00017686261737
  39    -0.00027120987045498
  40    -0.00038375172667154
  41    -0.0014017478927748
  42    -1.5260955136871e-05
  43    8.5476341723253e-06
  44    3.6655024163414e-05
  45    -9.3890620857081e-05
  46    6.832041888292e-05
  47    -0.0035150166625012
  48    0.00055201359395378
  49    9.3941903061805e-06
  50    -1.9301048715754e-06
  51    -3.0528392021508e-05
  52    0.00011169106846388
  53    8.0672766724088e-05
  54    0.0001647684862861
  55    -0.001358721300936
  56    -0.00010638716892438
  57    2.3911893666269e-05
  58    -5.9764270449365e-05
  59    0.00040651275145371
  60    -0.00046301399821862
  61    0.00087666597762691
  62    0.0001195028579719
  63    -0.00015335352841322
  64    0.00014249160703469
  65    -5.7977841434963e-05
  66    0.00013630626246888
  67    3.7059264442652e-05
  68    0.00010606615315427
  69    -0.0005306256227492
  70    8.1635320279511e-05
  71    -6.1814012794748e-05
  72    -3.4182057650659e-05
  73    -0.00098373871882732
  74    0.0007582489810727
  75    0.00057868882701444
  76    0.00014274284924262
  77    0.0001250117199159
  78    -8.8795015269986e-05
  79    -6.3224378310782e-05
  80    0.00015750722556963
  81    -1.0989266709814e-05
  82    -0.00023104672168086
  83    -6.2188507330226e-05
  84    4.5451449443712e-05
  85    -4.7004732845407e-05
  86    -1.3035541000359e-05
  87    -9.0327578849939e-06
  88    0.00062703179031603
  89    -3.1186449744659e-05
  90    1.9203054557365e-06
  91    -5.5734068431421e-06
  92    -0.00027683379037054
  93    -0.00063065186431959
  94    2.2712371544799e-05
  95    -2.0191035454247e-05
  96    -1.1883152562526e-05
  97    -8.7422899793168e-06
  98    2.194412396632e-05
  99    4.7921902951298e-05
 100    8.1088874457897e-05
 101    0.00017500715136115
 102    -9.1764115524629e-06
 103    1.3163885330406e-05
 104    -7.4476702140176e-05
 105    9.2150167235903e-05
 106    0.00022839227238949
 107    6.7458633965355e-05
 108    -8.4818483587478e-06
 109    -7.1291915917256e-05
 110    -4.3550938001637e-05
 111    6.8295753517096e-05
 112    4.4682410129762e-05
 113    -2.1504701900803e-05
 114    -7.023951842437e-05
 115    3.9731040615832e-05
 116    5.4562250121793e-05
 117    -0.0008563212023427
 118    -2.2054581852942e-05
 119    3.5900922286813e-05
 120    -2.5617195033344e-05
 121    -0.0003185661492749
 122    -1.7487567112759e-05
 123    0.00013255834419455
 124    8.5837385678065e-06
 125    -1.0518893279167e-05
 126    -1.6698724590922e-05
 127    3.015449554613e-05
 128    -4.8822564402899e-05
 129    1.8120998042696e-05
 130    0.00031892137185022
 131    -8.8187323012414e-06
 132    -6.5107781004336e-06
 133    -2.9001819965754e-05
 134    7.4037036965884e-06
 135    0.00012059396751967
 136    1.5031041908657e-05
 137    2.2222259346558e-05
 138    2.9514738058839e-05
 139    2.1033042710535e-05
 140    3.521684795751e-05
 141    -0.00028849286955057
 142    5.5106557023766e-07
 143    -1.3088926168242e-06
 144    6.2902807487803e-06
 145    0.00023849980177848
 146    -5.1803767883044e-05
 147    -6.5012302313255e-05
 148    2.0989803466902e-06
 149    -3.422465060402e-06
 150    2.4772354201568e-06
 151    -1.0253320134108e-05
 152    4.9491362367526e-06
 153    8.1166340905392e-05
 154    0.00012108443358848
 155    2.5698282810596e-05
 156    -2.8277541777124e-05
 157    -1.8581156881481e-05
 158    7.4823733011633e-06
 159    8.9428098637285e-05
 160    5.7304083138023e-05
 161    5.6689682958022e-06
 162    -4.4962214423702e-06
 163    3.1048347704148e-06
 164    1.2599664141007e-05
 165    0.00023240263264122
 166    2.638988650076e-05
 167    -2.0315843369564e-05
 168    1.457865328744e-08
 169    -0.00023316371282196
 170    0.00021166549573297
 171    0.0001316490657085
 172    4.2946276405481e-06
 173    -9.6029794624304e-06
 174    1.3178799292832e-05
 175    -3.9596153988214e-06
 176    1.9331671578933e-05
 177    2.0788938384181e-05
 178    -8.1547789974553e-05
 179    8.7174497279773e-07
 180    -2.0399377002309e-06
 181    4.7499877758535e-06
 182    -1.4908749918146e-05
 183    -2.5316886630633e-05
 184    6.4716659629013e-05
 185    3.8843640659674e-06
 186    -4.1476415025012e-06
 187    -3.7334921239462e-06
 188    -0.00012802061636133
 189    0.00010267022573127
 190    8.5943144492928e-05
 191    -1.143655285724e-06
 192    -1.5712807444736e-06
 193    7.4948213348547e-06
 194    2.8196727761866e-06
 195    5.0687669027073e-06
 196    1.0467573677627e-05
 197    1.6638473300178e-05
 198    -5.3064877123824e-06
 199    -2.2229361507021e-06
 200    3.6210341518636e-06
 201    1.3284101334564e-05
 202    -4.3346958898284e-06
 203    1.3210069970886e-05
 204    -1.0506966432156e-05
 205    -1.1641546799369e-05
 206    -8.3775685284516e-06
 207    -6.9011962221484e-05
 208    1.6660490601286e-05
 209    -4.0594932186509e-06
 210    -1.5260438830031e-05
 211    1.7501888142544e-05
 212    2.8286427133238e-05
 213    -0.00025247363686146
 214    -8.0976346757453e-06
 215    3.4833937581124e-06
 216    7.2127099740696e-06
 217    -0.00019816971262541
 218    5.5180562993207e-05
 219    7.581919330563e-05
 220    1.6882770766725e-06
 221    1.6837030965639e-05
 222    -5.6534954484215e-06
 223    -8.9634622258657e-06
 224    1.2327937301074e-06
 225    -2.4656190016048e-05
 226    -5.4100691578189e-05
 227    1.2195144806543e-05
 228     1.78088203708e-06
 229    9.7491506770835e-07
 230    -8.8268560140822e-06
 231    -5.305227990072e-05
 232    3.9331248436576e-06
 233    -6.3255612252587e-06
 234    -1.1851889078423e-05
 235    -4.1034242134727e-07
 236    -1.5488161395516e-06
 237    7.7542282245294e-05
 238    -1.4141269071537e-06
 239    -2.6069371536956e-06
 240    2.5811308050733e-06
 241    -3.474351116638e-05
 242    6.2339977763638e-05
 243    -1.8767992666234e-05
 244    -1.8118527840779e-06
 245    -1.9673399145947e-06
 246    1.8847924273945e-06
 247    -1.3382628420155e-07
 248    -8.6340938592822e-07
 249    1.6736155017924e-05
 250    -1.4842661071935e-05
 251    4.5687846701362e-06
 252    1.1200504211293e-06
 253    4.1786294658983e-07
 254    1.4881126564937e-05
 255    -5.6349192454608e-05
 256    2.8875840067213e-08
 257    -4.4544711260819e-06
 258    9.9439776482728e-07
 259    1.1254318021121e-05
 260    2.138193551138e-05
 261    -8.0235766771543e-05
 262    5.2657315396093e-06
 263    -2.6054359786581e-06