[Molden Format]
made by pyscf v[2.0.1]
[Atoms] (AU)
O   1   8     0.00000000000000     0.00000000000000     9.80791491072852
H   2   1     0.00000000000000     0.00000000000000     7.98451308882755
H   3   1    -0.05031916615174     1.78353065140343    10.18378660719519
O   4   8     0.00000000000000     0.00000000000000     2.31533471513237
C   5   6     0.00000000000000     0.00000000000000     0.00000000000000
C   6   6     2.01118073026938    -1.40227222164369    -1.50774939176400
C   7   6    -2.01249334291722     1.41331050329955    -1.50315905028694
H   8   1     3.32037363730244    -2.26721897153159    -0.13599698591495
C   9   6     3.45899267434009     0.28739631745591    -3.37437943254505
H   10   1     1.07662969841332    -2.94725144642667    -2.56541439481080
H   11   1    -2.67503415753480     0.18421555839588    -3.06194479365997
H   12   1    -1.07974048864772     3.03851734677796    -2.43674295017013
C   13   6    -4.21607110578555     2.32938802552922     0.11994162256091
H   14   1     4.24440173074564     1.93368664142019    -2.34976285512790
H   15   1     2.15020713235517     1.04714335134846    -4.81494497423699
C   16   6     5.60746363007797    -1.12419643481196    -4.70268606082550
H   17   1    -3.46838323670267     3.50951302338067     1.66946842715333
H   18   1    -5.11873485366228     0.68575958301209     1.04047743976495
C   19   6    -6.18314754751344     3.80909592987882    -1.39656589068747
H   20   1     6.93011263717176    -1.87550812453645    -3.26656317360070
C   21   6     7.06356622236532     0.52877932406334    -6.57829775293605
H   22   1     4.82318879258361    -2.78573437948532    -5.70504560381835
H   23   1    -6.91582688743803     2.61304780074712    -2.95074552451969
H   24   1    -5.26532430573853     5.45420349051338    -2.31005832200284
C   25   6    -8.39941882261433     4.73263980500213     0.21800571437956
H   26   1     7.83338371486801     2.19084139882824    -5.57093109900697
H   27   1     5.73544244039420     1.27376866537418    -8.01071492370229
C   28   6     9.21124858443101    -0.89699110072176    -7.88926949186242
H   29   1    -7.66272760055236     5.92277078003992     1.77035591474408
H   30   1    -9.31497248082589     3.08753015622020     1.12614408368786
C   31   6   -10.35481709231879     6.21833079391143    -1.30905206253246
H   32   1    10.58815905329501    -1.61074586756696    -6.49512691622620
H   33   1    10.23506248045667     0.32468009384095    -9.23072870921204
H   34   1     8.47665842847139    -2.53598436989925    -8.94921964622535
H   35   1    -9.48948872868064     7.90013588951020    -2.18823918416067
H   36   1   -11.93332513000955     6.86460487874102    -0.11255798845995
H   37   1   -11.15126291841033     5.04495968327630    -2.83849898862534
[GTO]
1 0
 s    8 1.00
                 11720  0.00070964594651845
                  1759  0.0054672722921914
                 400.8   0.027823118610189
                 113.7    0.10474773971146
                 37.03    0.28292084635691
                 13.27    0.44849523869833
                 5.025    0.27081688521277
                 1.013    0.01545029160744
 s    8 1.00
                 11720  -0.00031444341168873
                  1759  -0.0024821376810179
                 400.8  -0.012316355381583
                 113.7  -0.050538917343672
                 37.03   -0.13938490331632
                 13.27   -0.32507749481778
                 5.025   -0.22984830758785
                 1.013     1.0953793467883
 s    1 1.00
                0.3023                   1
 p    3 1.00
                  17.7   0.062679166281506
                 3.854    0.33353656587936
                 1.046    0.74123964163973
 p    1 1.00
                0.2753                   1
 d    1 1.00
                 1.185                   1

2 0
 s    3 1.00
                 13.01   0.033498726389998
                 1.962    0.23480080117413
                0.4446     0.8136829578829
 s    1 1.00
                 0.122                   1
 p    1 1.00
                 0.727                   1

3 0
 s    3 1.00
                 13.01   0.033498726389998
                 1.962    0.23480080117413
                0.4446     0.8136829578829
 s    1 1.00
                 0.122                   1
 p    1 1.00
                 0.727                   1

4 0
 s    8 1.00
                 11720  0.00070964594651845
                  1759  0.0054672722921914
                 400.8   0.027823118610189
                 113.7    0.10474773971146
                 37.03    0.28292084635691
                 13.27    0.44849523869833
                 5.025    0.27081688521277
                 1.013    0.01545029160744
 s    8 1.00
                 11720  -0.00031444341168873
                  1759  -0.0024821376810179
                 400.8  -0.012316355381583
                 113.7  -0.050538917343672
                 37.03   -0.13938490331632
                 13.27   -0.32507749481778
                 5.025   -0.22984830758785
                 1.013     1.0953793467883
 s    1 1.00
                0.3023                   1
 p    3 1.00
                  17.7   0.062679166281506
                 3.854    0.33353656587936
                 1.046    0.74123964163973
 p    1 1.00
                0.2753                   1
 d    1 1.00
                 1.185                   1

5 0
 s    8 1.00
                  6665  0.00069158396281299
                  1000  0.0053257961529341
                   228   0.027060721042034
                 64.71    0.10165684614077
                 21.06     0.2745748236174
                 7.495    0.44829431892377
                 2.797    0.28490261071525
                0.5215   0.015194859206082
 s    8 1.00
                  6665  -0.00029326965268655
                  1000  -0.0023180354739745
                   228  -0.011499786038565
                 64.71  -0.046826727009787
                 21.06   -0.12846616875047
                 7.495   -0.30126627246289
                 2.797   -0.25563070233011
                0.5215      1.093793361012
 s    1 1.00
                0.1596                   1
 p    3 1.00
                 9.439   0.056979251590039
                 2.002    0.31320721150073
                0.5456    0.76037674173753
 p    1 1.00
                0.1517                   1
 d    1 1.00
                  0.55                   1

6 0
 s    8 1.00
                  6665  0.00069158396281299
                  1000  0.0053257961529341
                   228   0.027060721042034
                 64.71    0.10165684614077
                 21.06     0.2745748236174
                 7.495    0.44829431892377
                 2.797    0.28490261071525
                0.5215   0.015194859206082
 s    8 1.00
                  6665  -0.00029326965268655
                  1000  -0.0023180354739745
                   228  -0.011499786038565
                 64.71  -0.046826727009787
                 21.06   -0.12846616875047
                 7.495   -0.30126627246289
                 2.797   -0.25563070233011
                0.5215      1.093793361012
 s    1 1.00
                0.1596                   1
 p    3 1.00
                 9.439   0.056979251590039
                 2.002    0.31320721150073
                0.5456    0.76037674173753
 p    1 1.00
                0.1517                   1
 d    1 1.00
                  0.55                   1

7 0
 s    8 1.00
                  6665  0.00069158396281299
                  1000  0.0053257961529341
                   228   0.027060721042034
                 64.71    0.10165684614077
                 21.06     0.2745748236174
                 7.495    0.44829431892377
                 2.797    0.28490261071525
                0.5215   0.015194859206082
 s    8 1.00
                  6665  -0.00029326965268655
                  1000  -0.0023180354739745
                   228  -0.011499786038565
                 64.71  -0.046826727009787
                 21.06   -0.12846616875047
                 7.495   -0.30126627246289
                 2.797   -0.25563070233011
                0.5215      1.093793361012
 s    1 1.00
                0.1596                   1
 p    3 1.00
                 9.439   0.056979251590039
                 2.002    0.31320721150073
                0.5456    0.76037674173753
 p    1 1.00
                0.1517                   1
 d    1 1.00
                  0.55                   1

8 0
 s    3 1.00
                 13.01   0.033498726389998
                 1.962    0.23480080117413
                0.4446     0.8136829578829
 s    1 1.00
                 0.122                   1
 p    1 1.00
                 0.727                   1

9 0
 s    8 1.00
                  6665  0.00069158396281299
                  1000  0.0053257961529341
                   228   0.027060721042034
                 64.71    0.10165684614077
                 21.06     0.2745748236174
                 7.495    0.44829431892377
                 2.797    0.28490261071525
                0.5215   0.015194859206082
 s    8 1.00
                  6665  -0.00029326965268655
                  1000  -0.0023180354739745
                   228  -0.011499786038565
                 64.71  -0.046826727009787
                 21.06   -0.12846616875047
                 7.495   -0.30126627246289
                 2.797   -0.25563070233011
                0.5215      1.093793361012
 s    1 1.00
                0.1596                   1
 p    3 1.00
                 9.439   0.056979251590039
                 2.002    0.31320721150073
                0.5456    0.76037674173753
 p    1 1.00
                0.1517                   1
 d    1 1.00
                  0.55                   1

10 0
 s    3 1.00
                 13.01   0.033498726389998
                 1.962    0.23480080117413
                0.4446     0.8136829578829
 s    1 1.00
                 0.122                   1
 p    1 1.00
                 0.727                   1

11 0
 s    3 1.00
                 13.01   0.033498726389998
                 1.962    0.23480080117413
                0.4446     0.8136829578829
 s    1 1.00
                 0.122                   1
 p    1 1.00
                 0.727                   1

12 0
 s    3 1.00
                 13.01   0.033498726389998
                 1.962    0.23480080117413
                0.4446     0.8136829578829
 s    1 1.00
                 0.122                   1
 p    1 1.00
                 0.727                   1

13 0
 s    8 1.00
                  6665  0.00069158396281299
                  1000  0.0053257961529341
                   228   0.027060721042034
                 64.71    0.10165684614077
                 21.06     0.2745748236174
                 7.495    0.44829431892377
                 2.797    0.28490261071525
                0.5215   0.015194859206082
 s    8 1.00
                  6665  -0.00029326965268655
                  1000  -0.0023180354739745
                   228  -0.011499786038565
                 64.71  -0.046826727009787
                 21.06   -0.12846616875047
                 7.495   -0.30126627246289
                 2.797   -0.25563070233011
                0.5215      1.093793361012
 s    1 1.00
                0.1596                   1
 p    3 1.00
                 9.439   0.056979251590039
                 2.002    0.31320721150073
                0.5456    0.76037674173753
 p    1 1.00
                0.1517                   1
 d    1 1.00
                  0.55                   1

14 0
 s    3 1.00
                 13.01   0.033498726389998
                 1.962    0.23480080117413
                0.4446     0.8136829578829
 s    1 1.00
                 0.122                   1
 p    1 1.00
                 0.727                   1

15 0
 s    3 1.00
                 13.01   0.033498726389998
                 1.962    0.23480080117413
                0.4446     0.8136829578829
 s    1 1.00
                 0.122                   1
 p    1 1.00
                 0.727                   1

16 0
 s    8 1.00
                  6665  0.00069158396281299
                  1000  0.0053257961529341
                   228   0.027060721042034
                 64.71    0.10165684614077
                 21.06     0.2745748236174
                 7.495    0.44829431892377
                 2.797    0.28490261071525
                0.5215   0.015194859206082
 s    8 1.00
                  6665  -0.00029326965268655
                  1000  -0.0023180354739745
                   228  -0.011499786038565
                 64.71  -0.046826727009787
                 21.06   -0.12846616875047
                 7.495   -0.30126627246289
                 2.797   -0.25563070233011
                0.5215      1.093793361012
 s    1 1.00
                0.1596                   1
 p    3 1.00
                 9.439   0.056979251590039
                 2.002    0.31320721150073
                0.5456    0.76037674173753
 p    1 1.00
                0.1517                   1
 d    1 1.00
                  0.55                   1

17 0
 s    3 1.00
                 13.01   0.033498726389998
                 1.962    0.23480080117413
                0.4446     0.8136829578829
 s    1 1.00
                 0.122                   1
 p    1 1.00
                 0.727                   1

18 0
 s    3 1.00
                 13.01   0.033498726389998
                 1.962    0.23480080117413
                0.4446     0.8136829578829
 s    1 1.00
                 0.122                   1
 p    1 1.00
                 0.727                   1

19 0
 s    8 1.00
                  6665  0.00069158396281299
                  1000  0.0053257961529341
                   228   0.027060721042034
                 64.71    0.10165684614077
                 21.06     0.2745748236174
                 7.495    0.44829431892377
                 2.797    0.28490261071525
                0.5215   0.015194859206082
 s    8 1.00
                  6665  -0.00029326965268655
                  1000  -0.0023180354739745
                   228  -0.011499786038565
                 64.71  -0.046826727009787
                 21.06   -0.12846616875047
                 7.495   -0.30126627246289
                 2.797   -0.25563070233011
                0.5215      1.093793361012
 s    1 1.00
                0.1596                   1
 p    3 1.00
                 9.439   0.056979251590039
                 2.002    0.31320721150073
                0.5456    0.76037674173753
 p    1 1.00
                0.1517                   1
 d    1 1.00
                  0.55                   1

20 0
 s    3 1.00
                 13.01   0.033498726389998
                 1.962    0.23480080117413
                0.4446     0.8136829578829
 s    1 1.00
                 0.122                   1
 p    1 1.00
                 0.727                   1

21 0
 s    8 1.00
                  6665  0.00069158396281299
                  1000  0.0053257961529341
                   228   0.027060721042034
                 64.71    0.10165684614077
                 21.06     0.2745748236174
                 7.495    0.44829431892377
                 2.797    0.28490261071525
                0.5215   0.015194859206082
 s    8 1.00
                  6665  -0.00029326965268655
                  1000  -0.0023180354739745
                   228  -0.011499786038565
                 64.71  -0.046826727009787
                 21.06   -0.12846616875047
                 7.495   -0.30126627246289
                 2.797   -0.25563070233011
                0.5215      1.093793361012
 s    1 1.00
                0.1596                   1
 p    3 1.00
                 9.439   0.056979251590039
                 2.002    0.31320721150073
                0.5456    0.76037674173753
 p    1 1.00
                0.1517                   1
 d    1 1.00
                  0.55                   1

22 0
 s    3 1.00
                 13.01   0.033498726389998
                 1.962    0.23480080117413
                0.4446     0.8136829578829
 s    1 1.00
                 0.122                   1
 p    1 1.00
                 0.727                   1

23 0
 s    3 1.00
                 13.01   0.033498726389998
                 1.962    0.23480080117413
                0.4446     0.8136829578829
 s    1 1.00
                 0.122                   1
 p    1 1.00
                 0.727                   1

24 0
 s    3 1.00
                 13.01   0.033498726389998
                 1.962    0.23480080117413
                0.4446     0.8136829578829
 s    1 1.00
                 0.122                   1
 p    1 1.00
                 0.727                   1

25 0
 s    8 1.00
                  6665  0.00069158396281299
                  1000  0.0053257961529341
                   228   0.027060721042034
                 64.71    0.10165684614077
                 21.06     0.2745748236174
                 7.495    0.44829431892377
                 2.797    0.28490261071525
                0.5215   0.015194859206082
 s    8 1.00
                  6665  -0.00029326965268655
                  1000  -0.0023180354739745
                   228  -0.011499786038565
                 64.71  -0.046826727009787
                 21.06   -0.12846616875047
                 7.495   -0.30126627246289
                 2.797   -0.25563070233011
                0.5215      1.093793361012
 s    1 1.00
                0.1596                   1
 p    3 1.00
                 9.439   0.056979251590039
                 2.002    0.31320721150073
                0.5456    0.76037674173753
 p    1 1.00
                0.1517                   1
 d    1 1.00
                  0.55                   1

26 0
 s    3 1.00
                 13.01   0.033498726389998
                 1.962    0.23480080117413
                0.4446     0.8136829578829
 s    1 1.00
                 0.122                   1
 p    1 1.00
                 0.727                   1

27 0
 s    3 1.00
                 13.01   0.033498726389998
                 1.962    0.23480080117413
                0.4446     0.8136829578829
 s    1 1.00
                 0.122                   1
 p    1 1.00
                 0.727                   1

28 0
 s    8 1.00
                  6665  0.00069158396281299
                  1000  0.0053257961529341
                   228   0.027060721042034
                 64.71    0.10165684614077
                 21.06     0.2745748236174
                 7.495    0.44829431892377
                 2.797    0.28490261071525
                0.5215   0.015194859206082
 s    8 1.00
                  6665  -0.00029326965268655
                  1000  -0.0023180354739745
                   228  -0.011499786038565
                 64.71  -0.046826727009787
                 21.06   -0.12846616875047
                 7.495   -0.30126627246289
                 2.797   -0.25563070233011
                0.5215      1.093793361012
 s    1 1.00
                0.1596                   1
 p    3 1.00
                 9.439   0.056979251590039
                 2.002    0.31320721150073
                0.5456    0.76037674173753
 p    1 1.00
                0.1517                   1
 d    1 1.00
                  0.55                   1

29 0
 s    3 1.00
                 13.01   0.033498726389998
                 1.962    0.23480080117413
                0.4446     0.8136829578829
 s    1 1.00
                 0.122                   1
 p    1 1.00
                 0.727                   1

30 0
 s    3 1.00
                 13.01   0.033498726389998
                 1.962    0.23480080117413
                0.4446     0.8136829578829
 s    1 1.00
                 0.122                   1
 p    1 1.00
                 0.727                   1

31 0
 s    8 1.00
                  6665  0.00069158396281299
                  1000  0.0053257961529341
                   228   0.027060721042034
                 64.71    0.10165684614077
                 21.06     0.2745748236174
                 7.495    0.44829431892377
                 2.797    0.28490261071525
                0.5215   0.015194859206082
 s    8 1.00
                  6665  -0.00029326965268655
                  1000  -0.0023180354739745
                   228  -0.011499786038565
                 64.71  -0.046826727009787
                 21.06   -0.12846616875047
                 7.495   -0.30126627246289
                 2.797   -0.25563070233011
                0.5215      1.093793361012
 s    1 1.00
                0.1596                   1
 p    3 1.00
                 9.439   0.056979251590039
                 2.002    0.31320721150073
                0.5456    0.76037674173753
 p    1 1.00
                0.1517                   1
 d    1 1.00
                  0.55                   1

32 0
 s    3 1.00
                 13.01   0.033498726389998
                 1.962    0.23480080117413
                0.4446     0.8136829578829
 s    1 1.00
                 0.122                   1
 p    1 1.00
                 0.727                   1

33 0
 s    3 1.00
                 13.01   0.033498726389998
                 1.962    0.23480080117413
                0.4446     0.8136829578829
 s    1 1.00
                 0.122                   1
 p    1 1.00
                 0.727                   1

34 0
 s    3 1.00
                 13.01   0.033498726389998
                 1.962    0.23480080117413
                0.4446     0.8136829578829
 s    1 1.00
                 0.122                   1
 p    1 1.00
                 0.727                   1

35 0
 s    3 1.00
                 13.01   0.033498726389998
                 1.962    0.23480080117413
                0.4446     0.8136829578829
 s    1 1.00
                 0.122                   1
 p    1 1.00
                 0.727                   1

36 0
 s    3 1.00
                 13.01   0.033498726389998
                 1.962    0.23480080117413
                0.4446     0.8136829578829
 s    1 1.00
                 0.122                   1
 p    1 1.00
                 0.727                   1

37 0
 s    3 1.00
                 13.01   0.033498726389998
                 1.962    0.23480080117413
                0.4446     0.8136829578829
 s    1 1.00
                 0.122                   1
 p    1 1.00
                 0.727                   1

[5d]
[7f]
[9g]

[MO]
 Sym= A
 Ene=               0
 Spin= Alpha
 Occup=    1.00000
   1    4.4712677374405e-05
   2    3.5541692745265e-05
   3    -0.00011799434995933
   4    7.8289256553461e-08
   5    -4.6733581168477e-06
   6    -4.334328492532e-06
   7    -5.9104706100347e-07
   8    2.3175437101473e-05
   9    8.0691217926211e-05
  10    -1.2707503698732e-05
  11    1.8728475534663e-09
  12    7.7324578441711e-07
  13    -4.1147655658672e-07
  14    -1.7430758397643e-08
  15    1.559526690609e-05
  16    0.00017091814937378
  17    1.283449413969e-07
  18    -1.5121206401424e-06
  19    3.2857024089561e-05
  20    7.4958526990575e-06
  21    -6.3921941392442e-05
  22    -1.8126746016787e-07
  23    5.6855403852673e-06
  24    -2.55034771104e-06
  25      -1.0013662493381
  26    -0.0019510402487176
  27    0.0068388089536685
  28    4.7556837804625e-06
  29    -7.2000172773592e-06
  30    0.0016353619489692
  31    1.8817020039609e-06
  32    2.5137785981386e-06
  33    -0.0018664157458043
  34    -0.0001222214814128
  35    2.9383294975039e-06
  36    -1.3471936502709e-06
  37    -6.7419515875714e-05
  38    0.0001755256931221
  39    -0.00027782948925877
  40    -0.00039863978538661
  41    -0.0014578373373176
  42    -1.5851976525036e-05
  43    8.5926716955496e-06
  44    2.1154309904412e-05
  45    -9.296345766564e-05
  46    6.907040041416e-05
  47    -0.0035701943623561
  48    0.00053744310232709
  49    9.1600737691289e-06
  50    -1.9110743625299e-06
  51    -3.1231683119382e-05
  52    0.00011336041739341
  53    8.0593413001101e-05
  54    0.00016446771518877
  55    -0.0013681747106626
  56    -0.00010677844345415
  57    2.3906898983715e-05
  58    -6.1679592415574e-05
  59    0.00040734439485574
  60    -0.00046551424399078
  61    0.00089683276803841
  62    0.00011859292608499
  63    -0.00015305700934461
  64    0.00014258798161132
  65    -5.7532951745297e-05
  66    0.00013477141962977
  67    3.6280786869655e-05
  68    0.00010468005624021
  69    -0.00053331398086449
  70    8.2396563885226e-05
  71    -6.2602703421411e-05
  72    -3.560415511523e-05
  73    -0.00099082598281632
  74    0.00076205601832839
  75    0.00058927714196228
  76    0.0001416749385972
  77    0.00012532262878225
  78    -8.8832645892226e-05
  79    -6.27633337697e-05
  80    0.00015626173431355
  81    -1.4088776978422e-05
  82    -0.00023433853333799
  83    -6.2607071378759e-05
  84    4.5791344056406e-05
  85    -4.625536462013e-05
  86    -1.2950201440446e-05
  87    -8.6480015958867e-06
  88    0.00063618166268025
  89    -3.1853198501482e-05
  90    1.8522689080764e-06
  91    -5.0782474051487e-06
  92    -0.00027947397167401
  93    -0.0006416704789307
  94    1.9658978472478e-05
  95    -2.0587383564087e-05
  96    -1.2075730417296e-05
  97    -9.1901806133368e-06
  98    2.1399967359202e-05
  99    4.9133635901244e-05
 100    8.3362380283177e-05
 101    0.0001780149192521
 102    -7.9064146087798e-06
 103    1.3591990134559e-05
 104    -7.5650144419087e-05
 105    9.3642505521122e-05
 106     0.000231139774986
 107    6.7170497026119e-05
 108    -7.0401924763548e-06
 109    -7.191980888345e-05
 110    -4.3373493207406e-05
 111    7.1975079958215e-05
 112    4.4016772339458e-05
 113    -2.229583211392e-05
 114    -7.0957721206166e-05
 115    3.8822557090425e-05
 116    5.2540595757574e-05
 117    -0.0008620751941784
 118    -2.335869228693e-05
 119    3.6761437042948e-05
 120    -2.5535399365257e-05
 121    -0.00031066754148641
 122    -2.0587955885657e-05
 123    0.00014410395492867
 124    8.5257241138034e-06
 125    -9.830610568586e-06
 126    -1.5976863133443e-05
 127    3.0024468635109e-05
 128    -4.8989941659964e-05
 129    1.8589728345777e-05
 130    0.00032525766721584
 131    -9.0973205137326e-06
 132    -6.5869468312302e-06
 133    -2.9212327987062e-05
 134    7.8685271877677e-06
 135    0.00011981204443493
 136    1.5178699914462e-05
 137    2.2738754303037e-05
 138    2.988455914582e-05
 139    2.1396153708323e-05
 140    3.5829197854874e-05
 141    -0.00029640434828149
 142    7.3344985831157e-07
 143    -1.1570514823056e-06
 144    6.2167475803286e-06
 145    0.0002396226456585
 146    -5.5162001686139e-05
 147    -6.3128473626492e-05
 148    2.1906450037908e-06
 149    -3.497884795357e-06
 150    2.887043108007e-06
 151    -1.0561146186736e-05
 152    4.8804583486025e-06
 153    8.0585703889927e-05
 154    0.00011179458936024
 155    2.6216800973195e-05
 156    -2.711895522149e-05
 157    -1.7643901196563e-05
 158    7.125670820511e-06
 159    8.8283005341772e-05
 160    5.6944785724941e-05
 161    5.6949315957631e-06
 162    -4.9155716318619e-06
 163    2.2403449204399e-06
 164    1.1128685567466e-05
 165    0.00024549097243171
 166    2.6722086982702e-05
 167    -2.0428651397684e-05
 168    6.1054320784812e-09
 169    -0.00022994924319293
 170    0.00020810100894812
 171    0.0001359558867201
 172    4.0200966241734e-06
 173    -9.5205095189982e-06
 174    1.3047062762385e-05
 175    -3.8850968408454e-06
 176    1.8970157932738e-05
 177    2.1054678384815e-05
 178    -8.2997650605064e-05
 179    1.0797446839981e-06
 180    -1.9009997479529e-06
 181    4.6483370694908e-06
 182    -1.5342000387482e-05
 183    -2.604888843232e-05
 184    6.9929425570541e-05
 185    3.7794240066742e-06
 186    -4.291568197463e-06
 187    -3.6396395249047e-06
 188    -0.00013003475720125
 189    0.00010252253200449
 190    8.8730574517032e-05
 191    -1.1122263703637e-06
 192    -1.7106113740367e-06
 193    7.4499809182943e-06
 194    2.7956481643007e-06
 195    5.3006642716072e-06
 196    1.0201432086922e-05
 197    1.6982497162987e-05
 198    -5.3149956795688e-06
 199    -2.2037389445716e-06
 200    3.4615907725639e-06
 201    1.292272452349e-05
 202    -3.4976009121097e-06
 203    1.3385059691081e-05
 204    -1.0352909330681e-05
 205    -1.16030763278e-05
 206    -8.5996682323753e-06
 207    -6.875210975143e-05
 208    1.651463909217e-05
 209    -4.0089396103846e-06
 210    -1.5376868749062e-05
 211    1.7850124765762e-05
 212    2.8843086308193e-05
 213    -0.00025835296351394
 214    -8.4631958604089e-06
 215    3.5901558821461e-06
 216    7.2526493573037e-06
 217    -0.0001973971629099
 218    5.4763291676522e-05
 219    7.6864573088224e-05
 220    1.7070225026651e-06
 221    1.6750324059158e-05
 222    -5.6702873281224e-06
 223    -9.0088411187758e-06
 224    1.2900088911367e-06
 225    -2.5173857461306e-05
 226    -5.509079874874e-05
 227    1.2338314583215e-05
 228    1.8820669042358e-06
 229    9.6074633831685e-07
 230    -9.0437163238812e-06
 231    -5.2953169414182e-05
 232    3.9973192004989e-06
 233    -6.412954383292e-06
 234    -1.19263639538e-05
 235    -4.4833953540835e-07
 236    -1.634947719798e-06
 237    7.7991840463468e-05
 238    -1.3703469655246e-06
 239    -2.6430935479169e-06
 240    2.5601584281126e-06
 241    -3.5252097424059e-05
 242    6.2907119983137e-05
 243    -1.900593180231e-05
 244    -1.8531819562355e-06
 245    -2.0080092417391e-06
 246    1.8728348830987e-06
 247    -1.2577032764529e-07
 248    -8.7042392943945e-07
 249    1.6658727471519e-05
 250    -1.3167638915313e-05
 251    4.4906014449918e-06
 252    9.9653828647289e-07
 253    2.5059623382747e-07
 254    1.519178207294e-05
 255    -5.6187706826179e-05
 256    -1.1377426535603e-07
 257    -4.3797639790782e-06
 258    9.5398753835653e-07
 259    1.0960966421454e-05
 260    2.0902358117155e-05
 261    -7.6642189176913e-05
 262    5.3695323062393e-06
 263    -2.6665719511086e-06