[Molden Format]
made by pyscf v[2.0.1]
[Atoms] (AU)
O   1   8     0.00000000000000     0.00000000000000     9.42996968581551
H   2   1     0.00000000000000     0.00000000000000     7.60656786391454
H   3   1    -0.05031916615174     1.78353065140343     9.80584138228218
O   4   8     0.00000000000000     0.00000000000000     2.31533471513237
C   5   6     0.00000000000000     0.00000000000000     0.00000000000000
C   6   6     2.01118073026938    -1.40227222164369    -1.50774939176400
C   7   6    -2.01249334291722     1.41331050329955    -1.50315905028694
H   8   1     3.32037363730244    -2.26721897153159    -0.13599698591495
C   9   6     3.45899267434009     0.28739631745591    -3.37437943254505
H   10   1     1.07662969841332    -2.94725144642667    -2.56541439481080
H   11   1    -2.67503415753480     0.18421555839588    -3.06194479365997
H   12   1    -1.07974048864772     3.03851734677796    -2.43674295017013
C   13   6    -4.21607110578555     2.32938802552922     0.11994162256091
H   14   1     4.24440173074564     1.93368664142019    -2.34976285512790
H   15   1     2.15020713235517     1.04714335134846    -4.81494497423699
C   16   6     5.60746363007797    -1.12419643481196    -4.70268606082550
H   17   1    -3.46838323670267     3.50951302338067     1.66946842715333
H   18   1    -5.11873485366228     0.68575958301209     1.04047743976495
C   19   6    -6.18314754751344     3.80909592987882    -1.39656589068747
H   20   1     6.93011263717176    -1.87550812453645    -3.26656317360070
C   21   6     7.06356622236532     0.52877932406334    -6.57829775293605
H   22   1     4.82318879258361    -2.78573437948532    -5.70504560381835
H   23   1    -6.91582688743803     2.61304780074712    -2.95074552451969
H   24   1    -5.26532430573853     5.45420349051338    -2.31005832200284
C   25   6    -8.39941882261433     4.73263980500213     0.21800571437956
H   26   1     7.83338371486801     2.19084139882824    -5.57093109900697
H   27   1     5.73544244039420     1.27376866537418    -8.01071492370229
C   28   6     9.21124858443101    -0.89699110072176    -7.88926949186242
H   29   1    -7.66272760055236     5.92277078003992     1.77035591474408
H   30   1    -9.31497248082589     3.08753015622020     1.12614408368786
C   31   6   -10.35481709231879     6.21833079391143    -1.30905206253246
H   32   1    10.58815905329501    -1.61074586756696    -6.49512691622620
H   33   1    10.23506248045667     0.32468009384095    -9.23072870921204
H   34   1     8.47665842847139    -2.53598436989925    -8.94921964622535
H   35   1    -9.48948872868064     7.90013588951020    -2.18823918416067
H   36   1   -11.93332513000955     6.86460487874102    -0.11255798845995
H   37   1   -11.15126291841033     5.04495968327630    -2.83849898862534
[GTO]
1 0
 s    8 1.00
                 11720  0.00070964594651845
                  1759  0.0054672722921914
                 400.8   0.027823118610189
                 113.7    0.10474773971146
                 37.03    0.28292084635691
                 13.27    0.44849523869833
                 5.025    0.27081688521277
                 1.013    0.01545029160744
 s    8 1.00
                 11720  -0.00031444341168873
                  1759  -0.0024821376810179
                 400.8  -0.012316355381583
                 113.7  -0.050538917343672
                 37.03   -0.13938490331632
                 13.27   -0.32507749481778
                 5.025   -0.22984830758785
                 1.013     1.0953793467883
 s    1 1.00
                0.3023                   1
 p    3 1.00
                  17.7   0.062679166281506
                 3.854    0.33353656587936
                 1.046    0.74123964163973
 p    1 1.00
                0.2753                   1
 d    1 1.00
                 1.185                   1

2 0
 s    3 1.00
                 13.01   0.033498726389998
                 1.962    0.23480080117413
                0.4446     0.8136829578829
 s    1 1.00
                 0.122                   1
 p    1 1.00
                 0.727                   1

3 0
 s    3 1.00
                 13.01   0.033498726389998
                 1.962    0.23480080117413
                0.4446     0.8136829578829
 s    1 1.00
                 0.122                   1
 p    1 1.00
                 0.727                   1

4 0
 s    8 1.00
                 11720  0.00070964594651845
                  1759  0.0054672722921914
                 400.8   0.027823118610189
                 113.7    0.10474773971146
                 37.03    0.28292084635691
                 13.27    0.44849523869833
                 5.025    0.27081688521277
                 1.013    0.01545029160744
 s    8 1.00
                 11720  -0.00031444341168873
                  1759  -0.0024821376810179
                 400.8  -0.012316355381583
                 113.7  -0.050538917343672
                 37.03   -0.13938490331632
                 13.27   -0.32507749481778
                 5.025   -0.22984830758785
                 1.013     1.0953793467883
 s    1 1.00
                0.3023                   1
 p    3 1.00
                  17.7   0.062679166281506
                 3.854    0.33353656587936
                 1.046    0.74123964163973
 p    1 1.00
                0.2753                   1
 d    1 1.00
                 1.185                   1

5 0
 s    8 1.00
                  6665  0.00069158396281299
                  1000  0.0053257961529341
                   228   0.027060721042034
                 64.71    0.10165684614077
                 21.06     0.2745748236174
                 7.495    0.44829431892377
                 2.797    0.28490261071525
                0.5215   0.015194859206082
 s    8 1.00
                  6665  -0.00029326965268655
                  1000  -0.0023180354739745
                   228  -0.011499786038565
                 64.71  -0.046826727009787
                 21.06   -0.12846616875047
                 7.495   -0.30126627246289
                 2.797   -0.25563070233011
                0.5215      1.093793361012
 s    1 1.00
                0.1596                   1
 p    3 1.00
                 9.439   0.056979251590039
                 2.002    0.31320721150073
                0.5456    0.76037674173753
 p    1 1.00
                0.1517                   1
 d    1 1.00
                  0.55                   1

6 0
 s    8 1.00
                  6665  0.00069158396281299
                  1000  0.0053257961529341
                   228   0.027060721042034
                 64.71    0.10165684614077
                 21.06     0.2745748236174
                 7.495    0.44829431892377
                 2.797    0.28490261071525
                0.5215   0.015194859206082
 s    8 1.00
                  6665  -0.00029326965268655
                  1000  -0.0023180354739745
                   228  -0.011499786038565
                 64.71  -0.046826727009787
                 21.06   -0.12846616875047
                 7.495   -0.30126627246289
                 2.797   -0.25563070233011
                0.5215      1.093793361012
 s    1 1.00
                0.1596                   1
 p    3 1.00
                 9.439   0.056979251590039
                 2.002    0.31320721150073
                0.5456    0.76037674173753
 p    1 1.00
                0.1517                   1
 d    1 1.00
                  0.55                   1

7 0
 s    8 1.00
                  6665  0.00069158396281299
                  1000  0.0053257961529341
                   228   0.027060721042034
                 64.71    0.10165684614077
                 21.06     0.2745748236174
                 7.495    0.44829431892377
                 2.797    0.28490261071525
                0.5215   0.015194859206082
 s    8 1.00
                  6665  -0.00029326965268655
                  1000  -0.0023180354739745
                   228  -0.011499786038565
                 64.71  -0.046826727009787
                 21.06   -0.12846616875047
                 7.495   -0.30126627246289
                 2.797   -0.25563070233011
                0.5215      1.093793361012
 s    1 1.00
                0.1596                   1
 p    3 1.00
                 9.439   0.056979251590039
                 2.002    0.31320721150073
                0.5456    0.76037674173753
 p    1 1.00
                0.1517                   1
 d    1 1.00
                  0.55                   1

8 0
 s    3 1.00
                 13.01   0.033498726389998
                 1.962    0.23480080117413
                0.4446     0.8136829578829
 s    1 1.00
                 0.122                   1
 p    1 1.00
                 0.727                   1

9 0
 s    8 1.00
                  6665  0.00069158396281299
                  1000  0.0053257961529341
                   228   0.027060721042034
                 64.71    0.10165684614077
                 21.06     0.2745748236174
                 7.495    0.44829431892377
                 2.797    0.28490261071525
                0.5215   0.015194859206082
 s    8 1.00
                  6665  -0.00029326965268655
                  1000  -0.0023180354739745
                   228  -0.011499786038565
                 64.71  -0.046826727009787
                 21.06   -0.12846616875047
                 7.495   -0.30126627246289
                 2.797   -0.25563070233011
                0.5215      1.093793361012
 s    1 1.00
                0.1596                   1
 p    3 1.00
                 9.439   0.056979251590039
                 2.002    0.31320721150073
                0.5456    0.76037674173753
 p    1 1.00
                0.1517                   1
 d    1 1.00
                  0.55                   1

10 0
 s    3 1.00
                 13.01   0.033498726389998
                 1.962    0.23480080117413
                0.4446     0.8136829578829
 s    1 1.00
                 0.122                   1
 p    1 1.00
                 0.727                   1

11 0
 s    3 1.00
                 13.01   0.033498726389998
                 1.962    0.23480080117413
                0.4446     0.8136829578829
 s    1 1.00
                 0.122                   1
 p    1 1.00
                 0.727                   1

12 0
 s    3 1.00
                 13.01   0.033498726389998
                 1.962    0.23480080117413
                0.4446     0.8136829578829
 s    1 1.00
                 0.122                   1
 p    1 1.00
                 0.727                   1

13 0
 s    8 1.00
                  6665  0.00069158396281299
                  1000  0.0053257961529341
                   228   0.027060721042034
                 64.71    0.10165684614077
                 21.06     0.2745748236174
                 7.495    0.44829431892377
                 2.797    0.28490261071525
                0.5215   0.015194859206082
 s    8 1.00
                  6665  -0.00029326965268655
                  1000  -0.0023180354739745
                   228  -0.011499786038565
                 64.71  -0.046826727009787
                 21.06   -0.12846616875047
                 7.495   -0.30126627246289
                 2.797   -0.25563070233011
                0.5215      1.093793361012
 s    1 1.00
                0.1596                   1
 p    3 1.00
                 9.439   0.056979251590039
                 2.002    0.31320721150073
                0.5456    0.76037674173753
 p    1 1.00
                0.1517                   1
 d    1 1.00
                  0.55                   1

14 0
 s    3 1.00
                 13.01   0.033498726389998
                 1.962    0.23480080117413
                0.4446     0.8136829578829
 s    1 1.00
                 0.122                   1
 p    1 1.00
                 0.727                   1

15 0
 s    3 1.00
                 13.01   0.033498726389998
                 1.962    0.23480080117413
                0.4446     0.8136829578829
 s    1 1.00
                 0.122                   1
 p    1 1.00
                 0.727                   1

16 0
 s    8 1.00
                  6665  0.00069158396281299
                  1000  0.0053257961529341
                   228   0.027060721042034
                 64.71    0.10165684614077
                 21.06     0.2745748236174
                 7.495    0.44829431892377
                 2.797    0.28490261071525
                0.5215   0.015194859206082
 s    8 1.00
                  6665  -0.00029326965268655
                  1000  -0.0023180354739745
                   228  -0.011499786038565
                 64.71  -0.046826727009787
                 21.06   -0.12846616875047
                 7.495   -0.30126627246289
                 2.797   -0.25563070233011
                0.5215      1.093793361012
 s    1 1.00
                0.1596                   1
 p    3 1.00
                 9.439   0.056979251590039
                 2.002    0.31320721150073
                0.5456    0.76037674173753
 p    1 1.00
                0.1517                   1
 d    1 1.00
                  0.55                   1

17 0
 s    3 1.00
                 13.01   0.033498726389998
                 1.962    0.23480080117413
                0.4446     0.8136829578829
 s    1 1.00
                 0.122                   1
 p    1 1.00
                 0.727                   1

18 0
 s    3 1.00
                 13.01   0.033498726389998
                 1.962    0.23480080117413
                0.4446     0.8136829578829
 s    1 1.00
                 0.122                   1
 p    1 1.00
                 0.727                   1

19 0
 s    8 1.00
                  6665  0.00069158396281299
                  1000  0.0053257961529341
                   228   0.027060721042034
                 64.71    0.10165684614077
                 21.06     0.2745748236174
                 7.495    0.44829431892377
                 2.797    0.28490261071525
                0.5215   0.015194859206082
 s    8 1.00
                  6665  -0.00029326965268655
                  1000  -0.0023180354739745
                   228  -0.011499786038565
                 64.71  -0.046826727009787
                 21.06   -0.12846616875047
                 7.495   -0.30126627246289
                 2.797   -0.25563070233011
                0.5215      1.093793361012
 s    1 1.00
                0.1596                   1
 p    3 1.00
                 9.439   0.056979251590039
                 2.002    0.31320721150073
                0.5456    0.76037674173753
 p    1 1.00
                0.1517                   1
 d    1 1.00
                  0.55                   1

20 0
 s    3 1.00
                 13.01   0.033498726389998
                 1.962    0.23480080117413
                0.4446     0.8136829578829
 s    1 1.00
                 0.122                   1
 p    1 1.00
                 0.727                   1

21 0
 s    8 1.00
                  6665  0.00069158396281299
                  1000  0.0053257961529341
                   228   0.027060721042034
                 64.71    0.10165684614077
                 21.06     0.2745748236174
                 7.495    0.44829431892377
                 2.797    0.28490261071525
                0.5215   0.015194859206082
 s    8 1.00
                  6665  -0.00029326965268655
                  1000  -0.0023180354739745
                   228  -0.011499786038565
                 64.71  -0.046826727009787
                 21.06   -0.12846616875047
                 7.495   -0.30126627246289
                 2.797   -0.25563070233011
                0.5215      1.093793361012
 s    1 1.00
                0.1596                   1
 p    3 1.00
                 9.439   0.056979251590039
                 2.002    0.31320721150073
                0.5456    0.76037674173753
 p    1 1.00
                0.1517                   1
 d    1 1.00
                  0.55                   1

22 0
 s    3 1.00
                 13.01   0.033498726389998
                 1.962    0.23480080117413
                0.4446     0.8136829578829
 s    1 1.00
                 0.122                   1
 p    1 1.00
                 0.727                   1

23 0
 s    3 1.00
                 13.01   0.033498726389998
                 1.962    0.23480080117413
                0.4446     0.8136829578829
 s    1 1.00
                 0.122                   1
 p    1 1.00
                 0.727                   1

24 0
 s    3 1.00
                 13.01   0.033498726389998
                 1.962    0.23480080117413
                0.4446     0.8136829578829
 s    1 1.00
                 0.122                   1
 p    1 1.00
                 0.727                   1

25 0
 s    8 1.00
                  6665  0.00069158396281299
                  1000  0.0053257961529341
                   228   0.027060721042034
                 64.71    0.10165684614077
                 21.06     0.2745748236174
                 7.495    0.44829431892377
                 2.797    0.28490261071525
                0.5215   0.015194859206082
 s    8 1.00
                  6665  -0.00029326965268655
                  1000  -0.0023180354739745
                   228  -0.011499786038565
                 64.71  -0.046826727009787
                 21.06   -0.12846616875047
                 7.495   -0.30126627246289
                 2.797   -0.25563070233011
                0.5215      1.093793361012
 s    1 1.00
                0.1596                   1
 p    3 1.00
                 9.439   0.056979251590039
                 2.002    0.31320721150073
                0.5456    0.76037674173753
 p    1 1.00
                0.1517                   1
 d    1 1.00
                  0.55                   1

26 0
 s    3 1.00
                 13.01   0.033498726389998
                 1.962    0.23480080117413
                0.4446     0.8136829578829
 s    1 1.00
                 0.122                   1
 p    1 1.00
                 0.727                   1

27 0
 s    3 1.00
                 13.01   0.033498726389998
                 1.962    0.23480080117413
                0.4446     0.8136829578829
 s    1 1.00
                 0.122                   1
 p    1 1.00
                 0.727                   1

28 0
 s    8 1.00
                  6665  0.00069158396281299
                  1000  0.0053257961529341
                   228   0.027060721042034
                 64.71    0.10165684614077
                 21.06     0.2745748236174
                 7.495    0.44829431892377
                 2.797    0.28490261071525
                0.5215   0.015194859206082
 s    8 1.00
                  6665  -0.00029326965268655
                  1000  -0.0023180354739745
                   228  -0.011499786038565
                 64.71  -0.046826727009787
                 21.06   -0.12846616875047
                 7.495   -0.30126627246289
                 2.797   -0.25563070233011
                0.5215      1.093793361012
 s    1 1.00
                0.1596                   1
 p    3 1.00
                 9.439   0.056979251590039
                 2.002    0.31320721150073
                0.5456    0.76037674173753
 p    1 1.00
                0.1517                   1
 d    1 1.00
                  0.55                   1

29 0
 s    3 1.00
                 13.01   0.033498726389998
                 1.962    0.23480080117413
                0.4446     0.8136829578829
 s    1 1.00
                 0.122                   1
 p    1 1.00
                 0.727                   1

30 0
 s    3 1.00
                 13.01   0.033498726389998
                 1.962    0.23480080117413
                0.4446     0.8136829578829
 s    1 1.00
                 0.122                   1
 p    1 1.00
                 0.727                   1

31 0
 s    8 1.00
                  6665  0.00069158396281299
                  1000  0.0053257961529341
                   228   0.027060721042034
                 64.71    0.10165684614077
                 21.06     0.2745748236174
                 7.495    0.44829431892377
                 2.797    0.28490261071525
                0.5215   0.015194859206082
 s    8 1.00
                  6665  -0.00029326965268655
                  1000  -0.0023180354739745
                   228  -0.011499786038565
                 64.71  -0.046826727009787
                 21.06   -0.12846616875047
                 7.495   -0.30126627246289
                 2.797   -0.25563070233011
                0.5215      1.093793361012
 s    1 1.00
                0.1596                   1
 p    3 1.00
                 9.439   0.056979251590039
                 2.002    0.31320721150073
                0.5456    0.76037674173753
 p    1 1.00
                0.1517                   1
 d    1 1.00
                  0.55                   1

32 0
 s    3 1.00
                 13.01   0.033498726389998
                 1.962    0.23480080117413
                0.4446     0.8136829578829
 s    1 1.00
                 0.122                   1
 p    1 1.00
                 0.727                   1

33 0
 s    3 1.00
                 13.01   0.033498726389998
                 1.962    0.23480080117413
                0.4446     0.8136829578829
 s    1 1.00
                 0.122                   1
 p    1 1.00
                 0.727                   1

34 0
 s    3 1.00
                 13.01   0.033498726389998
                 1.962    0.23480080117413
                0.4446     0.8136829578829
 s    1 1.00
                 0.122                   1
 p    1 1.00
                 0.727                   1

35 0
 s    3 1.00
                 13.01   0.033498726389998
                 1.962    0.23480080117413
                0.4446     0.8136829578829
 s    1 1.00
                 0.122                   1
 p    1 1.00
                 0.727                   1

36 0
 s    3 1.00
                 13.01   0.033498726389998
                 1.962    0.23480080117413
                0.4446     0.8136829578829
 s    1 1.00
                 0.122                   1
 p    1 1.00
                 0.727                   1

37 0
 s    3 1.00
                 13.01   0.033498726389998
                 1.962    0.23480080117413
                0.4446     0.8136829578829
 s    1 1.00
                 0.122                   1
 p    1 1.00
                 0.727                   1

[5d]
[7f]
[9g]

[MO]
 Sym= A
 Ene=               0
 Spin= Alpha
 Occup=    1.00000
   1    5.2175880570446e-05
   2    4.3022649774593e-05
   3    -0.00012960072570834
   4    6.2560877348316e-08
   5    -5.3271606783065e-06
   6    -8.4966057608254e-06
   7    -6.0072411780312e-07
   8    2.5050262940384e-05
   9    8.4688692086661e-05
  10    -1.1133012661627e-05
  11    2.1670300638131e-08
  12    5.8596607785259e-07
  13    -3.3551413717965e-07
  14    -9.6302140858654e-09
  15    1.6728897624663e-05
  16    0.00019207056301331
  17    1.9015042566233e-07
  18    -1.7276226637794e-06
  19    2.2226196224931e-05
  20    8.051903211661e-06
  21    -6.8726244945623e-05
  22    -1.7760229739194e-07
  23    5.1076005289333e-06
  24    -2.3889689873658e-06
  25      -1.0013695254752
  26    -0.0019581798287233
  27    0.0068682537262124
  28    4.8536979647969e-06
  29    -7.6815441168782e-06
  30    0.0016323219515699
  31    1.8994429429177e-06
  32    2.7858472920968e-06
  33    -0.0018895924572154
  34    -0.00011902714110998
  35    2.9057494691373e-06
  36    -1.3805998111393e-06
  37    -6.7248151505773e-05
  38    0.00017505298164681
  39    -0.00028075287785391
  40    -0.00040498289394491
  41    -0.0014801665055753
  42    -1.6053399521704e-05
  43    8.6059347005094e-06
  44    1.5025147092145e-05
  45    -9.3278756964679e-05
  46     6.96664438675e-05
  47    -0.0035931383866298
  48    0.00053201956929574
  49    9.1133547279447e-06
  50    -1.9446770165833e-06
  51    -3.149427254966e-05
  52    0.00011401942770943
  53    8.053595885249e-05
  54    0.00016431404356481
  55    -0.0013715979917662
  56    -0.00010695909872707
  57    2.3901173114697e-05
  58    -6.2370099273037e-05
  59    0.00040805636113068
  60    -0.00046661757260631
  61    0.00090541194723177
  62    0.00011828220552684
  63    -0.00015298153975582
  64    0.00014266351713952
  65    -5.7369690093579e-05
  66    0.00013420431453291
  67    3.6017913405874e-05
  68    0.0001042077354209
  69    -0.00053530591598245
  70    8.2690549034284e-05
  71    -6.2907372222223e-05
  72    -3.6118075689186e-05
  73    -0.00099384527433238
  74    0.00076399961381068
  75    0.00059350668491107
  76    0.00014133645739779
  77    0.00012545838982826
  78    -8.8859497867356e-05
  79    -6.2633304149938e-05
  80    0.00015586283297093
  81    -1.5294449733838e-05
  82    -0.00023613727747923
  83    -6.276764396921e-05
  84    4.5911474221558e-05
  85    -4.5931893076782e-05
  86    -1.2922523302422e-05
  87    -8.5199960210135e-06
  88    0.00063976952833455
  89    -3.2076584761668e-05
  90    1.8422281958847e-06
  91    -4.8895850790028e-06
  92    -0.00028065451645161
  93    -0.00064614875577382
  94    1.8378238803704e-05
  95    -2.0760997021274e-05
  96    -1.215465677781e-05
  97    -9.3513751743612e-06
  98    2.1197806670746e-05
  99    4.963349181997e-05
 100    8.4243790594224e-05
 101    0.00017933987071933
 102    -7.4227508305541e-06
 103    1.3775160817356e-05
 104    -7.6148729207442e-05
 105     9.42275815618e-05
 106    0.00023232477385567
 107    6.7088912765344e-05
 108    -6.4951222943872e-06
 109    -7.2199628511988e-05
 110    -4.3351986483803e-05
 111    7.3353331767899e-05
 112    4.3773378635164e-05
 113    -2.260538777517e-05
 114    -7.1271447793431e-05
 115    3.8443277506888e-05
 116    5.1738253168863e-05
 117    -0.00086361600785205
 118    -2.3812402537835e-05
 119    3.7072477142422e-05
 120    -2.5461997870637e-05
 121    -0.00030839088430428
 122    -2.1734118882474e-05
 123    0.00014766327428358
 124    8.4909395534616e-06
 125    -9.5528954625113e-06
 126    -1.5785934565143e-05
 127    3.002425609515e-05
 128    -4.9151528593067e-05
 129    1.8793956614256e-05
 130    0.00032787383089973
 131    -9.2043854930772e-06
 132    -6.6177685038994e-06
 133    -2.9296979019123e-05
 134    8.0197611349179e-06
 135    0.00011954116728497
 136    1.5242561657054e-05
 137    2.2944163264709e-05
 138    3.0047623035376e-05
 139    2.1547991816341e-05
 140    3.6087936676328e-05
 141    -0.00029958171707345
 142    7.9733329369663e-07
 143    -1.0943740908977e-06
 144    6.1862344250542e-06
 145    0.00024009614825831
 146    -5.6434267237774e-05
 147    -6.2384613443284e-05
 148    2.2263010795749e-06
 149    -3.5360757318386e-06
 150    3.0567520856461e-06
 151    -1.0686882880899e-05
 152    4.8562793347004e-06
 153    8.0566802254859e-05
 154    0.00010863596544418
 155    2.6401538822135e-05
 156    -2.6748076789125e-05
 157    -1.7350053940039e-05
 158    7.072948432383e-06
 159    8.7675679340501e-05
 160    5.6864074536417e-05
 161    5.7013800668888e-06
 162    -5.0139400182137e-06
 163    1.9835434768898e-06
 164    1.0684446851985e-05
 165    0.00024936998628775
 166    2.6825968645266e-05
 167    -2.046436292772e-05
 168    -3.2198816671138e-08
 169    -0.00022921521293374
 170    0.00020735174824664
 171    0.00013734452079262
 172    3.9388790826041e-06
 173    -9.5222479531587e-06
 174    1.303265113854e-05
 175    -3.8649298317129e-06
 176    1.8898533906252e-05
 177    2.1156266276782e-05
 178    -8.3502847461636e-05
 179    1.1485471786683e-06
 180    -1.8455973775816e-06
 181    4.6035514953534e-06
 182    -1.5515181876426e-05
 183    -2.6341399140208e-05
 184    7.2001676874359e-05
 185    3.7381677144367e-06
 186    -4.3496085383902e-06
 187    -3.6024969287044e-06
 188    -0.00013084855093697
 189    0.00010249061390218
 190    8.9806341544726e-05
 191    -1.1019310364486e-06
 192    -1.7649634882047e-06
 193    7.435998541762e-06
 194    2.7868388948347e-06
 195    5.3925115851766e-06
 196    1.0110782661554e-05
 197    1.7139783280475e-05
 198    -5.3185509495994e-06
 199    -2.1977142179777e-06
 200    3.4014875133231e-06
 201    1.2848580603722e-05
 202    -3.1648615425233e-06
 203    1.3460471503103e-05
 204    -1.0314716656314e-05
 205    -1.1593501529903e-05
 206    -8.6760424361995e-06
 207    -6.8757623239475e-05
 208    1.6485130255283e-05
 209    -4.001489699522e-06
 210    -1.5429542051932e-05
 211    1.7975055045309e-05
 212    2.9042386021092e-05
 213    -0.00026055192161459
 214    -8.6044775870423e-06
 215    3.6404282639723e-06
 216    7.2634045343067e-06
 217    -0.00019706687600003
 218    5.4473560645377e-05
 219    7.7290959862469e-05
 220    1.7172743233073e-06
 221    1.6718639104971e-05
 222    -5.6691557030005e-06
 223    -9.029179882969e-06
 224    1.307671306829e-06
 225    -2.5381024515292e-05
 226    -5.549314742877e-05
 227    1.2397102945995e-05
 228    1.9227741965687e-06
 229    9.5731975994152e-07
 230    -9.1332697291767e-06
 231    -5.2956124452133e-05
 232    4.0224019088593e-06
 233    -6.4466550101821e-06
 234    -1.1961139308982e-05
 235    -4.6471349201158e-07
 236    -1.6711315210606e-06
 237    7.8189833386845e-05
 238    -1.3529053444314e-06
 239    -2.6576586375054e-06
 240    2.553241244099e-06
 241    -3.5449334184618e-05
 242    6.3131750853715e-05
 243    -1.9095327808281e-05
 244    -1.8682975485698e-06
 245    -2.0249483566569e-06
 246    1.8678970287194e-06
 247    -1.2295034640187e-07
 248    -8.7115370856773e-07
 249    1.6631273696946e-05
 250    -1.2549068691373e-05
 251    4.4565074039616e-06
 252    9.6316412672854e-07
 253    1.8434076869014e-07
 254    1.5282442944843e-05
 255    -5.6134190494334e-05
 256    -1.6838250195202e-07
 257    -4.3478154429519e-06
 258    9.3251586938773e-07
 259    1.0868816201853e-05
 260    2.0754937503487e-05
 261    -7.5315949450793e-05
 262    5.4195538726909e-06