[Molden Format]
made by pyscf v[2.0.1]
[Atoms] (AU)
O   1   8     0.00000000000000     0.00000000000000     7.91818878616346
H   2   1     0.00000000000000     0.00000000000000     6.09478696426249
H   3   1    -0.05031916615174     1.78353065140343     8.29406048263013
O   4   8     0.00000000000000     0.00000000000000     2.31533471513237
C   5   6     0.00000000000000     0.00000000000000     0.00000000000000
C   6   6     2.01118073026938    -1.40227222164369    -1.50774939176400
C   7   6    -2.01249334291722     1.41331050329955    -1.50315905028694
H   8   1     3.32037363730244    -2.26721897153159    -0.13599698591495
C   9   6     3.45899267434009     0.28739631745591    -3.37437943254505
H   10   1     1.07662969841332    -2.94725144642667    -2.56541439481080
H   11   1    -2.67503415753480     0.18421555839588    -3.06194479365997
H   12   1    -1.07974048864772     3.03851734677796    -2.43674295017013
C   13   6    -4.21607110578555     2.32938802552922     0.11994162256091
H   14   1     4.24440173074564     1.93368664142019    -2.34976285512790
H   15   1     2.15020713235517     1.04714335134846    -4.81494497423699
C   16   6     5.60746363007797    -1.12419643481196    -4.70268606082550
H   17   1    -3.46838323670267     3.50951302338067     1.66946842715333
H   18   1    -5.11873485366228     0.68575958301209     1.04047743976495
C   19   6    -6.18314754751344     3.80909592987882    -1.39656589068747
H   20   1     6.93011263717176    -1.87550812453645    -3.26656317360070
C   21   6     7.06356622236532     0.52877932406334    -6.57829775293605
H   22   1     4.82318879258361    -2.78573437948532    -5.70504560381835
H   23   1    -6.91582688743803     2.61304780074712    -2.95074552451969
H   24   1    -5.26532430573853     5.45420349051338    -2.31005832200284
C   25   6    -8.39941882261433     4.73263980500213     0.21800571437956
H   26   1     7.83338371486801     2.19084139882824    -5.57093109900697
H   27   1     5.73544244039420     1.27376866537418    -8.01071492370229
C   28   6     9.21124858443101    -0.89699110072176    -7.88926949186242
H   29   1    -7.66272760055236     5.92277078003992     1.77035591474408
H   30   1    -9.31497248082589     3.08753015622020     1.12614408368786
C   31   6   -10.35481709231879     6.21833079391143    -1.30905206253246
H   32   1    10.58815905329501    -1.61074586756696    -6.49512691622620
H   33   1    10.23506248045667     0.32468009384095    -9.23072870921204
H   34   1     8.47665842847139    -2.53598436989925    -8.94921964622535
H   35   1    -9.48948872868064     7.90013588951020    -2.18823918416067
H   36   1   -11.93332513000955     6.86460487874102    -0.11255798845995
H   37   1   -11.15126291841033     5.04495968327630    -2.83849898862534
[GTO]
1 0
 s    8 1.00
                 11720  0.00070964594651845
                  1759  0.0054672722921914
                 400.8   0.027823118610189
                 113.7    0.10474773971146
                 37.03    0.28292084635691
                 13.27    0.44849523869833
                 5.025    0.27081688521277
                 1.013    0.01545029160744
 s    8 1.00
                 11720  -0.00031444341168873
                  1759  -0.0024821376810179
                 400.8  -0.012316355381583
                 113.7  -0.050538917343672
                 37.03   -0.13938490331632
                 13.27   -0.32507749481778
                 5.025   -0.22984830758785
                 1.013     1.0953793467883
 s    1 1.00
                0.3023                   1
 p    3 1.00
                  17.7   0.062679166281506
                 3.854    0.33353656587936
                 1.046    0.74123964163973
 p    1 1.00
                0.2753                   1
 d    1 1.00
                 1.185                   1

2 0
 s    3 1.00
                 13.01   0.033498726389998
                 1.962    0.23480080117413
                0.4446     0.8136829578829
 s    1 1.00
                 0.122                   1
 p    1 1.00
                 0.727                   1

3 0
 s    3 1.00
                 13.01   0.033498726389998
                 1.962    0.23480080117413
                0.4446     0.8136829578829
 s    1 1.00
                 0.122                   1
 p    1 1.00
                 0.727                   1

4 0
 s    8 1.00
                 11720  0.00070964594651845
                  1759  0.0054672722921914
                 400.8   0.027823118610189
                 113.7    0.10474773971146
                 37.03    0.28292084635691
                 13.27    0.44849523869833
                 5.025    0.27081688521277
                 1.013    0.01545029160744
 s    8 1.00
                 11720  -0.00031444341168873
                  1759  -0.0024821376810179
                 400.8  -0.012316355381583
                 113.7  -0.050538917343672
                 37.03   -0.13938490331632
                 13.27   -0.32507749481778
                 5.025   -0.22984830758785
                 1.013     1.0953793467883
 s    1 1.00
                0.3023                   1
 p    3 1.00
                  17.7   0.062679166281506
                 3.854    0.33353656587936
                 1.046    0.74123964163973
 p    1 1.00
                0.2753                   1
 d    1 1.00
                 1.185                   1

5 0
 s    8 1.00
                  6665  0.00069158396281299
                  1000  0.0053257961529341
                   228   0.027060721042034
                 64.71    0.10165684614077
                 21.06     0.2745748236174
                 7.495    0.44829431892377
                 2.797    0.28490261071525
                0.5215   0.015194859206082
 s    8 1.00
                  6665  -0.00029326965268655
                  1000  -0.0023180354739745
                   228  -0.011499786038565
                 64.71  -0.046826727009787
                 21.06   -0.12846616875047
                 7.495   -0.30126627246289
                 2.797   -0.25563070233011
                0.5215      1.093793361012
 s    1 1.00
                0.1596                   1
 p    3 1.00
                 9.439   0.056979251590039
                 2.002    0.31320721150073
                0.5456    0.76037674173753
 p    1 1.00
                0.1517                   1
 d    1 1.00
                  0.55                   1

6 0
 s    8 1.00
                  6665  0.00069158396281299
                  1000  0.0053257961529341
                   228   0.027060721042034
                 64.71    0.10165684614077
                 21.06     0.2745748236174
                 7.495    0.44829431892377
                 2.797    0.28490261071525
                0.5215   0.015194859206082
 s    8 1.00
                  6665  -0.00029326965268655
                  1000  -0.0023180354739745
                   228  -0.011499786038565
                 64.71  -0.046826727009787
                 21.06   -0.12846616875047
                 7.495   -0.30126627246289
                 2.797   -0.25563070233011
                0.5215      1.093793361012
 s    1 1.00
                0.1596                   1
 p    3 1.00
                 9.439   0.056979251590039
                 2.002    0.31320721150073
                0.5456    0.76037674173753
 p    1 1.00
                0.1517                   1
 d    1 1.00
                  0.55                   1

7 0
 s    8 1.00
                  6665  0.00069158396281299
                  1000  0.0053257961529341
                   228   0.027060721042034
                 64.71    0.10165684614077
                 21.06     0.2745748236174
                 7.495    0.44829431892377
                 2.797    0.28490261071525
                0.5215   0.015194859206082
 s    8 1.00
                  6665  -0.00029326965268655
                  1000  -0.0023180354739745
                   228  -0.011499786038565
                 64.71  -0.046826727009787
                 21.06   -0.12846616875047
                 7.495   -0.30126627246289
                 2.797   -0.25563070233011
                0.5215      1.093793361012
 s    1 1.00
                0.1596                   1
 p    3 1.00
                 9.439   0.056979251590039
                 2.002    0.31320721150073
                0.5456    0.76037674173753
 p    1 1.00
                0.1517                   1
 d    1 1.00
                  0.55                   1

8 0
 s    3 1.00
                 13.01   0.033498726389998
                 1.962    0.23480080117413
                0.4446     0.8136829578829
 s    1 1.00
                 0.122                   1
 p    1 1.00
                 0.727                   1

9 0
 s    8 1.00
                  6665  0.00069158396281299
                  1000  0.0053257961529341
                   228   0.027060721042034
                 64.71    0.10165684614077
                 21.06     0.2745748236174
                 7.495    0.44829431892377
                 2.797    0.28490261071525
                0.5215   0.015194859206082
 s    8 1.00
                  6665  -0.00029326965268655
                  1000  -0.0023180354739745
                   228  -0.011499786038565
                 64.71  -0.046826727009787
                 21.06   -0.12846616875047
                 7.495   -0.30126627246289
                 2.797   -0.25563070233011
                0.5215      1.093793361012
 s    1 1.00
                0.1596                   1
 p    3 1.00
                 9.439   0.056979251590039
                 2.002    0.31320721150073
                0.5456    0.76037674173753
 p    1 1.00
                0.1517                   1
 d    1 1.00
                  0.55                   1

10 0
 s    3 1.00
                 13.01   0.033498726389998
                 1.962    0.23480080117413
                0.4446     0.8136829578829
 s    1 1.00
                 0.122                   1
 p    1 1.00
                 0.727                   1

11 0
 s    3 1.00
                 13.01   0.033498726389998
                 1.962    0.23480080117413
                0.4446     0.8136829578829
 s    1 1.00
                 0.122                   1
 p    1 1.00
                 0.727                   1

12 0
 s    3 1.00
                 13.01   0.033498726389998
                 1.962    0.23480080117413
                0.4446     0.8136829578829
 s    1 1.00
                 0.122                   1
 p    1 1.00
                 0.727                   1

13 0
 s    8 1.00
                  6665  0.00069158396281299
                  1000  0.0053257961529341
                   228   0.027060721042034
                 64.71    0.10165684614077
                 21.06     0.2745748236174
                 7.495    0.44829431892377
                 2.797    0.28490261071525
                0.5215   0.015194859206082
 s    8 1.00
                  6665  -0.00029326965268655
                  1000  -0.0023180354739745
                   228  -0.011499786038565
                 64.71  -0.046826727009787
                 21.06   -0.12846616875047
                 7.495   -0.30126627246289
                 2.797   -0.25563070233011
                0.5215      1.093793361012
 s    1 1.00
                0.1596                   1
 p    3 1.00
                 9.439   0.056979251590039
                 2.002    0.31320721150073
                0.5456    0.76037674173753
 p    1 1.00
                0.1517                   1
 d    1 1.00
                  0.55                   1

14 0
 s    3 1.00
                 13.01   0.033498726389998
                 1.962    0.23480080117413
                0.4446     0.8136829578829
 s    1 1.00
                 0.122                   1
 p    1 1.00
                 0.727                   1

15 0
 s    3 1.00
                 13.01   0.033498726389998
                 1.962    0.23480080117413
                0.4446     0.8136829578829
 s    1 1.00
                 0.122                   1
 p    1 1.00
                 0.727                   1

16 0
 s    8 1.00
                  6665  0.00069158396281299
                  1000  0.0053257961529341
                   228   0.027060721042034
                 64.71    0.10165684614077
                 21.06     0.2745748236174
                 7.495    0.44829431892377
                 2.797    0.28490261071525
                0.5215   0.015194859206082
 s    8 1.00
                  6665  -0.00029326965268655
                  1000  -0.0023180354739745
                   228  -0.011499786038565
                 64.71  -0.046826727009787
                 21.06   -0.12846616875047
                 7.495   -0.30126627246289
                 2.797   -0.25563070233011
                0.5215      1.093793361012
 s    1 1.00
                0.1596                   1
 p    3 1.00
                 9.439   0.056979251590039
                 2.002    0.31320721150073
                0.5456    0.76037674173753
 p    1 1.00
                0.1517                   1
 d    1 1.00
                  0.55                   1

17 0
 s    3 1.00
                 13.01   0.033498726389998
                 1.962    0.23480080117413
                0.4446     0.8136829578829
 s    1 1.00
                 0.122                   1
 p    1 1.00
                 0.727                   1

18 0
 s    3 1.00
                 13.01   0.033498726389998
                 1.962    0.23480080117413
                0.4446     0.8136829578829
 s    1 1.00
                 0.122                   1
 p    1 1.00
                 0.727                   1

19 0
 s    8 1.00
                  6665  0.00069158396281299
                  1000  0.0053257961529341
                   228   0.027060721042034
                 64.71    0.10165684614077
                 21.06     0.2745748236174
                 7.495    0.44829431892377
                 2.797    0.28490261071525
                0.5215   0.015194859206082
 s    8 1.00
                  6665  -0.00029326965268655
                  1000  -0.0023180354739745
                   228  -0.011499786038565
                 64.71  -0.046826727009787
                 21.06   -0.12846616875047
                 7.495   -0.30126627246289
                 2.797   -0.25563070233011
                0.5215      1.093793361012
 s    1 1.00
                0.1596                   1
 p    3 1.00
                 9.439   0.056979251590039
                 2.002    0.31320721150073
                0.5456    0.76037674173753
 p    1 1.00
                0.1517                   1
 d    1 1.00
                  0.55                   1

20 0
 s    3 1.00
                 13.01   0.033498726389998
                 1.962    0.23480080117413
                0.4446     0.8136829578829
 s    1 1.00
                 0.122                   1
 p    1 1.00
                 0.727                   1

21 0
 s    8 1.00
                  6665  0.00069158396281299
                  1000  0.0053257961529341
                   228   0.027060721042034
                 64.71    0.10165684614077
                 21.06     0.2745748236174
                 7.495    0.44829431892377
                 2.797    0.28490261071525
                0.5215   0.015194859206082
 s    8 1.00
                  6665  -0.00029326965268655
                  1000  -0.0023180354739745
                   228  -0.011499786038565
                 64.71  -0.046826727009787
                 21.06   -0.12846616875047
                 7.495   -0.30126627246289
                 2.797   -0.25563070233011
                0.5215      1.093793361012
 s    1 1.00
                0.1596                   1
 p    3 1.00
                 9.439   0.056979251590039
                 2.002    0.31320721150073
                0.5456    0.76037674173753
 p    1 1.00
                0.1517                   1
 d    1 1.00
                  0.55                   1

22 0
 s    3 1.00
                 13.01   0.033498726389998
                 1.962    0.23480080117413
                0.4446     0.8136829578829
 s    1 1.00
                 0.122                   1
 p    1 1.00
                 0.727                   1

23 0
 s    3 1.00
                 13.01   0.033498726389998
                 1.962    0.23480080117413
                0.4446     0.8136829578829
 s    1 1.00
                 0.122                   1
 p    1 1.00
                 0.727                   1

24 0
 s    3 1.00
                 13.01   0.033498726389998
                 1.962    0.23480080117413
                0.4446     0.8136829578829
 s    1 1.00
                 0.122                   1
 p    1 1.00
                 0.727                   1

25 0
 s    8 1.00
                  6665  0.00069158396281299
                  1000  0.0053257961529341
                   228   0.027060721042034
                 64.71    0.10165684614077
                 21.06     0.2745748236174
                 7.495    0.44829431892377
                 2.797    0.28490261071525
                0.5215   0.015194859206082
 s    8 1.00
                  6665  -0.00029326965268655
                  1000  -0.0023180354739745
                   228  -0.011499786038565
                 64.71  -0.046826727009787
                 21.06   -0.12846616875047
                 7.495   -0.30126627246289
                 2.797   -0.25563070233011
                0.5215      1.093793361012
 s    1 1.00
                0.1596                   1
 p    3 1.00
                 9.439   0.056979251590039
                 2.002    0.31320721150073
                0.5456    0.76037674173753
 p    1 1.00
                0.1517                   1
 d    1 1.00
                  0.55                   1

26 0
 s    3 1.00
                 13.01   0.033498726389998
                 1.962    0.23480080117413
                0.4446     0.8136829578829
 s    1 1.00
                 0.122                   1
 p    1 1.00
                 0.727                   1

27 0
 s    3 1.00
                 13.01   0.033498726389998
                 1.962    0.23480080117413
                0.4446     0.8136829578829
 s    1 1.00
                 0.122                   1
 p    1 1.00
                 0.727                   1

28 0
 s    8 1.00
                  6665  0.00069158396281299
                  1000  0.0053257961529341
                   228   0.027060721042034
                 64.71    0.10165684614077
                 21.06     0.2745748236174
                 7.495    0.44829431892377
                 2.797    0.28490261071525
                0.5215   0.015194859206082
 s    8 1.00
                  6665  -0.00029326965268655
                  1000  -0.0023180354739745
                   228  -0.011499786038565
                 64.71  -0.046826727009787
                 21.06   -0.12846616875047
                 7.495   -0.30126627246289
                 2.797   -0.25563070233011
                0.5215      1.093793361012
 s    1 1.00
                0.1596                   1
 p    3 1.00
                 9.439   0.056979251590039
                 2.002    0.31320721150073
                0.5456    0.76037674173753
 p    1 1.00
                0.1517                   1
 d    1 1.00
                  0.55                   1

29 0
 s    3 1.00
                 13.01   0.033498726389998
                 1.962    0.23480080117413
                0.4446     0.8136829578829
 s    1 1.00
                 0.122                   1
 p    1 1.00
                 0.727                   1

30 0
 s    3 1.00
                 13.01   0.033498726389998
                 1.962    0.23480080117413
                0.4446     0.8136829578829
 s    1 1.00
                 0.122                   1
 p    1 1.00
                 0.727                   1

31 0
 s    8 1.00
                  6665  0.00069158396281299
                  1000  0.0053257961529341
                   228   0.027060721042034
                 64.71    0.10165684614077
                 21.06     0.2745748236174
                 7.495    0.44829431892377
                 2.797    0.28490261071525
                0.5215   0.015194859206082
 s    8 1.00
                  6665  -0.00029326965268655
                  1000  -0.0023180354739745
                   228  -0.011499786038565
                 64.71  -0.046826727009787
                 21.06   -0.12846616875047
                 7.495   -0.30126627246289
                 2.797   -0.25563070233011
                0.5215      1.093793361012
 s    1 1.00
                0.1596                   1
 p    3 1.00
                 9.439   0.056979251590039
                 2.002    0.31320721150073
                0.5456    0.76037674173753
 p    1 1.00
                0.1517                   1
 d    1 1.00
                  0.55                   1

32 0
 s    3 1.00
                 13.01   0.033498726389998
                 1.962    0.23480080117413
                0.4446     0.8136829578829
 s    1 1.00
                 0.122                   1
 p    1 1.00
                 0.727                   1

33 0
 s    3 1.00
                 13.01   0.033498726389998
                 1.962    0.23480080117413
                0.4446     0.8136829578829
 s    1 1.00
                 0.122                   1
 p    1 1.00
                 0.727                   1

34 0
 s    3 1.00
                 13.01   0.033498726389998
                 1.962    0.23480080117413
                0.4446     0.8136829578829
 s    1 1.00
                 0.122                   1
 p    1 1.00
                 0.727                   1

35 0
 s    3 1.00
                 13.01   0.033498726389998
                 1.962    0.23480080117413
                0.4446     0.8136829578829
 s    1 1.00
                 0.122                   1
 p    1 1.00
                 0.727                   1

36 0
 s    3 1.00
                 13.01   0.033498726389998
                 1.962    0.23480080117413
                0.4446     0.8136829578829
 s    1 1.00
                 0.122                   1
 p    1 1.00
                 0.727                   1

37 0
 s    3 1.00
                 13.01   0.033498726389998
                 1.962    0.23480080117413
                0.4446     0.8136829578829
 s    1 1.00
                 0.122                   1
 p    1 1.00
                 0.727                   1

[5d]
[7f]
[9g]

[MO]
 Sym= A
 Ene=               0
 Spin= Alpha
 Occup=    1.00000
   1    -5.7859661153697e-05
   2    -4.3951103921582e-05
   3    0.00013694356856156
   4    3.4635062583264e-07
   5    4.8986401223616e-06
   6    6.8106883268873e-06
   7    -3.1813858235382e-08
   8    -2.3810664577316e-05
   9    -5.3168242695202e-05
  10    6.0234354324133e-06
  11    -2.2212548917777e-07
  12    1.8834625447534e-06
  13    1.2122763936265e-06
  14    2.6258829643131e-08
  15    -5.8725434559241e-05
  16    -0.00022770408914229
  17    -7.972955859166e-07
  18    2.7763247001142e-06
  19    1.3491405097399e-05
  20    -4.8200643526447e-07
  21    5.2993284235108e-05
  22    1.5267403567533e-07
  23    5.4642210182374e-07
  24    -5.0229740798351e-06
  25       1.0013870496427
  26    0.0020030960856614
  27    -0.007009097870822
  28    -5.4073387878146e-06
  29    1.0974949871853e-05
  30    -0.0016094886930861
  31    -1.8833337568611e-06
  32    -4.6684832735418e-06
  33    0.0020187178111303
  34    0.00010476279850575
  35    -2.7553149206023e-06
  36    1.4982332477627e-06
  37    6.5753650866812e-05
  38    -0.00017114780220608
  39    0.00029579459346389
  40    0.00043701536546431
  41    0.0015985146342145
  42    1.6939931412519e-05
  43    -8.6874775889316e-06
  44    1.6265712074504e-05
  45    9.6309610519657e-05
  46    -7.2522756259042e-05
  47    0.0037187154645902
  48    -0.00050374676433916
  49    -8.978227229999e-06
  50    2.1605039667198e-06
  51    3.2710817139627e-05
  52    -0.00011732262532722
  53    -7.9870638862459e-05
  54    -0.00016295409659299
  55    0.0013874172990678
  56    0.00010775852352924
  57    -2.377793818477e-05
  58    6.4776744608396e-05
  59    -0.00041369226942292
  60    0.00047252376240732
  61    -0.0009504304636379
  62    -0.00011688063547336
  63    0.00015266284579473
  64    -0.00014307253080076
  65    5.6608804762408e-05
  66    -0.00013145169214559
  67    -3.4382885841982e-05
  68    -0.00010133119590779
  69    0.00054375424158738
  70    -8.3923847035177e-05
  71    6.4328552602903e-05
  72    3.7562321466907e-05
  73    0.0010112223762866
  74    -0.00077696296640753
  75    -0.00061774898823202
  76    -0.00013995805547382
  77    -0.00012595571592861
  78    8.8865396064025e-05
  79    6.2114008242262e-05
  80    -0.00015405701590417
  81    2.0679614952991e-05
  82    0.00024700081408112
  83    6.3655453896008e-05
  84    -4.6501801390656e-05
  85    4.4134992451413e-05
  86    1.2764649305978e-05
  87    8.105379210045e-06
  88    -0.00065529467961053
  89    3.2576620523752e-05
  90    -1.9763835975548e-06
  91    4.1320996797545e-06
  92    0.00028615618125454
  93    0.00066838758672045
  94    -1.2043572405808e-05
  95    2.1670742968362e-05
  96    1.247346509733e-05
  97    1.0025879847658e-05
  98    -2.0081347649034e-05
  99    -5.226903129246e-05
 100    -8.7941717566826e-05
 101    -0.00018612536976264
 102    4.9707994397633e-06
 103    -1.4613292555244e-05
 104    7.8773589554402e-05
 105    -9.6200311300504e-05
 106    -0.00023804796891404
 107    -6.6699123778716e-05
 108    3.8824845962029e-06
 109    7.3999614617486e-05
 110    4.4149708237878e-05
 111    -7.9265620793757e-05
 112    -4.2621544610189e-05
 113     2.40924270724e-05
 114    7.3103355602648e-05
 115    -3.7332470590722e-05
 116    -4.9386224064491e-05
 117    0.00087727370507346
 118    2.5486546408216e-05
 119    -3.8333717747118e-05
 120    2.5237562315229e-05
 121    0.00030272811138346
 122    2.8106915741276e-05
 123    -0.00016045773890353
 124    -8.0577001063081e-06
 125    8.0776165502937e-06
 126    1.5513771934179e-05
 127    -3.0343397780439e-05
 128    5.0616902706123e-05
 129    -1.9709231030705e-05
 130    -0.0003412080913737
 131    9.7195691150663e-06
 132    6.717937921426e-06
 133    2.9698672082301e-05
 134    -8.5176942290741e-06
 135    -0.0001189959159923
 136    -1.556705894229e-05
 137    -2.392880005163e-05
 138    -3.0940721648636e-05
 139    -2.2303848245174e-05
 140    -3.7443003113413e-05
 141    0.00031487210027198
 142    -9.7374419842128e-07
 143    6.8647639244356e-07
 144    -6.0840686362597e-06
 145    -0.00024195420201456
 146    6.2398836220541e-05
 147    5.8955996104349e-05
 148    -2.373673441835e-06
 149    3.7891985721508e-06
 150    -3.9749632063552e-06
 151    1.1339257456295e-05
 152    -4.709419948033e-06
 153    -8.170280761289e-05
 154    -9.8742702820819e-05
 155    -2.6901801978771e-05
 156    2.5558029248079e-05
 157    1.6914426175967e-05
 158    -7.3472121623069e-06
 159    -8.4948270926553e-05
 160    -5.689551268505e-05
 161    -5.9842205597214e-06
 162    5.3547840557631e-06
 163    -9.2876513647003e-07
 164    -8.8435415261524e-06
 165    -0.00026551786319908
 166    -2.7236916943969e-05
 167    2.0653976152347e-05
 168    3.1969976568926e-07
 169    0.00022741606236526
 170    -0.00020685528010556
 171    -0.0001435582359528
 172    -3.6286937736941e-06
 173    9.6636847658706e-06
 174    -1.3164182790285e-05
 175    3.7297134804915e-06
 176    -1.8846074199117e-05
 177    -2.1672432775555e-05
 178    8.5603822783237e-05
 179    -1.450499681814e-06
 180    1.5605641191204e-06
 181    -4.3491433159278e-06
 182    1.6368992149235e-05
 183    2.7795001042454e-05
 184    -8.2232187431004e-05
 185    -3.5226304149988e-06
 186    4.6305791666663e-06
 187    3.4411817431813e-06
 188    0.00013460214440883
 189    -0.00010256255480394
 190    -9.5003618308224e-05
 191    1.0501498863729e-06
 192    2.0194231648574e-06
 193    -7.3834928004389e-06
 194    -2.7452565089602e-06
 195    -5.8308909932759e-06
 196    -9.649000467744e-06
 197    -1.7913875539414e-05
 198    5.3405127373049e-06
 199    2.1862774917785e-06
 200    -3.1339371385712e-06
 201    -1.2680178663934e-05
 202    1.5273199864052e-06
 203    -1.3815111109763e-05
 204    1.0231070527159e-05
 205    1.1618252774263e-05
 206    9.1933775319214e-06
 207    6.9672855061554e-05
 208    -1.6472316165374e-05
 209    4.0133009726011e-06
 210    1.5765188471182e-05
 211    -1.8529481006027e-05
 212    -2.9946161585204e-05
 213    0.00027075004434893
 214    9.2120026396328e-06
 215    -3.9018184548396e-06
 216    -7.3185121076109e-06
 217    0.00019635807917939
 218    -5.2816563864656e-05
 219    -7.9848454667132e-05
 220    -1.7961489098259e-06
 221    -1.6689384889778e-05
 222    5.6502624175158e-06
 223    9.1866421281344e-06
 224    -1.3930996649604e-06
 225    2.6443841139349e-05
 226    5.765031444117e-05
 227    -1.2686045225315e-05
 228    -2.1394231025127e-06
 229    -9.5466706603461e-07
 230    9.5514901060688e-06
 231    5.3207344761732e-05
 232    -4.1356173192621e-06
 233    6.6064878261351e-06
 234    1.2174587149128e-05
 235    5.5540392952786e-07
 236    1.8571431652121e-06
 237    -7.9181990585392e-05
 238    1.2672747913539e-06
 239    2.7220555009013e-06
 240    -2.5333352552516e-06
 241     3.65034479599e-05
 242    -6.4141029085004e-05
 243    1.9528578806416e-05
 244    1.9414314388081e-06
 245    2.1099022109161e-06
 246    -1.8351433891583e-06
 247    9.7531360715279e-08
 248    8.668637924526e-07
 249    -1.6601836728453e-05
 250    1.0430523831334e-05
 251    -4.3001885909011e-06
 252    -9.4289555631407e-07
 253    7.5715092146934e-08
 254    -1.5594096957382e-05
 255    5.6387176764326e-05
 256    4.3186091571299e-07
 257    4.2302492532044e-06
 258    -8.1783456405736e-07
 259    -1.0526268834719e-05
 260    -2.0208991032636e-05
 261    6.9774353223966e-05
 262    -5.6492330803239e-06