[Molden Format]
made by pyscf v[2.0.1]
[Atoms] (AU)
O   1   8     0.00000000000000     0.00000000000000     7.16229833633744
H   2   1     0.00000000000000     0.00000000000000     5.33889651443647
H   3   1    -0.05031916615174     1.78353065140343     7.53817003280410
O   4   8     0.00000000000000     0.00000000000000     2.31533471513237
C   5   6     0.00000000000000     0.00000000000000     0.00000000000000
C   6   6     2.01118073026938    -1.40227222164369    -1.50774939176400
C   7   6    -2.01249334291722     1.41331050329955    -1.50315905028694
H   8   1     3.32037363730244    -2.26721897153159    -0.13599698591495
C   9   6     3.45899267434009     0.28739631745591    -3.37437943254505
H   10   1     1.07662969841332    -2.94725144642667    -2.56541439481080
H   11   1    -2.67503415753480     0.18421555839588    -3.06194479365997
H   12   1    -1.07974048864772     3.03851734677796    -2.43674295017013
C   13   6    -4.21607110578555     2.32938802552922     0.11994162256091
H   14   1     4.24440173074564     1.93368664142019    -2.34976285512790
H   15   1     2.15020713235517     1.04714335134846    -4.81494497423699
C   16   6     5.60746363007797    -1.12419643481196    -4.70268606082550
H   17   1    -3.46838323670267     3.50951302338067     1.66946842715333
H   18   1    -5.11873485366228     0.68575958301209     1.04047743976495
C   19   6    -6.18314754751344     3.80909592987882    -1.39656589068747
H   20   1     6.93011263717176    -1.87550812453645    -3.26656317360070
C   21   6     7.06356622236532     0.52877932406334    -6.57829775293605
H   22   1     4.82318879258361    -2.78573437948532    -5.70504560381835
H   23   1    -6.91582688743803     2.61304780074712    -2.95074552451969
H   24   1    -5.26532430573853     5.45420349051338    -2.31005832200284
C   25   6    -8.39941882261433     4.73263980500213     0.21800571437956
H   26   1     7.83338371486801     2.19084139882824    -5.57093109900697
H   27   1     5.73544244039420     1.27376866537418    -8.01071492370229
C   28   6     9.21124858443101    -0.89699110072176    -7.88926949186242
H   29   1    -7.66272760055236     5.92277078003992     1.77035591474408
H   30   1    -9.31497248082589     3.08753015622020     1.12614408368786
C   31   6   -10.35481709231879     6.21833079391143    -1.30905206253246
H   32   1    10.58815905329501    -1.61074586756696    -6.49512691622620
H   33   1    10.23506248045667     0.32468009384095    -9.23072870921204
H   34   1     8.47665842847139    -2.53598436989925    -8.94921964622535
H   35   1    -9.48948872868064     7.90013588951020    -2.18823918416067
H   36   1   -11.93332513000955     6.86460487874102    -0.11255798845995
H   37   1   -11.15126291841033     5.04495968327630    -2.83849898862534
[GTO]
1 0
 s    8 1.00
                 11720  0.00070964594651845
                  1759  0.0054672722921914
                 400.8   0.027823118610189
                 113.7    0.10474773971146
                 37.03    0.28292084635691
                 13.27    0.44849523869833
                 5.025    0.27081688521277
                 1.013    0.01545029160744
 s    8 1.00
                 11720  -0.00031444341168873
                  1759  -0.0024821376810179
                 400.8  -0.012316355381583
                 113.7  -0.050538917343672
                 37.03   -0.13938490331632
                 13.27   -0.32507749481778
                 5.025   -0.22984830758785
                 1.013     1.0953793467883
 s    1 1.00
                0.3023                   1
 p    3 1.00
                  17.7   0.062679166281506
                 3.854    0.33353656587936
                 1.046    0.74123964163973
 p    1 1.00
                0.2753                   1
 d    1 1.00
                 1.185                   1

2 0
 s    3 1.00
                 13.01   0.033498726389998
                 1.962    0.23480080117413
                0.4446     0.8136829578829
 s    1 1.00
                 0.122                   1
 p    1 1.00
                 0.727                   1

3 0
 s    3 1.00
                 13.01   0.033498726389998
                 1.962    0.23480080117413
                0.4446     0.8136829578829
 s    1 1.00
                 0.122                   1
 p    1 1.00
                 0.727                   1

4 0
 s    8 1.00
                 11720  0.00070964594651845
                  1759  0.0054672722921914
                 400.8   0.027823118610189
                 113.7    0.10474773971146
                 37.03    0.28292084635691
                 13.27    0.44849523869833
                 5.025    0.27081688521277
                 1.013    0.01545029160744
 s    8 1.00
                 11720  -0.00031444341168873
                  1759  -0.0024821376810179
                 400.8  -0.012316355381583
                 113.7  -0.050538917343672
                 37.03   -0.13938490331632
                 13.27   -0.32507749481778
                 5.025   -0.22984830758785
                 1.013     1.0953793467883
 s    1 1.00
                0.3023                   1
 p    3 1.00
                  17.7   0.062679166281506
                 3.854    0.33353656587936
                 1.046    0.74123964163973
 p    1 1.00
                0.2753                   1
 d    1 1.00
                 1.185                   1

5 0
 s    8 1.00
                  6665  0.00069158396281299
                  1000  0.0053257961529341
                   228   0.027060721042034
                 64.71    0.10165684614077
                 21.06     0.2745748236174
                 7.495    0.44829431892377
                 2.797    0.28490261071525
                0.5215   0.015194859206082
 s    8 1.00
                  6665  -0.00029326965268655
                  1000  -0.0023180354739745
                   228  -0.011499786038565
                 64.71  -0.046826727009787
                 21.06   -0.12846616875047
                 7.495   -0.30126627246289
                 2.797   -0.25563070233011
                0.5215      1.093793361012
 s    1 1.00
                0.1596                   1
 p    3 1.00
                 9.439   0.056979251590039
                 2.002    0.31320721150073
                0.5456    0.76037674173753
 p    1 1.00
                0.1517                   1
 d    1 1.00
                  0.55                   1

6 0
 s    8 1.00
                  6665  0.00069158396281299
                  1000  0.0053257961529341
                   228   0.027060721042034
                 64.71    0.10165684614077
                 21.06     0.2745748236174
                 7.495    0.44829431892377
                 2.797    0.28490261071525
                0.5215   0.015194859206082
 s    8 1.00
                  6665  -0.00029326965268655
                  1000  -0.0023180354739745
                   228  -0.011499786038565
                 64.71  -0.046826727009787
                 21.06   -0.12846616875047
                 7.495   -0.30126627246289
                 2.797   -0.25563070233011
                0.5215      1.093793361012
 s    1 1.00
                0.1596                   1
 p    3 1.00
                 9.439   0.056979251590039
                 2.002    0.31320721150073
                0.5456    0.76037674173753
 p    1 1.00
                0.1517                   1
 d    1 1.00
                  0.55                   1

7 0
 s    8 1.00
                  6665  0.00069158396281299
                  1000  0.0053257961529341
                   228   0.027060721042034
                 64.71    0.10165684614077
                 21.06     0.2745748236174
                 7.495    0.44829431892377
                 2.797    0.28490261071525
                0.5215   0.015194859206082
 s    8 1.00
                  6665  -0.00029326965268655
                  1000  -0.0023180354739745
                   228  -0.011499786038565
                 64.71  -0.046826727009787
                 21.06   -0.12846616875047
                 7.495   -0.30126627246289
                 2.797   -0.25563070233011
                0.5215      1.093793361012
 s    1 1.00
                0.1596                   1
 p    3 1.00
                 9.439   0.056979251590039
                 2.002    0.31320721150073
                0.5456    0.76037674173753
 p    1 1.00
                0.1517                   1
 d    1 1.00
                  0.55                   1

8 0
 s    3 1.00
                 13.01   0.033498726389998
                 1.962    0.23480080117413
                0.4446     0.8136829578829
 s    1 1.00
                 0.122                   1
 p    1 1.00
                 0.727                   1

9 0
 s    8 1.00
                  6665  0.00069158396281299
                  1000  0.0053257961529341
                   228   0.027060721042034
                 64.71    0.10165684614077
                 21.06     0.2745748236174
                 7.495    0.44829431892377
                 2.797    0.28490261071525
                0.5215   0.015194859206082
 s    8 1.00
                  6665  -0.00029326965268655
                  1000  -0.0023180354739745
                   228  -0.011499786038565
                 64.71  -0.046826727009787
                 21.06   -0.12846616875047
                 7.495   -0.30126627246289
                 2.797   -0.25563070233011
                0.5215      1.093793361012
 s    1 1.00
                0.1596                   1
 p    3 1.00
                 9.439   0.056979251590039
                 2.002    0.31320721150073
                0.5456    0.76037674173753
 p    1 1.00
                0.1517                   1
 d    1 1.00
                  0.55                   1

10 0
 s    3 1.00
                 13.01   0.033498726389998
                 1.962    0.23480080117413
                0.4446     0.8136829578829
 s    1 1.00
                 0.122                   1
 p    1 1.00
                 0.727                   1

11 0
 s    3 1.00
                 13.01   0.033498726389998
                 1.962    0.23480080117413
                0.4446     0.8136829578829
 s    1 1.00
                 0.122                   1
 p    1 1.00
                 0.727                   1

12 0
 s    3 1.00
                 13.01   0.033498726389998
                 1.962    0.23480080117413
                0.4446     0.8136829578829
 s    1 1.00
                 0.122                   1
 p    1 1.00
                 0.727                   1

13 0
 s    8 1.00
                  6665  0.00069158396281299
                  1000  0.0053257961529341
                   228   0.027060721042034
                 64.71    0.10165684614077
                 21.06     0.2745748236174
                 7.495    0.44829431892377
                 2.797    0.28490261071525
                0.5215   0.015194859206082
 s    8 1.00
                  6665  -0.00029326965268655
                  1000  -0.0023180354739745
                   228  -0.011499786038565
                 64.71  -0.046826727009787
                 21.06   -0.12846616875047
                 7.495   -0.30126627246289
                 2.797   -0.25563070233011
                0.5215      1.093793361012
 s    1 1.00
                0.1596                   1
 p    3 1.00
                 9.439   0.056979251590039
                 2.002    0.31320721150073
                0.5456    0.76037674173753
 p    1 1.00
                0.1517                   1
 d    1 1.00
                  0.55                   1

14 0
 s    3 1.00
                 13.01   0.033498726389998
                 1.962    0.23480080117413
                0.4446     0.8136829578829
 s    1 1.00
                 0.122                   1
 p    1 1.00
                 0.727                   1

15 0
 s    3 1.00
                 13.01   0.033498726389998
                 1.962    0.23480080117413
                0.4446     0.8136829578829
 s    1 1.00
                 0.122                   1
 p    1 1.00
                 0.727                   1

16 0
 s    8 1.00
                  6665  0.00069158396281299
                  1000  0.0053257961529341
                   228   0.027060721042034
                 64.71    0.10165684614077
                 21.06     0.2745748236174
                 7.495    0.44829431892377
                 2.797    0.28490261071525
                0.5215   0.015194859206082
 s    8 1.00
                  6665  -0.00029326965268655
                  1000  -0.0023180354739745
                   228  -0.011499786038565
                 64.71  -0.046826727009787
                 21.06   -0.12846616875047
                 7.495   -0.30126627246289
                 2.797   -0.25563070233011
                0.5215      1.093793361012
 s    1 1.00
                0.1596                   1
 p    3 1.00
                 9.439   0.056979251590039
                 2.002    0.31320721150073
                0.5456    0.76037674173753
 p    1 1.00
                0.1517                   1
 d    1 1.00
                  0.55                   1

17 0
 s    3 1.00
                 13.01   0.033498726389998
                 1.962    0.23480080117413
                0.4446     0.8136829578829
 s    1 1.00
                 0.122                   1
 p    1 1.00
                 0.727                   1

18 0
 s    3 1.00
                 13.01   0.033498726389998
                 1.962    0.23480080117413
                0.4446     0.8136829578829
 s    1 1.00
                 0.122                   1
 p    1 1.00
                 0.727                   1

19 0
 s    8 1.00
                  6665  0.00069158396281299
                  1000  0.0053257961529341
                   228   0.027060721042034
                 64.71    0.10165684614077
                 21.06     0.2745748236174
                 7.495    0.44829431892377
                 2.797    0.28490261071525
                0.5215   0.015194859206082
 s    8 1.00
                  6665  -0.00029326965268655
                  1000  -0.0023180354739745
                   228  -0.011499786038565
                 64.71  -0.046826727009787
                 21.06   -0.12846616875047
                 7.495   -0.30126627246289
                 2.797   -0.25563070233011
                0.5215      1.093793361012
 s    1 1.00
                0.1596                   1
 p    3 1.00
                 9.439   0.056979251590039
                 2.002    0.31320721150073
                0.5456    0.76037674173753
 p    1 1.00
                0.1517                   1
 d    1 1.00
                  0.55                   1

20 0
 s    3 1.00
                 13.01   0.033498726389998
                 1.962    0.23480080117413
                0.4446     0.8136829578829
 s    1 1.00
                 0.122                   1
 p    1 1.00
                 0.727                   1

21 0
 s    8 1.00
                  6665  0.00069158396281299
                  1000  0.0053257961529341
                   228   0.027060721042034
                 64.71    0.10165684614077
                 21.06     0.2745748236174
                 7.495    0.44829431892377
                 2.797    0.28490261071525
                0.5215   0.015194859206082
 s    8 1.00
                  6665  -0.00029326965268655
                  1000  -0.0023180354739745
                   228  -0.011499786038565
                 64.71  -0.046826727009787
                 21.06   -0.12846616875047
                 7.495   -0.30126627246289
                 2.797   -0.25563070233011
                0.5215      1.093793361012
 s    1 1.00
                0.1596                   1
 p    3 1.00
                 9.439   0.056979251590039
                 2.002    0.31320721150073
                0.5456    0.76037674173753
 p    1 1.00
                0.1517                   1
 d    1 1.00
                  0.55                   1

22 0
 s    3 1.00
                 13.01   0.033498726389998
                 1.962    0.23480080117413
                0.4446     0.8136829578829
 s    1 1.00
                 0.122                   1
 p    1 1.00
                 0.727                   1

23 0
 s    3 1.00
                 13.01   0.033498726389998
                 1.962    0.23480080117413
                0.4446     0.8136829578829
 s    1 1.00
                 0.122                   1
 p    1 1.00
                 0.727                   1

24 0
 s    3 1.00
                 13.01   0.033498726389998
                 1.962    0.23480080117413
                0.4446     0.8136829578829
 s    1 1.00
                 0.122                   1
 p    1 1.00
                 0.727                   1

25 0
 s    8 1.00
                  6665  0.00069158396281299
                  1000  0.0053257961529341
                   228   0.027060721042034
                 64.71    0.10165684614077
                 21.06     0.2745748236174
                 7.495    0.44829431892377
                 2.797    0.28490261071525
                0.5215   0.015194859206082
 s    8 1.00
                  6665  -0.00029326965268655
                  1000  -0.0023180354739745
                   228  -0.011499786038565
                 64.71  -0.046826727009787
                 21.06   -0.12846616875047
                 7.495   -0.30126627246289
                 2.797   -0.25563070233011
                0.5215      1.093793361012
 s    1 1.00
                0.1596                   1
 p    3 1.00
                 9.439   0.056979251590039
                 2.002    0.31320721150073
                0.5456    0.76037674173753
 p    1 1.00
                0.1517                   1
 d    1 1.00
                  0.55                   1

26 0
 s    3 1.00
                 13.01   0.033498726389998
                 1.962    0.23480080117413
                0.4446     0.8136829578829
 s    1 1.00
                 0.122                   1
 p    1 1.00
                 0.727                   1

27 0
 s    3 1.00
                 13.01   0.033498726389998
                 1.962    0.23480080117413
                0.4446     0.8136829578829
 s    1 1.00
                 0.122                   1
 p    1 1.00
                 0.727                   1

28 0
 s    8 1.00
                  6665  0.00069158396281299
                  1000  0.0053257961529341
                   228   0.027060721042034
                 64.71    0.10165684614077
                 21.06     0.2745748236174
                 7.495    0.44829431892377
                 2.797    0.28490261071525
                0.5215   0.015194859206082
 s    8 1.00
                  6665  -0.00029326965268655
                  1000  -0.0023180354739745
                   228  -0.011499786038565
                 64.71  -0.046826727009787
                 21.06   -0.12846616875047
                 7.495   -0.30126627246289
                 2.797   -0.25563070233011
                0.5215      1.093793361012
 s    1 1.00
                0.1596                   1
 p    3 1.00
                 9.439   0.056979251590039
                 2.002    0.31320721150073
                0.5456    0.76037674173753
 p    1 1.00
                0.1517                   1
 d    1 1.00
                  0.55                   1

29 0
 s    3 1.00
                 13.01   0.033498726389998
                 1.962    0.23480080117413
                0.4446     0.8136829578829
 s    1 1.00
                 0.122                   1
 p    1 1.00
                 0.727                   1

30 0
 s    3 1.00
                 13.01   0.033498726389998
                 1.962    0.23480080117413
                0.4446     0.8136829578829
 s    1 1.00
                 0.122                   1
 p    1 1.00
                 0.727                   1

31 0
 s    8 1.00
                  6665  0.00069158396281299
                  1000  0.0053257961529341
                   228   0.027060721042034
                 64.71    0.10165684614077
                 21.06     0.2745748236174
                 7.495    0.44829431892377
                 2.797    0.28490261071525
                0.5215   0.015194859206082
 s    8 1.00
                  6665  -0.00029326965268655
                  1000  -0.0023180354739745
                   228  -0.011499786038565
                 64.71  -0.046826727009787
                 21.06   -0.12846616875047
                 7.495   -0.30126627246289
                 2.797   -0.25563070233011
                0.5215      1.093793361012
 s    1 1.00
                0.1596                   1
 p    3 1.00
                 9.439   0.056979251590039
                 2.002    0.31320721150073
                0.5456    0.76037674173753
 p    1 1.00
                0.1517                   1
 d    1 1.00
                  0.55                   1

32 0
 s    3 1.00
                 13.01   0.033498726389998
                 1.962    0.23480080117413
                0.4446     0.8136829578829
 s    1 1.00
                 0.122                   1
 p    1 1.00
                 0.727                   1

33 0
 s    3 1.00
                 13.01   0.033498726389998
                 1.962    0.23480080117413
                0.4446     0.8136829578829
 s    1 1.00
                 0.122                   1
 p    1 1.00
                 0.727                   1

34 0
 s    3 1.00
                 13.01   0.033498726389998
                 1.962    0.23480080117413
                0.4446     0.8136829578829
 s    1 1.00
                 0.122                   1
 p    1 1.00
                 0.727                   1

35 0
 s    3 1.00
                 13.01   0.033498726389998
                 1.962    0.23480080117413
                0.4446     0.8136829578829
 s    1 1.00
                 0.122                   1
 p    1 1.00
                 0.727                   1

36 0
 s    3 1.00
                 13.01   0.033498726389998
                 1.962    0.23480080117413
                0.4446     0.8136829578829
 s    1 1.00
                 0.122                   1
 p    1 1.00
                 0.727                   1

37 0
 s    3 1.00
                 13.01   0.033498726389998
                 1.962    0.23480080117413
                0.4446     0.8136829578829
 s    1 1.00
                 0.122                   1
 p    1 1.00
                 0.727                   1

[5d]
[7f]
[9g]

[MO]
 Sym= A
 Ene=               0
 Spin= Alpha
 Occup=    1.00000
   1    5.9190634313918e-05
   2    1.0463104536686e-05
   3    -3.4403178141361e-05
   4    -9.0917319901136e-07
   5    -2.0189490156581e-06
   6    -1.0671942347035e-05
   7    1.1254543029968e-06
   8    1.8100859327757e-05
   9    -3.1551065996126e-05
  10    1.5592206813326e-05
  11    3.1514452612531e-07
  12    -2.979544803397e-06
  13    -2.9214607317775e-06
  14    -1.0294556035332e-07
  15    3.5771356736633e-05
  16    0.00018525842147351
  17    1.2945161269992e-06
  18      -3.999587866e-06
  19    -3.4355328879941e-05
  20    -1.3771338282113e-05
  21    -1.8975094938839e-05
  22    -2.0335587774761e-07
  23    -3.9871390360903e-06
  24    9.2134430029353e-06
  25      -1.0014028256155
  26    -0.0020603995965528
  27    0.0070589041428637
  28    5.6282561074101e-06
  29    -1.3748274825304e-05
  30    0.0015800328933361
  31    1.1460573460294e-06
  32    5.5484189279797e-06
  33    -0.002072332528292
  34    -0.00010842374036838
  35    2.7043028039021e-06
  36    -1.355534185206e-06
  37    -6.3787403578513e-05
  38    0.00016642566423732
  39    -0.00029979960890731
  40    -0.00044448706764109
  41    -0.0016572460698583
  42    -1.7242799983551e-05
  43    8.8710669171029e-06
  44    -2.7567015022071e-05
  45    -9.345535564069e-05
  46    7.084306422677e-05
  47    -0.0037632485919153
  48    0.00049440561864078
  49    8.833966914234e-06
  50    -1.8901265909893e-06
  51    -3.348329598547e-05
  52    0.00011938522531418
  53    7.9384112712571e-05
  54    0.00016233052331182
  55    -0.0013921843987746
  56    -0.00010803621006649
  57    2.396779182066e-05
  58    -6.2828000795281e-05
  59    0.00041283047263865
  60    -0.00047333780514723
  61    0.00096375764847656
  62    0.0001163045055143
  63    -0.00015318600078695
  64    0.00014371731482977
  65    -5.644148842101e-05
  66    0.00013062416131322
  67    3.3011449001102e-05
  68    9.9244801133883e-05
  69    -0.00053390289921715
  70    8.4310667893327e-05
  71    -6.4700955320873e-05
  72    -3.4886804441523e-05
  73    -0.0010163236977944
  74    0.00078024512556805
  75    0.00063132108013683
  76     0.000139370416561
  77    0.00012653064562105
  78    -8.9193011837641e-05
  79    -6.1800478518866e-05
  80    0.00015324900481583
  81    -2.0228131379901e-05
  82    -0.00024786105717938
  83    -6.4220514525314e-05
  84    4.692788944939e-05
  85    -4.4005993041794e-05
  86    -1.2963877907597e-05
  87    -9.0225127716448e-06
  88    0.00065666853902578
  89    -3.1407731816203e-05
  90    2.2880548333913e-06
  91    -4.4413948433402e-06
  92    -0.00028679088079749
  93    -0.00067346982529861
  94    1.234287144439e-05
  95    -2.1872772173548e-05
  96    -1.2443951651425e-05
  97    -1.0120767586391e-05
  98    1.9611017704407e-05
  99    5.3140209240419e-05
 100    8.7054871683811e-05
 101    0.00018720800682887
 102    -4.156660765107e-06
 103    1.4594628924926e-05
 104    -7.9528020367215e-05
 105    9.4119312095824e-05
 106    0.00023837727293713
 107    6.6416074368803e-05
 108    -3.0941167639839e-06
 109    -7.496311396847e-05
 110    -4.6201431226253e-05
 111    8.0777151242447e-05
 112    4.2306603050876e-05
 113    -2.4421938429773e-05
 114    -7.3805516939738e-05
 115    3.8354496847687e-05
 116    5.1345681640344e-05
 117    -0.00089467521055133
 118    -2.4988363098033e-05
 119    3.8241607101445e-05
 120    -2.6299276436288e-05
 121    -0.0003018748887165
 122    -3.0877266095862e-05
 123    0.0001652764849229
 124    7.7033636508102e-06
 125    -7.7864986613207e-06
 126    -1.5513018444387e-05
 127    3.0603135531199e-05
 128    -5.1214989156612e-05
 129    1.9265147750451e-05
 130    0.00034465879492633
 131    -9.8062473076743e-06
 132    -6.6427161239181e-06
 133    -2.9855574755683e-05
 134    8.0475467223557e-06
 135    0.00011913542064459
 136    1.5751501069534e-05
 137    2.4182379123344e-05
 138    3.0904118392443e-05
 139    2.2326318753896e-05
 140    3.7653437692475e-05
 141    -0.0003168625773075
 142     7.51495556284e-07
 143    -3.3755893777864e-07
 144    6.205413486004e-06
 145    0.00024002942286144
 146    -6.4193810392389e-05
 147    -5.7967798417245e-05
 148    2.3621137349689e-06
 149    -3.9429834544572e-06
 150    4.3038659286326e-06
 151    -1.1484184466019e-05
 152    4.5666666785481e-06
 153    8.203958688426e-05
 154    9.8443616072839e-05
 155    2.6808054011408e-05
 156    -2.5449140831884e-05
 157    -1.7374524824686e-05
 158    7.442482215917e-06
 159    8.6212201853447e-05
 160    5.7147327158597e-05
 161    6.4174537090766e-06
 162    -5.7710839232392e-06
 163    2.4796313837873e-07
 164    7.7452884434652e-06
 165    0.00027581926853444
 166    2.7420523290051e-05
 167    -2.0812103789476e-05
 168    -2.0486436024705e-07
 169    -0.00022445095352484
 170    0.0002056197473842
 171    0.00014645113886373
 172    3.3904546144899e-06
 173    -9.603306288432e-06
 174    1.3155516648142e-05
 175    -3.5842454362286e-06
 176    1.8638430319476e-05
 177    2.1840018106506e-05
 178    -8.6104663104305e-05
 179    1.6352700478035e-06
 180    -1.4285508106357e-06
 181    4.2450433582509e-06
 182    -1.6628398477242e-05
 183    -2.8282076008237e-05
 184    8.5108688353952e-05
 185    3.4845796957754e-06
 186    -4.6822092471781e-06
 187    -3.4933316510677e-06
 188    -0.00013546793839458
 189    0.00010290870171272
 190    9.7271928026851e-05
 191    -9.8197928056578e-07
 192    -2.0970731926843e-06
 193    7.3454213990291e-06
 194    2.7236268628486e-06
 195    5.9508546710398e-06
 196    9.232627451516e-06
 197    1.7796716848831e-05
 198    -5.3078719473458e-06
 199    -2.1884695749994e-06
 200    3.0662357891251e-06
 201    1.2298849093985e-05
 202    -1.1001477892986e-06
 203    1.3815181102625e-05
 204    -1.0163047306267e-05
 205    -1.1637973167469e-05
 206    -9.7224299643692e-06
 207    -7.0441524627422e-05
 208    1.6390129353379e-05
 209    -3.940349028028e-06
 210    -1.5901028520054e-05
 211    1.8662201263866e-05
 212    3.0220876084397e-05
 213    -0.00027290103857628
 214    -9.2149849036811e-06
 215    3.8902749632243e-06
 216    7.3573568325727e-06
 217    -0.00019739630079506
 218    5.2903511546873e-05
 219    8.0716953378054e-05
 220    1.8234312110517e-06
 221    1.6797089125812e-05
 222    -5.6759020376053e-06
 223    -9.2851278393303e-06
 224    1.4323629381874e-06
 225    -2.6874963582779e-05
 226    -5.8599907519778e-05
 227    1.2783922881385e-05
 228    2.2241419037176e-06
 229    9.3533510380834e-07
 230    -9.628975410902e-06
 231    -5.301725890072e-05
 232    4.1870251074781e-06
 233    -6.6769892361521e-06
 234    -1.2264731511765e-05
 235    -6.518444549681e-07
 236    -2.0051250589006e-06
 237    8.0049929119321e-05
 238    -1.2666635671107e-06
 239    -2.7016657835495e-06
 240    2.5548558107448e-06
 241    -3.7351054427352e-05
 242    6.4356622275005e-05
 243    -1.945809869067e-05
 244    -1.9810463412462e-06
 245    -2.1495175926927e-06
 246    1.8095346671961e-06
 247    -4.8772723341214e-08
 248    -8.9563536807886e-07
 249     1.66917223498e-05
 250    -1.0508142571815e-05
 251    4.3034003685222e-06
 252    9.7758317716958e-07
 253    -6.973556619159e-08
 254    1.575612337249e-05
 255    -5.71592922319e-05
 256    -5.1477619307165e-07
 257    -4.2708555952248e-06
 258    8.3175712980838e-07
 259    1.0391050125935e-05
 260    1.9952796834133e-05
 261    -6.8986766867202e-05
 262    5.5916663960691e-06
 263    -2.8065801496731e-06