[Molden Format]
made by pyscf v[2.0.1]
[Atoms] (AU)
O   1   8     0.00000000000000     0.00000000000000    10.56380536055454
H   2   1     0.00000000000000     0.00000000000000     8.74040353865358
H   3   1    -0.05031916615174     1.78353065140343    10.93967705702121
O   4   8     0.00000000000000     0.00000000000000     2.31533471513237
C   5   6     0.00000000000000     0.00000000000000     0.00000000000000
C   6   6     2.01118073026938    -1.40227222164369    -1.50774939176400
C   7   6    -2.01249334291722     1.41331050329955    -1.50315905028694
H   8   1     3.32037363730244    -2.26721897153159    -0.13599698591495
C   9   6     3.45899267434009     0.28739631745591    -3.37437943254505
H   10   1     1.07662969841332    -2.94725144642667    -2.56541439481080
H   11   1    -2.67503415753480     0.18421555839588    -3.06194479365997
H   12   1    -1.07974048864772     3.03851734677796    -2.43674295017013
C   13   6    -4.21607110578555     2.32938802552922     0.11994162256091
H   14   1     4.24440173074564     1.93368664142019    -2.34976285512790
H   15   1     2.15020713235517     1.04714335134846    -4.81494497423699
C   16   6     5.60746363007797    -1.12419643481196    -4.70268606082550
H   17   1    -3.46838323670267     3.50951302338067     1.66946842715333
H   18   1    -5.11873485366228     0.68575958301209     1.04047743976495
C   19   6    -6.18314754751344     3.80909592987882    -1.39656589068747
H   20   1     6.93011263717176    -1.87550812453645    -3.26656317360070
C   21   6     7.06356622236532     0.52877932406334    -6.57829775293605
H   22   1     4.82318879258361    -2.78573437948532    -5.70504560381835
H   23   1    -6.91582688743803     2.61304780074712    -2.95074552451969
H   24   1    -5.26532430573853     5.45420349051338    -2.31005832200284
C   25   6    -8.39941882261433     4.73263980500213     0.21800571437956
H   26   1     7.83338371486801     2.19084139882824    -5.57093109900697
H   27   1     5.73544244039420     1.27376866537418    -8.01071492370229
C   28   6     9.21124858443101    -0.89699110072176    -7.88926949186242
H   29   1    -7.66272760055236     5.92277078003992     1.77035591474408
H   30   1    -9.31497248082589     3.08753015622020     1.12614408368786
C   31   6   -10.35481709231879     6.21833079391143    -1.30905206253246
H   32   1    10.58815905329501    -1.61074586756696    -6.49512691622620
H   33   1    10.23506248045667     0.32468009384095    -9.23072870921204
H   34   1     8.47665842847139    -2.53598436989925    -8.94921964622535
H   35   1    -9.48948872868064     7.90013588951020    -2.18823918416067
H   36   1   -11.93332513000955     6.86460487874102    -0.11255798845995
H   37   1   -11.15126291841033     5.04495968327630    -2.83849898862534
[GTO]
1 0
 s    8 1.00
                 11720  0.00070964594651845
                  1759  0.0054672722921914
                 400.8   0.027823118610189
                 113.7    0.10474773971146
                 37.03    0.28292084635691
                 13.27    0.44849523869833
                 5.025    0.27081688521277
                 1.013    0.01545029160744
 s    8 1.00
                 11720  -0.00031444341168873
                  1759  -0.0024821376810179
                 400.8  -0.012316355381583
                 113.7  -0.050538917343672
                 37.03   -0.13938490331632
                 13.27   -0.32507749481778
                 5.025   -0.22984830758785
                 1.013     1.0953793467883
 s    1 1.00
                0.3023                   1
 p    3 1.00
                  17.7   0.062679166281506
                 3.854    0.33353656587936
                 1.046    0.74123964163973
 p    1 1.00
                0.2753                   1
 d    1 1.00
                 1.185                   1

2 0
 s    3 1.00
                 13.01   0.033498726389998
                 1.962    0.23480080117413
                0.4446     0.8136829578829
 s    1 1.00
                 0.122                   1
 p    1 1.00
                 0.727                   1

3 0
 s    3 1.00
                 13.01   0.033498726389998
                 1.962    0.23480080117413
                0.4446     0.8136829578829
 s    1 1.00
                 0.122                   1
 p    1 1.00
                 0.727                   1

4 0
 s    8 1.00
                 11720  0.00070964594651845
                  1759  0.0054672722921914
                 400.8   0.027823118610189
                 113.7    0.10474773971146
                 37.03    0.28292084635691
                 13.27    0.44849523869833
                 5.025    0.27081688521277
                 1.013    0.01545029160744
 s    8 1.00
                 11720  -0.00031444341168873
                  1759  -0.0024821376810179
                 400.8  -0.012316355381583
                 113.7  -0.050538917343672
                 37.03   -0.13938490331632
                 13.27   -0.32507749481778
                 5.025   -0.22984830758785
                 1.013     1.0953793467883
 s    1 1.00
                0.3023                   1
 p    3 1.00
                  17.7   0.062679166281506
                 3.854    0.33353656587936
                 1.046    0.74123964163973
 p    1 1.00
                0.2753                   1
 d    1 1.00
                 1.185                   1

5 0
 s    8 1.00
                  6665  0.00069158396281299
                  1000  0.0053257961529341
                   228   0.027060721042034
                 64.71    0.10165684614077
                 21.06     0.2745748236174
                 7.495    0.44829431892377
                 2.797    0.28490261071525
                0.5215   0.015194859206082
 s    8 1.00
                  6665  -0.00029326965268655
                  1000  -0.0023180354739745
                   228  -0.011499786038565
                 64.71  -0.046826727009787
                 21.06   -0.12846616875047
                 7.495   -0.30126627246289
                 2.797   -0.25563070233011
                0.5215      1.093793361012
 s    1 1.00
                0.1596                   1
 p    3 1.00
                 9.439   0.056979251590039
                 2.002    0.31320721150073
                0.5456    0.76037674173753
 p    1 1.00
                0.1517                   1
 d    1 1.00
                  0.55                   1

6 0
 s    8 1.00
                  6665  0.00069158396281299
                  1000  0.0053257961529341
                   228   0.027060721042034
                 64.71    0.10165684614077
                 21.06     0.2745748236174
                 7.495    0.44829431892377
                 2.797    0.28490261071525
                0.5215   0.015194859206082
 s    8 1.00
                  6665  -0.00029326965268655
                  1000  -0.0023180354739745
                   228  -0.011499786038565
                 64.71  -0.046826727009787
                 21.06   -0.12846616875047
                 7.495   -0.30126627246289
                 2.797   -0.25563070233011
                0.5215      1.093793361012
 s    1 1.00
                0.1596                   1
 p    3 1.00
                 9.439   0.056979251590039
                 2.002    0.31320721150073
                0.5456    0.76037674173753
 p    1 1.00
                0.1517                   1
 d    1 1.00
                  0.55                   1

7 0
 s    8 1.00
                  6665  0.00069158396281299
                  1000  0.0053257961529341
                   228   0.027060721042034
                 64.71    0.10165684614077
                 21.06     0.2745748236174
                 7.495    0.44829431892377
                 2.797    0.28490261071525
                0.5215   0.015194859206082
 s    8 1.00
                  6665  -0.00029326965268655
                  1000  -0.0023180354739745
                   228  -0.011499786038565
                 64.71  -0.046826727009787
                 21.06   -0.12846616875047
                 7.495   -0.30126627246289
                 2.797   -0.25563070233011
                0.5215      1.093793361012
 s    1 1.00
                0.1596                   1
 p    3 1.00
                 9.439   0.056979251590039
                 2.002    0.31320721150073
                0.5456    0.76037674173753
 p    1 1.00
                0.1517                   1
 d    1 1.00
                  0.55                   1

8 0
 s    3 1.00
                 13.01   0.033498726389998
                 1.962    0.23480080117413
                0.4446     0.8136829578829
 s    1 1.00
                 0.122                   1
 p    1 1.00
                 0.727                   1

9 0
 s    8 1.00
                  6665  0.00069158396281299
                  1000  0.0053257961529341
                   228   0.027060721042034
                 64.71    0.10165684614077
                 21.06     0.2745748236174
                 7.495    0.44829431892377
                 2.797    0.28490261071525
                0.5215   0.015194859206082
 s    8 1.00
                  6665  -0.00029326965268655
                  1000  -0.0023180354739745
                   228  -0.011499786038565
                 64.71  -0.046826727009787
                 21.06   -0.12846616875047
                 7.495   -0.30126627246289
                 2.797   -0.25563070233011
                0.5215      1.093793361012
 s    1 1.00
                0.1596                   1
 p    3 1.00
                 9.439   0.056979251590039
                 2.002    0.31320721150073
                0.5456    0.76037674173753
 p    1 1.00
                0.1517                   1
 d    1 1.00
                  0.55                   1

10 0
 s    3 1.00
                 13.01   0.033498726389998
                 1.962    0.23480080117413
                0.4446     0.8136829578829
 s    1 1.00
                 0.122                   1
 p    1 1.00
                 0.727                   1

11 0
 s    3 1.00
                 13.01   0.033498726389998
                 1.962    0.23480080117413
                0.4446     0.8136829578829
 s    1 1.00
                 0.122                   1
 p    1 1.00
                 0.727                   1

12 0
 s    3 1.00
                 13.01   0.033498726389998
                 1.962    0.23480080117413
                0.4446     0.8136829578829
 s    1 1.00
                 0.122                   1
 p    1 1.00
                 0.727                   1

13 0
 s    8 1.00
                  6665  0.00069158396281299
                  1000  0.0053257961529341
                   228   0.027060721042034
                 64.71    0.10165684614077
                 21.06     0.2745748236174
                 7.495    0.44829431892377
                 2.797    0.28490261071525
                0.5215   0.015194859206082
 s    8 1.00
                  6665  -0.00029326965268655
                  1000  -0.0023180354739745
                   228  -0.011499786038565
                 64.71  -0.046826727009787
                 21.06   -0.12846616875047
                 7.495   -0.30126627246289
                 2.797   -0.25563070233011
                0.5215      1.093793361012
 s    1 1.00
                0.1596                   1
 p    3 1.00
                 9.439   0.056979251590039
                 2.002    0.31320721150073
                0.5456    0.76037674173753
 p    1 1.00
                0.1517                   1
 d    1 1.00
                  0.55                   1

14 0
 s    3 1.00
                 13.01   0.033498726389998
                 1.962    0.23480080117413
                0.4446     0.8136829578829
 s    1 1.00
                 0.122                   1
 p    1 1.00
                 0.727                   1

15 0
 s    3 1.00
                 13.01   0.033498726389998
                 1.962    0.23480080117413
                0.4446     0.8136829578829
 s    1 1.00
                 0.122                   1
 p    1 1.00
                 0.727                   1

16 0
 s    8 1.00
                  6665  0.00069158396281299
                  1000  0.0053257961529341
                   228   0.027060721042034
                 64.71    0.10165684614077
                 21.06     0.2745748236174
                 7.495    0.44829431892377
                 2.797    0.28490261071525
                0.5215   0.015194859206082
 s    8 1.00
                  6665  -0.00029326965268655
                  1000  -0.0023180354739745
                   228  -0.011499786038565
                 64.71  -0.046826727009787
                 21.06   -0.12846616875047
                 7.495   -0.30126627246289
                 2.797   -0.25563070233011
                0.5215      1.093793361012
 s    1 1.00
                0.1596                   1
 p    3 1.00
                 9.439   0.056979251590039
                 2.002    0.31320721150073
                0.5456    0.76037674173753
 p    1 1.00
                0.1517                   1
 d    1 1.00
                  0.55                   1

17 0
 s    3 1.00
                 13.01   0.033498726389998
                 1.962    0.23480080117413
                0.4446     0.8136829578829
 s    1 1.00
                 0.122                   1
 p    1 1.00
                 0.727                   1

18 0
 s    3 1.00
                 13.01   0.033498726389998
                 1.962    0.23480080117413
                0.4446     0.8136829578829
 s    1 1.00
                 0.122                   1
 p    1 1.00
                 0.727                   1

19 0
 s    8 1.00
                  6665  0.00069158396281299
                  1000  0.0053257961529341
                   228   0.027060721042034
                 64.71    0.10165684614077
                 21.06     0.2745748236174
                 7.495    0.44829431892377
                 2.797    0.28490261071525
                0.5215   0.015194859206082
 s    8 1.00
                  6665  -0.00029326965268655
                  1000  -0.0023180354739745
                   228  -0.011499786038565
                 64.71  -0.046826727009787
                 21.06   -0.12846616875047
                 7.495   -0.30126627246289
                 2.797   -0.25563070233011
                0.5215      1.093793361012
 s    1 1.00
                0.1596                   1
 p    3 1.00
                 9.439   0.056979251590039
                 2.002    0.31320721150073
                0.5456    0.76037674173753
 p    1 1.00
                0.1517                   1
 d    1 1.00
                  0.55                   1

20 0
 s    3 1.00
                 13.01   0.033498726389998
                 1.962    0.23480080117413
                0.4446     0.8136829578829
 s    1 1.00
                 0.122                   1
 p    1 1.00
                 0.727                   1

21 0
 s    8 1.00
                  6665  0.00069158396281299
                  1000  0.0053257961529341
                   228   0.027060721042034
                 64.71    0.10165684614077
                 21.06     0.2745748236174
                 7.495    0.44829431892377
                 2.797    0.28490261071525
                0.5215   0.015194859206082
 s    8 1.00
                  6665  -0.00029326965268655
                  1000  -0.0023180354739745
                   228  -0.011499786038565
                 64.71  -0.046826727009787
                 21.06   -0.12846616875047
                 7.495   -0.30126627246289
                 2.797   -0.25563070233011
                0.5215      1.093793361012
 s    1 1.00
                0.1596                   1
 p    3 1.00
                 9.439   0.056979251590039
                 2.002    0.31320721150073
                0.5456    0.76037674173753
 p    1 1.00
                0.1517                   1
 d    1 1.00
                  0.55                   1

22 0
 s    3 1.00
                 13.01   0.033498726389998
                 1.962    0.23480080117413
                0.4446     0.8136829578829
 s    1 1.00
                 0.122                   1
 p    1 1.00
                 0.727                   1

23 0
 s    3 1.00
                 13.01   0.033498726389998
                 1.962    0.23480080117413
                0.4446     0.8136829578829
 s    1 1.00
                 0.122                   1
 p    1 1.00
                 0.727                   1

24 0
 s    3 1.00
                 13.01   0.033498726389998
                 1.962    0.23480080117413
                0.4446     0.8136829578829
 s    1 1.00
                 0.122                   1
 p    1 1.00
                 0.727                   1

25 0
 s    8 1.00
                  6665  0.00069158396281299
                  1000  0.0053257961529341
                   228   0.027060721042034
                 64.71    0.10165684614077
                 21.06     0.2745748236174
                 7.495    0.44829431892377
                 2.797    0.28490261071525
                0.5215   0.015194859206082
 s    8 1.00
                  6665  -0.00029326965268655
                  1000  -0.0023180354739745
                   228  -0.011499786038565
                 64.71  -0.046826727009787
                 21.06   -0.12846616875047
                 7.495   -0.30126627246289
                 2.797   -0.25563070233011
                0.5215      1.093793361012
 s    1 1.00
                0.1596                   1
 p    3 1.00
                 9.439   0.056979251590039
                 2.002    0.31320721150073
                0.5456    0.76037674173753
 p    1 1.00
                0.1517                   1
 d    1 1.00
                  0.55                   1

26 0
 s    3 1.00
                 13.01   0.033498726389998
                 1.962    0.23480080117413
                0.4446     0.8136829578829
 s    1 1.00
                 0.122                   1
 p    1 1.00
                 0.727                   1

27 0
 s    3 1.00
                 13.01   0.033498726389998
                 1.962    0.23480080117413
                0.4446     0.8136829578829
 s    1 1.00
                 0.122                   1
 p    1 1.00
                 0.727                   1

28 0
 s    8 1.00
                  6665  0.00069158396281299
                  1000  0.0053257961529341
                   228   0.027060721042034
                 64.71    0.10165684614077
                 21.06     0.2745748236174
                 7.495    0.44829431892377
                 2.797    0.28490261071525
                0.5215   0.015194859206082
 s    8 1.00
                  6665  -0.00029326965268655
                  1000  -0.0023180354739745
                   228  -0.011499786038565
                 64.71  -0.046826727009787
                 21.06   -0.12846616875047
                 7.495   -0.30126627246289
                 2.797   -0.25563070233011
                0.5215      1.093793361012
 s    1 1.00
                0.1596                   1
 p    3 1.00
                 9.439   0.056979251590039
                 2.002    0.31320721150073
                0.5456    0.76037674173753
 p    1 1.00
                0.1517                   1
 d    1 1.00
                  0.55                   1

29 0
 s    3 1.00
                 13.01   0.033498726389998
                 1.962    0.23480080117413
                0.4446     0.8136829578829
 s    1 1.00
                 0.122                   1
 p    1 1.00
                 0.727                   1

30 0
 s    3 1.00
                 13.01   0.033498726389998
                 1.962    0.23480080117413
                0.4446     0.8136829578829
 s    1 1.00
                 0.122                   1
 p    1 1.00
                 0.727                   1

31 0
 s    8 1.00
                  6665  0.00069158396281299
                  1000  0.0053257961529341
                   228   0.027060721042034
                 64.71    0.10165684614077
                 21.06     0.2745748236174
                 7.495    0.44829431892377
                 2.797    0.28490261071525
                0.5215   0.015194859206082
 s    8 1.00
                  6665  -0.00029326965268655
                  1000  -0.0023180354739745
                   228  -0.011499786038565
                 64.71  -0.046826727009787
                 21.06   -0.12846616875047
                 7.495   -0.30126627246289
                 2.797   -0.25563070233011
                0.5215      1.093793361012
 s    1 1.00
                0.1596                   1
 p    3 1.00
                 9.439   0.056979251590039
                 2.002    0.31320721150073
                0.5456    0.76037674173753
 p    1 1.00
                0.1517                   1
 d    1 1.00
                  0.55                   1

32 0
 s    3 1.00
                 13.01   0.033498726389998
                 1.962    0.23480080117413
                0.4446     0.8136829578829
 s    1 1.00
                 0.122                   1
 p    1 1.00
                 0.727                   1

33 0
 s    3 1.00
                 13.01   0.033498726389998
                 1.962    0.23480080117413
                0.4446     0.8136829578829
 s    1 1.00
                 0.122                   1
 p    1 1.00
                 0.727                   1

34 0
 s    3 1.00
                 13.01   0.033498726389998
                 1.962    0.23480080117413
                0.4446     0.8136829578829
 s    1 1.00
                 0.122                   1
 p    1 1.00
                 0.727                   1

35 0
 s    3 1.00
                 13.01   0.033498726389998
                 1.962    0.23480080117413
                0.4446     0.8136829578829
 s    1 1.00
                 0.122                   1
 p    1 1.00
                 0.727                   1

36 0
 s    3 1.00
                 13.01   0.033498726389998
                 1.962    0.23480080117413
                0.4446     0.8136829578829
 s    1 1.00
                 0.122                   1
 p    1 1.00
                 0.727                   1

37 0
 s    3 1.00
                 13.01   0.033498726389998
                 1.962    0.23480080117413
                0.4446     0.8136829578829
 s    1 1.00
                 0.122                   1
 p    1 1.00
                 0.727                   1

[5d]
[7f]
[9g]

[MO]
 Sym= A
 Ene=               0
 Spin= Alpha
 Occup=    1.00000
   1    -9.6275614341725e-07
   2    -2.5053972515779e-06
   3    7.6813791896083e-07
   4    -5.2625747117566e-08
   5    5.8938432074437e-06
   6    -3.533476309008e-06
   7    -2.438430650032e-08
   8    3.3180384816819e-06
   9    -4.8680723617906e-06
  10    3.0943038402038e-07
  11    -2.9446061908131e-09
  12    -1.7163270659184e-07
  13    -2.0971442701785e-07
  14    -9.5282711854264e-09
  15    1.6805500805513e-06
  16    -6.1959534244269e-06
  17    -7.1666933673442e-08
  18    1.6887060365847e-07
  19    -9.1694380409248e-07
  20    3.2869092319976e-06
  21    1.429689700888e-06
  22    1.4940471997883e-08
  23    -1.7739127526222e-07
  24    -2.3535039996504e-07
  25    1.863782537498e-05
  26    0.0001035908090344
  27    0.00011071704203044
  28    -0.00048368662031043
  29    -0.00091140326152637
  30    -0.00015509886011067
  31    -0.00036004312200216
  32    -0.00062037149478751
  33    -7.9021336837902e-05
  34    1.1468690429278e-05
  35    2.2651893207211e-05
  36    3.7264908548553e-05
  37    -5.672755732731e-06
  38    8.7261222162136e-07
  39    -2.285026941121e-05
  40    -0.00010397437155482
  41    -0.00058417132017275
  42    -0.00047430716195596
  43    -0.00048514206591741
  44    0.00024191848393926
  45    -0.00038824433708023
  46    -0.00061407867496677
  47    0.00013025928972669
  48    -5.3691079791893e-06
  49    -0.00010881719189354
  50    -0.00014045628607084
  51    -3.5622116012678e-05
  52    2.7776042643043e-05
  53     -0.11072943267507
  54    -0.00078119464075501
  55    0.0040700791644225
  56    0.00012089108013769
  57    -1.5179179722381e-05
  58    -0.00013450308260175
  59    0.00086171695086251
  60    0.00097762514183578
  61    -0.00093683949986813
  62    -7.6337925989808e-06
  63    7.0334102031589e-05
  64    0.0001323202706751
  65    6.2126958023516e-05
  66    -0.00010154331807656
  67    -0.013138755172336
  68    -0.00013781038451985
  69    0.00064716491895559
  70    -6.5241792481443e-05
  71    -7.2168173952678e-05
  72    6.3552334171723e-06
  73    0.00032854606195792
  74    0.00028795969487209
  75    8.0749451104798e-05
  76    6.9802029113158e-06
  77    -1.5494944417391e-06
  78    -6.3580555141689e-05
  79    -5.0600979284976e-05
  80    7.7891918952361e-06
  81    -0.00020077733545662
  82    -5.8660957752854e-05
  83    -4.7663090150321e-06
  84    3.3249326740033e-05
  85    -7.3780754350601e-05
  86      0.99588168122304
  87    0.0052173785796966
  88    -0.012950241362202
  89    -0.0001211403423215
  90    0.00014082537537885
  91    4.0825852445251e-05
  92    -0.0005757710439727
  93    0.0016287867704734
  94    -5.7555021378739e-05
  95    1.6305883464308e-05
  96    0.00032245497489747
  97    3.4884074245144e-05
  98    -8.9136738020208e-05
  99    7.551311796979e-05
 100    -0.00016562238017165
 101    4.5985741917374e-05
 102    8.1946287033582e-05
 103    8.2176613023732e-05
 104    -1.7305846196589e-05
 105    4.9123583393448e-05
 106    -0.00010507451747892
 107    -5.5073655335387e-05
 108    -8.548388642165e-07
 109    1.4999204722321e-05
 110    -9.7489919327312e-05
 111    -0.00040485046897083
 112    1.5256280885908e-05
 113    2.8088957112787e-05
 114    -1.7687160591157e-05
 115    0.0020790367211033
 116    1.3519714697434e-05
 117    -9.3986769285091e-05
 118    1.6238207699553e-05
 119    8.4975428851745e-06
 120    1.250638070275e-05
 121    -0.00011761770020831
 122    -0.00015206800632861
 123    -8.0917448493517e-05
 124    4.6719426066957e-06
 125    -1.1667909702063e-05
 126    1.4378525213368e-05
 127    -4.7257475332747e-06
 128    -1.4103090040902e-05
 129    0.00020687235585439
 130    0.0012033651398313
 131    0.0002278435394578
 132    0.00029000849119265
 133    0.00023817802987927
 134    0.00020431501704918
 135    0.0013415512327536
 136    -0.00025992776070983
 137    7.4259901122748e-05
 138    -0.00032631113844538
 139     0.033091368211328
 140    -5.109585900493e-05
 141    0.0035380109519867
 142    -0.00012270572283435
 143    4.9652270401704e-05
 144    8.4941564970783e-05
 145    -0.0013388556397988
 146    0.0010874182944068
 147    0.00074573346833619
 148    3.801389167674e-05
 149    4.7459465007069e-05
 150    -3.6305634533147e-05
 151    1.671195300513e-07
 152    8.6742765262684e-05
 153    4.2578960267205e-05
 154    6.1869619547027e-05
 155    -4.947382206937e-06
 156    3.9040664909497e-06
 157    -2.1523701586356e-06
 158    -1.3308466440428e-05
 159    -1.2320172677551e-06
 160    1.3154678196376e-05
 161    6.5114298056947e-06
 162    7.393140200055e-06
 163    8.9173779579953e-05
 164    2.0166270616947e-05
 165    -0.00017359852851407
 166    -1.3079769482511e-05
 167    -2.6861981168658e-06
 168    2.6293684390405e-06
 169    0.00016721557426938
 170    3.3449656353164e-05
 171    -6.840255161418e-06
 172    2.9704149612098e-06
 173    1.5202262449612e-05
 174    -1.9867642690978e-06
 175    3.1224803138008e-06
 176    3.0923539483865e-06
 177    -0.00012790492303195
 178    0.00024170446920491
 179    -5.4137240595725e-05
 180    2.0704092136651e-05
 181    2.1044437218729e-05
 182    0.00031731930933432
 183    -4.8966536859978e-05
 184    -0.00059495339271697
 185    5.3541797975875e-05
 186    5.2020439983658e-06
 187    -4.9331557332835e-05
 188    -0.00019849361157509
 189    0.00050524113539049
 190    -3.3393471315187e-05
 191    -2.3461118860583e-05
 192    -6.8103389971462e-06
 193    3.2673712742253e-05
 194    -1.0076460698076e-06
 195    -5.4452752142806e-05
 196    -0.00012403105905207
 197    0.00022826560784745
 198    -4.0417838842636e-05
 199    2.6560987128008e-05
 200    3.9233440336419e-05
 201    1.3647082501297e-05
 202    8.2598869405659e-05
 203    -5.8750187353525e-06
 204    3.2560556103363e-06
 205    6.6587779082606e-06
 206    -2.06732955375e-05
 207    3.0149449406558e-05
 208    -5.3269710625043e-06
 209    -5.6695407551746e-06
 210    1.9087939844181e-06
 211    -1.1972925933229e-05
 212    -1.6203987676214e-05
 213    0.00016396845328441
 214    8.2142404071965e-06
 215    -2.2232428997192e-06
 216    -4.2268976631945e-06
 217    1.4077497643424e-05
 218    -5.8562109249152e-05
 219    -5.1877995339102e-05
 220    1.729185349029e-06
 221    -5.7329961633711e-06
 222    5.5979238827949e-06
 223    5.6878153621708e-07
 224    -5.455847292684e-06
 225    -1.1607874271938e-05
 226    -0.00023215047586418
 227    5.5526144161967e-05
 228    -1.1626563494986e-05
 229    -1.137213466309e-05
 230    -9.1318060853533e-06
 231    -0.00027476470398436
 232    2.6506094751657e-05
 233    -2.2623044533689e-05
 234    -5.1095213811969e-05
 235    -6.1069560885144e-05
 236    -0.00016204129184579
 237    0.00075837662310011
 238    1.413423723647e-05
 239    1.1164106290039e-05
 240    -1.5261852910555e-05
 241    -0.00041827284156474
 242    -6.4718199155483e-05
 243    0.00037777775577218
 244    6.2393631599431e-06
 245    -2.1175437539029e-05
 246    2.5095686127131e-06
 247    1.6783254209841e-05
 248    2.6232458889591e-06
 249    -2.6726329872093e-06
 250    1.9338183221496e-05
 251    8.9393269511576e-08
 252    1.0080063046726e-06
 253    8.2612860130072e-07
 254    -1.0502542799925e-05
 255    -3.425790881932e-05
 256    -9.3848646868221e-07
 257    -5.2457164206117e-07
 258    2.6989312160907e-06
 259    -5.3075523832918e-06
 260    -5.4527635895237e-06
 261    -2.5970679438113e-07
 262    -2.182567924387e-06
 263    1.8448726914159e-06