[Molden Format]
made by pyscf v[2.0.1]
[Atoms] (AU)
O   1   8     0.00000000000000     0.00000000000000     7.16229833633744
H   2   1     0.00000000000000     0.00000000000000     5.33889651443647
H   3   1    -0.05031916615174     1.78353065140343     7.53817003280410
O   4   8     0.00000000000000     0.00000000000000     2.31533471513237
C   5   6     0.00000000000000     0.00000000000000     0.00000000000000
C   6   6     2.01118073026938    -1.40227222164369    -1.50774939176400
C   7   6    -2.01249334291722     1.41331050329955    -1.50315905028694
H   8   1     3.32037363730244    -2.26721897153159    -0.13599698591495
C   9   6     3.45899267434009     0.28739631745591    -3.37437943254505
H   10   1     1.07662969841332    -2.94725144642667    -2.56541439481080
H   11   1    -2.67503415753480     0.18421555839588    -3.06194479365997
H   12   1    -1.07974048864772     3.03851734677796    -2.43674295017013
C   13   6    -4.21607110578555     2.32938802552922     0.11994162256091
H   14   1     4.24440173074564     1.93368664142019    -2.34976285512790
H   15   1     2.15020713235517     1.04714335134846    -4.81494497423699
C   16   6     5.60746363007797    -1.12419643481196    -4.70268606082550
H   17   1    -3.46838323670267     3.50951302338067     1.66946842715333
H   18   1    -5.11873485366228     0.68575958301209     1.04047743976495
C   19   6    -6.18314754751344     3.80909592987882    -1.39656589068747
H   20   1     6.93011263717176    -1.87550812453645    -3.26656317360070
C   21   6     7.06356622236532     0.52877932406334    -6.57829775293605
H   22   1     4.82318879258361    -2.78573437948532    -5.70504560381835
H   23   1    -6.91582688743803     2.61304780074712    -2.95074552451969
H   24   1    -5.26532430573853     5.45420349051338    -2.31005832200284
C   25   6    -8.39941882261433     4.73263980500213     0.21800571437956
H   26   1     7.83338371486801     2.19084139882824    -5.57093109900697
H   27   1     5.73544244039420     1.27376866537418    -8.01071492370229
C   28   6     9.21124858443101    -0.89699110072176    -7.88926949186242
H   29   1    -7.66272760055236     5.92277078003992     1.77035591474408
H   30   1    -9.31497248082589     3.08753015622020     1.12614408368786
C   31   6   -10.35481709231879     6.21833079391143    -1.30905206253246
H   32   1    10.58815905329501    -1.61074586756696    -6.49512691622620
H   33   1    10.23506248045667     0.32468009384095    -9.23072870921204
H   34   1     8.47665842847139    -2.53598436989925    -8.94921964622535
H   35   1    -9.48948872868064     7.90013588951020    -2.18823918416067
H   36   1   -11.93332513000955     6.86460487874102    -0.11255798845995
H   37   1   -11.15126291841033     5.04495968327630    -2.83849898862534
[GTO]
1 0
 s    8 1.00
                 11720  0.00070964594651845
                  1759  0.0054672722921914
                 400.8   0.027823118610189
                 113.7    0.10474773971146
                 37.03    0.28292084635691
                 13.27    0.44849523869833
                 5.025    0.27081688521277
                 1.013    0.01545029160744
 s    8 1.00
                 11720  -0.00031444341168873
                  1759  -0.0024821376810179
                 400.8  -0.012316355381583
                 113.7  -0.050538917343672
                 37.03   -0.13938490331632
                 13.27   -0.32507749481778
                 5.025   -0.22984830758785
                 1.013     1.0953793467883
 s    1 1.00
                0.3023                   1
 p    3 1.00
                  17.7   0.062679166281506
                 3.854    0.33353656587936
                 1.046    0.74123964163973
 p    1 1.00
                0.2753                   1
 d    1 1.00
                 1.185                   1

2 0
 s    3 1.00
                 13.01   0.033498726389998
                 1.962    0.23480080117413
                0.4446     0.8136829578829
 s    1 1.00
                 0.122                   1
 p    1 1.00
                 0.727                   1

3 0
 s    3 1.00
                 13.01   0.033498726389998
                 1.962    0.23480080117413
                0.4446     0.8136829578829
 s    1 1.00
                 0.122                   1
 p    1 1.00
                 0.727                   1

4 0
 s    8 1.00
                 11720  0.00070964594651845
                  1759  0.0054672722921914
                 400.8   0.027823118610189
                 113.7    0.10474773971146
                 37.03    0.28292084635691
                 13.27    0.44849523869833
                 5.025    0.27081688521277
                 1.013    0.01545029160744
 s    8 1.00
                 11720  -0.00031444341168873
                  1759  -0.0024821376810179
                 400.8  -0.012316355381583
                 113.7  -0.050538917343672
                 37.03   -0.13938490331632
                 13.27   -0.32507749481778
                 5.025   -0.22984830758785
                 1.013     1.0953793467883
 s    1 1.00
                0.3023                   1
 p    3 1.00
                  17.7   0.062679166281506
                 3.854    0.33353656587936
                 1.046    0.74123964163973
 p    1 1.00
                0.2753                   1
 d    1 1.00
                 1.185                   1

5 0
 s    8 1.00
                  6665  0.00069158396281299
                  1000  0.0053257961529341
                   228   0.027060721042034
                 64.71    0.10165684614077
                 21.06     0.2745748236174
                 7.495    0.44829431892377
                 2.797    0.28490261071525
                0.5215   0.015194859206082
 s    8 1.00
                  6665  -0.00029326965268655
                  1000  -0.0023180354739745
                   228  -0.011499786038565
                 64.71  -0.046826727009787
                 21.06   -0.12846616875047
                 7.495   -0.30126627246289
                 2.797   -0.25563070233011
                0.5215      1.093793361012
 s    1 1.00
                0.1596                   1
 p    3 1.00
                 9.439   0.056979251590039
                 2.002    0.31320721150073
                0.5456    0.76037674173753
 p    1 1.00
                0.1517                   1
 d    1 1.00
                  0.55                   1

6 0
 s    8 1.00
                  6665  0.00069158396281299
                  1000  0.0053257961529341
                   228   0.027060721042034
                 64.71    0.10165684614077
                 21.06     0.2745748236174
                 7.495    0.44829431892377
                 2.797    0.28490261071525
                0.5215   0.015194859206082
 s    8 1.00
                  6665  -0.00029326965268655
                  1000  -0.0023180354739745
                   228  -0.011499786038565
                 64.71  -0.046826727009787
                 21.06   -0.12846616875047
                 7.495   -0.30126627246289
                 2.797   -0.25563070233011
                0.5215      1.093793361012
 s    1 1.00
                0.1596                   1
 p    3 1.00
                 9.439   0.056979251590039
                 2.002    0.31320721150073
                0.5456    0.76037674173753
 p    1 1.00
                0.1517                   1
 d    1 1.00
                  0.55                   1

7 0
 s    8 1.00
                  6665  0.00069158396281299
                  1000  0.0053257961529341
                   228   0.027060721042034
                 64.71    0.10165684614077
                 21.06     0.2745748236174
                 7.495    0.44829431892377
                 2.797    0.28490261071525
                0.5215   0.015194859206082
 s    8 1.00
                  6665  -0.00029326965268655
                  1000  -0.0023180354739745
                   228  -0.011499786038565
                 64.71  -0.046826727009787
                 21.06   -0.12846616875047
                 7.495   -0.30126627246289
                 2.797   -0.25563070233011
                0.5215      1.093793361012
 s    1 1.00
                0.1596                   1
 p    3 1.00
                 9.439   0.056979251590039
                 2.002    0.31320721150073
                0.5456    0.76037674173753
 p    1 1.00
                0.1517                   1
 d    1 1.00
                  0.55                   1

8 0
 s    3 1.00
                 13.01   0.033498726389998
                 1.962    0.23480080117413
                0.4446     0.8136829578829
 s    1 1.00
                 0.122                   1
 p    1 1.00
                 0.727                   1

9 0
 s    8 1.00
                  6665  0.00069158396281299
                  1000  0.0053257961529341
                   228   0.027060721042034
                 64.71    0.10165684614077
                 21.06     0.2745748236174
                 7.495    0.44829431892377
                 2.797    0.28490261071525
                0.5215   0.015194859206082
 s    8 1.00
                  6665  -0.00029326965268655
                  1000  -0.0023180354739745
                   228  -0.011499786038565
                 64.71  -0.046826727009787
                 21.06   -0.12846616875047
                 7.495   -0.30126627246289
                 2.797   -0.25563070233011
                0.5215      1.093793361012
 s    1 1.00
                0.1596                   1
 p    3 1.00
                 9.439   0.056979251590039
                 2.002    0.31320721150073
                0.5456    0.76037674173753
 p    1 1.00
                0.1517                   1
 d    1 1.00
                  0.55                   1

10 0
 s    3 1.00
                 13.01   0.033498726389998
                 1.962    0.23480080117413
                0.4446     0.8136829578829
 s    1 1.00
                 0.122                   1
 p    1 1.00
                 0.727                   1

11 0
 s    3 1.00
                 13.01   0.033498726389998
                 1.962    0.23480080117413
                0.4446     0.8136829578829
 s    1 1.00
                 0.122                   1
 p    1 1.00
                 0.727                   1

12 0
 s    3 1.00
                 13.01   0.033498726389998
                 1.962    0.23480080117413
                0.4446     0.8136829578829
 s    1 1.00
                 0.122                   1
 p    1 1.00
                 0.727                   1

13 0
 s    8 1.00
                  6665  0.00069158396281299
                  1000  0.0053257961529341
                   228   0.027060721042034
                 64.71    0.10165684614077
                 21.06     0.2745748236174
                 7.495    0.44829431892377
                 2.797    0.28490261071525
                0.5215   0.015194859206082
 s    8 1.00
                  6665  -0.00029326965268655
                  1000  -0.0023180354739745
                   228  -0.011499786038565
                 64.71  -0.046826727009787
                 21.06   -0.12846616875047
                 7.495   -0.30126627246289
                 2.797   -0.25563070233011
                0.5215      1.093793361012
 s    1 1.00
                0.1596                   1
 p    3 1.00
                 9.439   0.056979251590039
                 2.002    0.31320721150073
                0.5456    0.76037674173753
 p    1 1.00
                0.1517                   1
 d    1 1.00
                  0.55                   1

14 0
 s    3 1.00
                 13.01   0.033498726389998
                 1.962    0.23480080117413
                0.4446     0.8136829578829
 s    1 1.00
                 0.122                   1
 p    1 1.00
                 0.727                   1

15 0
 s    3 1.00
                 13.01   0.033498726389998
                 1.962    0.23480080117413
                0.4446     0.8136829578829
 s    1 1.00
                 0.122                   1
 p    1 1.00
                 0.727                   1

16 0
 s    8 1.00
                  6665  0.00069158396281299
                  1000  0.0053257961529341
                   228   0.027060721042034
                 64.71    0.10165684614077
                 21.06     0.2745748236174
                 7.495    0.44829431892377
                 2.797    0.28490261071525
                0.5215   0.015194859206082
 s    8 1.00
                  6665  -0.00029326965268655
                  1000  -0.0023180354739745
                   228  -0.011499786038565
                 64.71  -0.046826727009787
                 21.06   -0.12846616875047
                 7.495   -0.30126627246289
                 2.797   -0.25563070233011
                0.5215      1.093793361012
 s    1 1.00
                0.1596                   1
 p    3 1.00
                 9.439   0.056979251590039
                 2.002    0.31320721150073
                0.5456    0.76037674173753
 p    1 1.00
                0.1517                   1
 d    1 1.00
                  0.55                   1

17 0
 s    3 1.00
                 13.01   0.033498726389998
                 1.962    0.23480080117413
                0.4446     0.8136829578829
 s    1 1.00
                 0.122                   1
 p    1 1.00
                 0.727                   1

18 0
 s    3 1.00
                 13.01   0.033498726389998
                 1.962    0.23480080117413
                0.4446     0.8136829578829
 s    1 1.00
                 0.122                   1
 p    1 1.00
                 0.727                   1

19 0
 s    8 1.00
                  6665  0.00069158396281299
                  1000  0.0053257961529341
                   228   0.027060721042034
                 64.71    0.10165684614077
                 21.06     0.2745748236174
                 7.495    0.44829431892377
                 2.797    0.28490261071525
                0.5215   0.015194859206082
 s    8 1.00
                  6665  -0.00029326965268655
                  1000  -0.0023180354739745
                   228  -0.011499786038565
                 64.71  -0.046826727009787
                 21.06   -0.12846616875047
                 7.495   -0.30126627246289
                 2.797   -0.25563070233011
                0.5215      1.093793361012
 s    1 1.00
                0.1596                   1
 p    3 1.00
                 9.439   0.056979251590039
                 2.002    0.31320721150073
                0.5456    0.76037674173753
 p    1 1.00
                0.1517                   1
 d    1 1.00
                  0.55                   1

20 0
 s    3 1.00
                 13.01   0.033498726389998
                 1.962    0.23480080117413
                0.4446     0.8136829578829
 s    1 1.00
                 0.122                   1
 p    1 1.00
                 0.727                   1

21 0
 s    8 1.00
                  6665  0.00069158396281299
                  1000  0.0053257961529341
                   228   0.027060721042034
                 64.71    0.10165684614077
                 21.06     0.2745748236174
                 7.495    0.44829431892377
                 2.797    0.28490261071525
                0.5215   0.015194859206082
 s    8 1.00
                  6665  -0.00029326965268655
                  1000  -0.0023180354739745
                   228  -0.011499786038565
                 64.71  -0.046826727009787
                 21.06   -0.12846616875047
                 7.495   -0.30126627246289
                 2.797   -0.25563070233011
                0.5215      1.093793361012
 s    1 1.00
                0.1596                   1
 p    3 1.00
                 9.439   0.056979251590039
                 2.002    0.31320721150073
                0.5456    0.76037674173753
 p    1 1.00
                0.1517                   1
 d    1 1.00
                  0.55                   1

22 0
 s    3 1.00
                 13.01   0.033498726389998
                 1.962    0.23480080117413
                0.4446     0.8136829578829
 s    1 1.00
                 0.122                   1
 p    1 1.00
                 0.727                   1

23 0
 s    3 1.00
                 13.01   0.033498726389998
                 1.962    0.23480080117413
                0.4446     0.8136829578829
 s    1 1.00
                 0.122                   1
 p    1 1.00
                 0.727                   1

24 0
 s    3 1.00
                 13.01   0.033498726389998
                 1.962    0.23480080117413
                0.4446     0.8136829578829
 s    1 1.00
                 0.122                   1
 p    1 1.00
                 0.727                   1

25 0
 s    8 1.00
                  6665  0.00069158396281299
                  1000  0.0053257961529341
                   228   0.027060721042034
                 64.71    0.10165684614077
                 21.06     0.2745748236174
                 7.495    0.44829431892377
                 2.797    0.28490261071525
                0.5215   0.015194859206082
 s    8 1.00
                  6665  -0.00029326965268655
                  1000  -0.0023180354739745
                   228  -0.011499786038565
                 64.71  -0.046826727009787
                 21.06   -0.12846616875047
                 7.495   -0.30126627246289
                 2.797   -0.25563070233011
                0.5215      1.093793361012
 s    1 1.00
                0.1596                   1
 p    3 1.00
                 9.439   0.056979251590039
                 2.002    0.31320721150073
                0.5456    0.76037674173753
 p    1 1.00
                0.1517                   1
 d    1 1.00
                  0.55                   1

26 0
 s    3 1.00
                 13.01   0.033498726389998
                 1.962    0.23480080117413
                0.4446     0.8136829578829
 s    1 1.00
                 0.122                   1
 p    1 1.00
                 0.727                   1

27 0
 s    3 1.00
                 13.01   0.033498726389998
                 1.962    0.23480080117413
                0.4446     0.8136829578829
 s    1 1.00
                 0.122                   1
 p    1 1.00
                 0.727                   1

28 0
 s    8 1.00
                  6665  0.00069158396281299
                  1000  0.0053257961529341
                   228   0.027060721042034
                 64.71    0.10165684614077
                 21.06     0.2745748236174
                 7.495    0.44829431892377
                 2.797    0.28490261071525
                0.5215   0.015194859206082
 s    8 1.00
                  6665  -0.00029326965268655
                  1000  -0.0023180354739745
                   228  -0.011499786038565
                 64.71  -0.046826727009787
                 21.06   -0.12846616875047
                 7.495   -0.30126627246289
                 2.797   -0.25563070233011
                0.5215      1.093793361012
 s    1 1.00
                0.1596                   1
 p    3 1.00
                 9.439   0.056979251590039
                 2.002    0.31320721150073
                0.5456    0.76037674173753
 p    1 1.00
                0.1517                   1
 d    1 1.00
                  0.55                   1

29 0
 s    3 1.00
                 13.01   0.033498726389998
                 1.962    0.23480080117413
                0.4446     0.8136829578829
 s    1 1.00
                 0.122                   1
 p    1 1.00
                 0.727                   1

30 0
 s    3 1.00
                 13.01   0.033498726389998
                 1.962    0.23480080117413
                0.4446     0.8136829578829
 s    1 1.00
                 0.122                   1
 p    1 1.00
                 0.727                   1

31 0
 s    8 1.00
                  6665  0.00069158396281299
                  1000  0.0053257961529341
                   228   0.027060721042034
                 64.71    0.10165684614077
                 21.06     0.2745748236174
                 7.495    0.44829431892377
                 2.797    0.28490261071525
                0.5215   0.015194859206082
 s    8 1.00
                  6665  -0.00029326965268655
                  1000  -0.0023180354739745
                   228  -0.011499786038565
                 64.71  -0.046826727009787
                 21.06   -0.12846616875047
                 7.495   -0.30126627246289
                 2.797   -0.25563070233011
                0.5215      1.093793361012
 s    1 1.00
                0.1596                   1
 p    3 1.00
                 9.439   0.056979251590039
                 2.002    0.31320721150073
                0.5456    0.76037674173753
 p    1 1.00
                0.1517                   1
 d    1 1.00
                  0.55                   1

32 0
 s    3 1.00
                 13.01   0.033498726389998
                 1.962    0.23480080117413
                0.4446     0.8136829578829
 s    1 1.00
                 0.122                   1
 p    1 1.00
                 0.727                   1

33 0
 s    3 1.00
                 13.01   0.033498726389998
                 1.962    0.23480080117413
                0.4446     0.8136829578829
 s    1 1.00
                 0.122                   1
 p    1 1.00
                 0.727                   1

34 0
 s    3 1.00
                 13.01   0.033498726389998
                 1.962    0.23480080117413
                0.4446     0.8136829578829
 s    1 1.00
                 0.122                   1
 p    1 1.00
                 0.727                   1

35 0
 s    3 1.00
                 13.01   0.033498726389998
                 1.962    0.23480080117413
                0.4446     0.8136829578829
 s    1 1.00
                 0.122                   1
 p    1 1.00
                 0.727                   1

36 0
 s    3 1.00
                 13.01   0.033498726389998
                 1.962    0.23480080117413
                0.4446     0.8136829578829
 s    1 1.00
                 0.122                   1
 p    1 1.00
                 0.727                   1

37 0
 s    3 1.00
                 13.01   0.033498726389998
                 1.962    0.23480080117413
                0.4446     0.8136829578829
 s    1 1.00
                 0.122                   1
 p    1 1.00
                 0.727                   1

[5d]
[7f]
[9g]

[MO]
 Sym= A
 Ene=               0
 Spin= Alpha
 Occup=    1.00000
   1    -5.4522911610647e-06
   2    -2.690811265792e-05
   3    -3.5237294880537e-05
   4    3.8913921926264e-05
   5    8.4481058744534e-05
   6    -3.2109896045629e-05
   7    3.0285143455876e-05
   8    4.8380728518842e-05
   9    -3.3148972572412e-05
  10    -2.5009599254649e-06
  11    7.3893391514348e-07
  12    -1.2405898055734e-06
  13    -2.7393559116369e-06
  14    7.5472516743637e-07
  15    -2.8039447193239e-06
  16    -1.9138355719254e-05
  17    3.7447043188449e-06
  18    -1.4413177463582e-06
  19    1.0519984003068e-05
  20    5.7613249310482e-05
  21    1.2488900412488e-06
  22    2.5399292549496e-06
  23    -3.2576436578158e-06
  24    -1.9987748987019e-06
  25    1.9532611309407e-05
  26    6.1589682079202e-05
  27    4.4427579012291e-05
  28    -0.00045402515635397
  29    -0.00086029867931473
  30    -0.00020679986943481
  31    -0.00034761840152583
  32    -0.00058885342598295
  33    -9.0187211867192e-05
  34    1.2756477300505e-05
  35    1.7690101192475e-05
  36    3.0865003103697e-05
  37    -5.5638122599869e-06
  38    1.3289364325474e-06
  39    -2.0254841599593e-05
  40    -1.9226054806289e-05
  41    -0.00050849223498335
  42    -0.00040438557642104
  43    -0.00045134077509456
  44    0.00021812137253263
  45    -0.00034845617758892
  46    -0.00055883153214117
  47    0.00010713005626295
  48    -4.1912433624011e-06
  49    -0.00010898435163149
  50    -0.00013055853291867
  51    -3.3637445062492e-05
  52    2.1257001938129e-05
  53     -0.11251837464874
  54    -0.00072801679434333
  55    0.0041343811882915
  56    8.9707011728127e-05
  57    1.4536269013154e-05
  58    -0.00010739712257462
  59     0.000839775727786
  60    0.00099607346749637
  61    -0.00092156767188957
  62    -9.2123704654674e-06
  63    7.1477725315071e-05
  64    0.00013959487879176
  65    6.0920241948243e-05
  66    -0.00010805426987327
  67    -0.013622688349814
  68    -0.00012638045068589
  69    0.00062300043500806
  70    -4.7513962408486e-05
  71    -7.4745316699799e-05
  72    7.6631579200427e-06
  73    0.00031867282586616
  74    0.00028812262044199
  75    7.2745426783273e-05
  76    6.0158457234468e-06
  77    7.6492964951079e-07
  78    -6.3329430244714e-05
  79    -4.8449340623462e-05
  80    6.9444859697229e-06
  81    -0.00019024668926218
  82    -6.3971960460984e-05
  83    -5.9522961633574e-06
  84    3.4372823416163e-05
  85    -7.5091372592079e-05
  86      0.99586817483815
  87    0.0052263186428507
  88     -0.01298535974388
  89    -0.00014549410625337
  90    0.00013357092091978
  91    6.5598332731405e-05
  92    -0.00056082917726703
  93    0.0016392387935961
  94    -7.5622001324071e-05
  95    1.6676737445399e-05
  96    0.00031888556989984
  97    3.4313944043314e-05
  98    -8.8332521809867e-05
  99    7.5886566630831e-05
 100    -0.00015481079850025
 101    4.8689011426491e-05
 102    8.2499980891382e-05
 103    8.3900763198211e-05
 104    -1.6280070189426e-05
 105    5.3162055533578e-05
 106    -0.00010280693313566
 107    -5.4362305020865e-05
 108    -6.6114225203664e-07
 109    1.5219608863162e-05
 110    -9.3282588586648e-05
 111    -0.00040876087868011
 112    1.5062783863766e-05
 113    2.7220853449699e-05
 114    -1.7270967025864e-05
 115    0.0011614785825898
 116    5.0175102829839e-06
 117    -8.27269974645e-05
 118    1.2777802026066e-05
 119    9.6618185739634e-06
 120    1.1697656556002e-05
 121    -0.00011902710043319
 122    -0.00015492154487302
 123    -8.6256320992163e-05
 124    3.9639226286376e-06
 125    -1.1876211679076e-05
 126    1.3816148869501e-05
 127    -3.8893448867639e-06
 128    -1.4445880774376e-05
 129    0.00021485221540452
 130    0.0012015962963814
 131    0.00022570436809141
 132    0.00028832843432311
 133    0.00023747348826758
 134    0.0002114051029234
 135    0.0013409166858406
 136    -0.00025885139786174
 137    7.3725980272508e-05
 138    -0.00032336664386509
 139     0.026794951514775
 140    -8.4315927192913e-05
 141    0.0036120173037322
 142    -0.00012416783806701
 143    5.2346704839198e-05
 144    8.5273593185833e-05
 145    -0.0013481373598202
 146    0.0010940294034319
 147    0.00075233685715589
 148    3.6965692719179e-05
 149    4.3215145312569e-05
 150    -3.5113031552754e-05
 151    1.3469609003201e-06
 152    8.3625162355833e-05
 153    4.0305452096349e-05
 154    6.9779280365153e-05
 155    -5.2247268033508e-06
 156    3.2893931210422e-06
 157    -2.6508760427215e-06
 158    -1.5300711582093e-05
 159    -7.1509706067668e-06
 160    1.2711051496821e-05
 161    6.7141297690791e-06
 162    7.6310795482143e-06
 163    5.3322886805341e-05
 164    2.1038110810094e-05
 165    -0.00017711479474893
 166    -1.211550087644e-05
 167    -2.9054472547971e-06
 168    2.9637687538972e-06
 169    0.00016165381123924
 170    3.6003246101046e-05
 171    -6.4671028339678e-06
 172    3.0155115654652e-06
 173    1.509839431583e-05
 174    -1.9644023911254e-06
 175    3.0872426237897e-06
 176    3.1200175414781e-06
 177    -0.0001281997696547
 178    0.00023486281536064
 179    -5.595147857342e-05
 180    2.1530058127616e-05
 181    1.8328461289184e-05
 182    0.00010869134090615
 183    -4.8534806152856e-05
 184    -0.00060434964110008
 185    5.3502875311924e-05
 186    6.2203251688296e-06
 187    -4.9617950829782e-05
 188    -0.00018320620716619
 189    0.00050378821872801
 190    -4.6615873529008e-05
 191    -2.3285735288442e-05
 192    -7.1837851979096e-06
 193    3.1857276957991e-05
 194    -1.1617321154147e-06
 195    -5.3737259795615e-05
 196    -0.00012423009040731
 197    0.00022121602145174
 198    -3.8654880238403e-05
 199    2.9012930690476e-05
 200    4.0732350220746e-05
 201    1.3472428691915e-05
 202    8.1538967099697e-05
 203    -5.677390049402e-06
 204    3.156371117668e-06
 205    6.5005769503309e-06
 206    -1.9883131533332e-05
 207    3.0582504691747e-05
 208    -5.1838897904757e-06
 209    -5.8020174295939e-06
 210    1.8440726156088e-06
 211    -1.1784423813457e-05
 212    -1.6038020154957e-05
 213    0.00016170236141737
 214    8.0288917946575e-06
 215    -2.0542076686606e-06
 216    -4.168830564227e-06
 217    1.3611950277594e-05
 218    -5.7337553314596e-05
 219    -5.0282903167844e-05
 220    1.6607678464378e-06
 221    -5.5827501754668e-06
 222    5.5828871301134e-06
 223    5.7063546220833e-07
 224    -5.4096273736349e-06
 225    -1.0007842913883e-05
 226    -0.0002330376405894
 227    5.5002312998363e-05
 228    -1.0848888618264e-05
 229    -1.1446496699604e-05
 230    -7.6165057375518e-06
 231    -0.00027601014193754
 232    2.6168805614792e-05
 233    -2.1721601926613e-05
 234    -5.0932899803586e-05
 235    -6.7140311413907e-05
 236    -0.00016007427808281
 237    0.00074614927288119
 238    1.3668722327139e-05
 239    1.1368569921582e-05
 240    -1.4967054318809e-05
 241    -0.00041525554818856
 242    -6.8495034039851e-05
 243    0.00037673605027658
 244    6.3505601466097e-06
 245    -2.0848249592831e-05
 246    2.8850778868759e-06
 247    1.6999572786047e-05
 248    2.5780099364287e-06
 249    -2.6120420655612e-06
 250    1.702764513892e-05
 251    1.0564808894751e-07
 252    1.1111220360589e-06
 253    8.9828677010522e-07
 254    -1.0544148191153e-05
 255    -3.2770948298845e-05
 256    -8.6727381212646e-07
 257    -4.9889015701197e-07
 258    2.6228625902176e-06
 259    -4.7345750105194e-06
 260    -5.1243796340147e-06
 261    -4.6736063802029e-07
 262    -2.0119827256401e-06