[Molden Format]
made by pyscf v[2.0.1]
[Atoms] (AU)
O   1   8     0.00000000000000     0.00000000000000     7.54024356125045
H   2   1     0.00000000000000     0.00000000000000     5.71684173934948
H   3   1    -0.05031916615174     1.78353065140343     7.91611525771711
O   4   8     0.00000000000000     0.00000000000000     2.31533471513237
C   5   6     0.00000000000000     0.00000000000000     0.00000000000000
C   6   6     2.01118073026938    -1.40227222164369    -1.50774939176400
C   7   6    -2.01249334291722     1.41331050329955    -1.50315905028694
H   8   1     3.32037363730244    -2.26721897153159    -0.13599698591495
C   9   6     3.45899267434009     0.28739631745591    -3.37437943254505
H   10   1     1.07662969841332    -2.94725144642667    -2.56541439481080
H   11   1    -2.67503415753480     0.18421555839588    -3.06194479365997
H   12   1    -1.07974048864772     3.03851734677796    -2.43674295017013
C   13   6    -4.21607110578555     2.32938802552922     0.11994162256091
H   14   1     4.24440173074564     1.93368664142019    -2.34976285512790
H   15   1     2.15020713235517     1.04714335134846    -4.81494497423699
C   16   6     5.60746363007797    -1.12419643481196    -4.70268606082550
H   17   1    -3.46838323670267     3.50951302338067     1.66946842715333
H   18   1    -5.11873485366228     0.68575958301209     1.04047743976495
C   19   6    -6.18314754751344     3.80909592987882    -1.39656589068747
H   20   1     6.93011263717176    -1.87550812453645    -3.26656317360070
C   21   6     7.06356622236532     0.52877932406334    -6.57829775293605
H   22   1     4.82318879258361    -2.78573437948532    -5.70504560381835
H   23   1    -6.91582688743803     2.61304780074712    -2.95074552451969
H   24   1    -5.26532430573853     5.45420349051338    -2.31005832200284
C   25   6    -8.39941882261433     4.73263980500213     0.21800571437956
H   26   1     7.83338371486801     2.19084139882824    -5.57093109900697
H   27   1     5.73544244039420     1.27376866537418    -8.01071492370229
C   28   6     9.21124858443101    -0.89699110072176    -7.88926949186242
H   29   1    -7.66272760055236     5.92277078003992     1.77035591474408
H   30   1    -9.31497248082589     3.08753015622020     1.12614408368786
C   31   6   -10.35481709231879     6.21833079391143    -1.30905206253246
H   32   1    10.58815905329501    -1.61074586756696    -6.49512691622620
H   33   1    10.23506248045667     0.32468009384095    -9.23072870921204
H   34   1     8.47665842847139    -2.53598436989925    -8.94921964622535
H   35   1    -9.48948872868064     7.90013588951020    -2.18823918416067
H   36   1   -11.93332513000955     6.86460487874102    -0.11255798845995
H   37   1   -11.15126291841033     5.04495968327630    -2.83849898862534
[GTO]
1 0
 s    8 1.00
                 11720  0.00070964594651845
                  1759  0.0054672722921914
                 400.8   0.027823118610189
                 113.7    0.10474773971146
                 37.03    0.28292084635691
                 13.27    0.44849523869833
                 5.025    0.27081688521277
                 1.013    0.01545029160744
 s    8 1.00
                 11720  -0.00031444341168873
                  1759  -0.0024821376810179
                 400.8  -0.012316355381583
                 113.7  -0.050538917343672
                 37.03   -0.13938490331632
                 13.27   -0.32507749481778
                 5.025   -0.22984830758785
                 1.013     1.0953793467883
 s    1 1.00
                0.3023                   1
 p    3 1.00
                  17.7   0.062679166281506
                 3.854    0.33353656587936
                 1.046    0.74123964163973
 p    1 1.00
                0.2753                   1
 d    1 1.00
                 1.185                   1

2 0
 s    3 1.00
                 13.01   0.033498726389998
                 1.962    0.23480080117413
                0.4446     0.8136829578829
 s    1 1.00
                 0.122                   1
 p    1 1.00
                 0.727                   1

3 0
 s    3 1.00
                 13.01   0.033498726389998
                 1.962    0.23480080117413
                0.4446     0.8136829578829
 s    1 1.00
                 0.122                   1
 p    1 1.00
                 0.727                   1

4 0
 s    8 1.00
                 11720  0.00070964594651845
                  1759  0.0054672722921914
                 400.8   0.027823118610189
                 113.7    0.10474773971146
                 37.03    0.28292084635691
                 13.27    0.44849523869833
                 5.025    0.27081688521277
                 1.013    0.01545029160744
 s    8 1.00
                 11720  -0.00031444341168873
                  1759  -0.0024821376810179
                 400.8  -0.012316355381583
                 113.7  -0.050538917343672
                 37.03   -0.13938490331632
                 13.27   -0.32507749481778
                 5.025   -0.22984830758785
                 1.013     1.0953793467883
 s    1 1.00
                0.3023                   1
 p    3 1.00
                  17.7   0.062679166281506
                 3.854    0.33353656587936
                 1.046    0.74123964163973
 p    1 1.00
                0.2753                   1
 d    1 1.00
                 1.185                   1

5 0
 s    8 1.00
                  6665  0.00069158396281299
                  1000  0.0053257961529341
                   228   0.027060721042034
                 64.71    0.10165684614077
                 21.06     0.2745748236174
                 7.495    0.44829431892377
                 2.797    0.28490261071525
                0.5215   0.015194859206082
 s    8 1.00
                  6665  -0.00029326965268655
                  1000  -0.0023180354739745
                   228  -0.011499786038565
                 64.71  -0.046826727009787
                 21.06   -0.12846616875047
                 7.495   -0.30126627246289
                 2.797   -0.25563070233011
                0.5215      1.093793361012
 s    1 1.00
                0.1596                   1
 p    3 1.00
                 9.439   0.056979251590039
                 2.002    0.31320721150073
                0.5456    0.76037674173753
 p    1 1.00
                0.1517                   1
 d    1 1.00
                  0.55                   1

6 0
 s    8 1.00
                  6665  0.00069158396281299
                  1000  0.0053257961529341
                   228   0.027060721042034
                 64.71    0.10165684614077
                 21.06     0.2745748236174
                 7.495    0.44829431892377
                 2.797    0.28490261071525
                0.5215   0.015194859206082
 s    8 1.00
                  6665  -0.00029326965268655
                  1000  -0.0023180354739745
                   228  -0.011499786038565
                 64.71  -0.046826727009787
                 21.06   -0.12846616875047
                 7.495   -0.30126627246289
                 2.797   -0.25563070233011
                0.5215      1.093793361012
 s    1 1.00
                0.1596                   1
 p    3 1.00
                 9.439   0.056979251590039
                 2.002    0.31320721150073
                0.5456    0.76037674173753
 p    1 1.00
                0.1517                   1
 d    1 1.00
                  0.55                   1

7 0
 s    8 1.00
                  6665  0.00069158396281299
                  1000  0.0053257961529341
                   228   0.027060721042034
                 64.71    0.10165684614077
                 21.06     0.2745748236174
                 7.495    0.44829431892377
                 2.797    0.28490261071525
                0.5215   0.015194859206082
 s    8 1.00
                  6665  -0.00029326965268655
                  1000  -0.0023180354739745
                   228  -0.011499786038565
                 64.71  -0.046826727009787
                 21.06   -0.12846616875047
                 7.495   -0.30126627246289
                 2.797   -0.25563070233011
                0.5215      1.093793361012
 s    1 1.00
                0.1596                   1
 p    3 1.00
                 9.439   0.056979251590039
                 2.002    0.31320721150073
                0.5456    0.76037674173753
 p    1 1.00
                0.1517                   1
 d    1 1.00
                  0.55                   1

8 0
 s    3 1.00
                 13.01   0.033498726389998
                 1.962    0.23480080117413
                0.4446     0.8136829578829
 s    1 1.00
                 0.122                   1
 p    1 1.00
                 0.727                   1

9 0
 s    8 1.00
                  6665  0.00069158396281299
                  1000  0.0053257961529341
                   228   0.027060721042034
                 64.71    0.10165684614077
                 21.06     0.2745748236174
                 7.495    0.44829431892377
                 2.797    0.28490261071525
                0.5215   0.015194859206082
 s    8 1.00
                  6665  -0.00029326965268655
                  1000  -0.0023180354739745
                   228  -0.011499786038565
                 64.71  -0.046826727009787
                 21.06   -0.12846616875047
                 7.495   -0.30126627246289
                 2.797   -0.25563070233011
                0.5215      1.093793361012
 s    1 1.00
                0.1596                   1
 p    3 1.00
                 9.439   0.056979251590039
                 2.002    0.31320721150073
                0.5456    0.76037674173753
 p    1 1.00
                0.1517                   1
 d    1 1.00
                  0.55                   1

10 0
 s    3 1.00
                 13.01   0.033498726389998
                 1.962    0.23480080117413
                0.4446     0.8136829578829
 s    1 1.00
                 0.122                   1
 p    1 1.00
                 0.727                   1

11 0
 s    3 1.00
                 13.01   0.033498726389998
                 1.962    0.23480080117413
                0.4446     0.8136829578829
 s    1 1.00
                 0.122                   1
 p    1 1.00
                 0.727                   1

12 0
 s    3 1.00
                 13.01   0.033498726389998
                 1.962    0.23480080117413
                0.4446     0.8136829578829
 s    1 1.00
                 0.122                   1
 p    1 1.00
                 0.727                   1

13 0
 s    8 1.00
                  6665  0.00069158396281299
                  1000  0.0053257961529341
                   228   0.027060721042034
                 64.71    0.10165684614077
                 21.06     0.2745748236174
                 7.495    0.44829431892377
                 2.797    0.28490261071525
                0.5215   0.015194859206082
 s    8 1.00
                  6665  -0.00029326965268655
                  1000  -0.0023180354739745
                   228  -0.011499786038565
                 64.71  -0.046826727009787
                 21.06   -0.12846616875047
                 7.495   -0.30126627246289
                 2.797   -0.25563070233011
                0.5215      1.093793361012
 s    1 1.00
                0.1596                   1
 p    3 1.00
                 9.439   0.056979251590039
                 2.002    0.31320721150073
                0.5456    0.76037674173753
 p    1 1.00
                0.1517                   1
 d    1 1.00
                  0.55                   1

14 0
 s    3 1.00
                 13.01   0.033498726389998
                 1.962    0.23480080117413
                0.4446     0.8136829578829
 s    1 1.00
                 0.122                   1
 p    1 1.00
                 0.727                   1

15 0
 s    3 1.00
                 13.01   0.033498726389998
                 1.962    0.23480080117413
                0.4446     0.8136829578829
 s    1 1.00
                 0.122                   1
 p    1 1.00
                 0.727                   1

16 0
 s    8 1.00
                  6665  0.00069158396281299
                  1000  0.0053257961529341
                   228   0.027060721042034
                 64.71    0.10165684614077
                 21.06     0.2745748236174
                 7.495    0.44829431892377
                 2.797    0.28490261071525
                0.5215   0.015194859206082
 s    8 1.00
                  6665  -0.00029326965268655
                  1000  -0.0023180354739745
                   228  -0.011499786038565
                 64.71  -0.046826727009787
                 21.06   -0.12846616875047
                 7.495   -0.30126627246289
                 2.797   -0.25563070233011
                0.5215      1.093793361012
 s    1 1.00
                0.1596                   1
 p    3 1.00
                 9.439   0.056979251590039
                 2.002    0.31320721150073
                0.5456    0.76037674173753
 p    1 1.00
                0.1517                   1
 d    1 1.00
                  0.55                   1

17 0
 s    3 1.00
                 13.01   0.033498726389998
                 1.962    0.23480080117413
                0.4446     0.8136829578829
 s    1 1.00
                 0.122                   1
 p    1 1.00
                 0.727                   1

18 0
 s    3 1.00
                 13.01   0.033498726389998
                 1.962    0.23480080117413
                0.4446     0.8136829578829
 s    1 1.00
                 0.122                   1
 p    1 1.00
                 0.727                   1

19 0
 s    8 1.00
                  6665  0.00069158396281299
                  1000  0.0053257961529341
                   228   0.027060721042034
                 64.71    0.10165684614077
                 21.06     0.2745748236174
                 7.495    0.44829431892377
                 2.797    0.28490261071525
                0.5215   0.015194859206082
 s    8 1.00
                  6665  -0.00029326965268655
                  1000  -0.0023180354739745
                   228  -0.011499786038565
                 64.71  -0.046826727009787
                 21.06   -0.12846616875047
                 7.495   -0.30126627246289
                 2.797   -0.25563070233011
                0.5215      1.093793361012
 s    1 1.00
                0.1596                   1
 p    3 1.00
                 9.439   0.056979251590039
                 2.002    0.31320721150073
                0.5456    0.76037674173753
 p    1 1.00
                0.1517                   1
 d    1 1.00
                  0.55                   1

20 0
 s    3 1.00
                 13.01   0.033498726389998
                 1.962    0.23480080117413
                0.4446     0.8136829578829
 s    1 1.00
                 0.122                   1
 p    1 1.00
                 0.727                   1

21 0
 s    8 1.00
                  6665  0.00069158396281299
                  1000  0.0053257961529341
                   228   0.027060721042034
                 64.71    0.10165684614077
                 21.06     0.2745748236174
                 7.495    0.44829431892377
                 2.797    0.28490261071525
                0.5215   0.015194859206082
 s    8 1.00
                  6665  -0.00029326965268655
                  1000  -0.0023180354739745
                   228  -0.011499786038565
                 64.71  -0.046826727009787
                 21.06   -0.12846616875047
                 7.495   -0.30126627246289
                 2.797   -0.25563070233011
                0.5215      1.093793361012
 s    1 1.00
                0.1596                   1
 p    3 1.00
                 9.439   0.056979251590039
                 2.002    0.31320721150073
                0.5456    0.76037674173753
 p    1 1.00
                0.1517                   1
 d    1 1.00
                  0.55                   1

22 0
 s    3 1.00
                 13.01   0.033498726389998
                 1.962    0.23480080117413
                0.4446     0.8136829578829
 s    1 1.00
                 0.122                   1
 p    1 1.00
                 0.727                   1

23 0
 s    3 1.00
                 13.01   0.033498726389998
                 1.962    0.23480080117413
                0.4446     0.8136829578829
 s    1 1.00
                 0.122                   1
 p    1 1.00
                 0.727                   1

24 0
 s    3 1.00
                 13.01   0.033498726389998
                 1.962    0.23480080117413
                0.4446     0.8136829578829
 s    1 1.00
                 0.122                   1
 p    1 1.00
                 0.727                   1

25 0
 s    8 1.00
                  6665  0.00069158396281299
                  1000  0.0053257961529341
                   228   0.027060721042034
                 64.71    0.10165684614077
                 21.06     0.2745748236174
                 7.495    0.44829431892377
                 2.797    0.28490261071525
                0.5215   0.015194859206082
 s    8 1.00
                  6665  -0.00029326965268655
                  1000  -0.0023180354739745
                   228  -0.011499786038565
                 64.71  -0.046826727009787
                 21.06   -0.12846616875047
                 7.495   -0.30126627246289
                 2.797   -0.25563070233011
                0.5215      1.093793361012
 s    1 1.00
                0.1596                   1
 p    3 1.00
                 9.439   0.056979251590039
                 2.002    0.31320721150073
                0.5456    0.76037674173753
 p    1 1.00
                0.1517                   1
 d    1 1.00
                  0.55                   1

26 0
 s    3 1.00
                 13.01   0.033498726389998
                 1.962    0.23480080117413
                0.4446     0.8136829578829
 s    1 1.00
                 0.122                   1
 p    1 1.00
                 0.727                   1

27 0
 s    3 1.00
                 13.01   0.033498726389998
                 1.962    0.23480080117413
                0.4446     0.8136829578829
 s    1 1.00
                 0.122                   1
 p    1 1.00
                 0.727                   1

28 0
 s    8 1.00
                  6665  0.00069158396281299
                  1000  0.0053257961529341
                   228   0.027060721042034
                 64.71    0.10165684614077
                 21.06     0.2745748236174
                 7.495    0.44829431892377
                 2.797    0.28490261071525
                0.5215   0.015194859206082
 s    8 1.00
                  6665  -0.00029326965268655
                  1000  -0.0023180354739745
                   228  -0.011499786038565
                 64.71  -0.046826727009787
                 21.06   -0.12846616875047
                 7.495   -0.30126627246289
                 2.797   -0.25563070233011
                0.5215      1.093793361012
 s    1 1.00
                0.1596                   1
 p    3 1.00
                 9.439   0.056979251590039
                 2.002    0.31320721150073
                0.5456    0.76037674173753
 p    1 1.00
                0.1517                   1
 d    1 1.00
                  0.55                   1

29 0
 s    3 1.00
                 13.01   0.033498726389998
                 1.962    0.23480080117413
                0.4446     0.8136829578829
 s    1 1.00
                 0.122                   1
 p    1 1.00
                 0.727                   1

30 0
 s    3 1.00
                 13.01   0.033498726389998
                 1.962    0.23480080117413
                0.4446     0.8136829578829
 s    1 1.00
                 0.122                   1
 p    1 1.00
                 0.727                   1

31 0
 s    8 1.00
                  6665  0.00069158396281299
                  1000  0.0053257961529341
                   228   0.027060721042034
                 64.71    0.10165684614077
                 21.06     0.2745748236174
                 7.495    0.44829431892377
                 2.797    0.28490261071525
                0.5215   0.015194859206082
 s    8 1.00
                  6665  -0.00029326965268655
                  1000  -0.0023180354739745
                   228  -0.011499786038565
                 64.71  -0.046826727009787
                 21.06   -0.12846616875047
                 7.495   -0.30126627246289
                 2.797   -0.25563070233011
                0.5215      1.093793361012
 s    1 1.00
                0.1596                   1
 p    3 1.00
                 9.439   0.056979251590039
                 2.002    0.31320721150073
                0.5456    0.76037674173753
 p    1 1.00
                0.1517                   1
 d    1 1.00
                  0.55                   1

32 0
 s    3 1.00
                 13.01   0.033498726389998
                 1.962    0.23480080117413
                0.4446     0.8136829578829
 s    1 1.00
                 0.122                   1
 p    1 1.00
                 0.727                   1

33 0
 s    3 1.00
                 13.01   0.033498726389998
                 1.962    0.23480080117413
                0.4446     0.8136829578829
 s    1 1.00
                 0.122                   1
 p    1 1.00
                 0.727                   1

34 0
 s    3 1.00
                 13.01   0.033498726389998
                 1.962    0.23480080117413
                0.4446     0.8136829578829
 s    1 1.00
                 0.122                   1
 p    1 1.00
                 0.727                   1

35 0
 s    3 1.00
                 13.01   0.033498726389998
                 1.962    0.23480080117413
                0.4446     0.8136829578829
 s    1 1.00
                 0.122                   1
 p    1 1.00
                 0.727                   1

36 0
 s    3 1.00
                 13.01   0.033498726389998
                 1.962    0.23480080117413
                0.4446     0.8136829578829
 s    1 1.00
                 0.122                   1
 p    1 1.00
                 0.727                   1

37 0
 s    3 1.00
                 13.01   0.033498726389998
                 1.962    0.23480080117413
                0.4446     0.8136829578829
 s    1 1.00
                 0.122                   1
 p    1 1.00
                 0.727                   1

[5d]
[7f]
[9g]

[MO]
 Sym= A
 Ene=               0
 Spin= Alpha
 Occup=    1.00000
   1    -5.0318100179176e-06
   2    -1.8979463388083e-05
   3    -2.3194122053941e-05
   4    2.6884868136163e-05
   5    6.3436010168367e-05
   6    -2.8183918613483e-05
   7    2.0164736181004e-05
   8    3.5867807329034e-05
   9    -2.6586811411016e-05
  10    -1.1751380754425e-06
  11    3.3246808958798e-07
  12    -1.2717044051705e-06
  13    -2.0408021610265e-06
  14    5.0193198225672e-07
  15    4.3307234554607e-06
  16    -1.5265572455239e-05
  17    1.6811843566815e-06
  18    -1.7753418317218e-06
  19    5.6295331611153e-06
  20    4.3078512713133e-05
  21    -1.7033791491563e-06
  22    1.8428330106101e-06
  23    -2.2114363086772e-06
  24    -1.9128731739088e-06
  25    1.9806005490987e-05
  26    7.1853534762659e-05
  27    6.1187753173429e-05
  28    -0.00046235289263469
  29    -0.00087334577931896
  30    -0.00019072939242389
  31    -0.0003508573056666
  32    -0.0005974259910647
  33    -8.9114392302053e-05
  34    1.220244148973e-05
  35    1.9091787466654e-05
  36    3.2719918297774e-05
  37    -5.5703101858349e-06
  38    1.1977390090451e-06
  39    -2.0780109142705e-05
  40    -4.2566759475547e-05
  41    -0.00053163920406743
  42    -0.00042242607621435
  43    -0.00045975791177437
  44    0.00022197585926017
  45    -0.0003597961540993
  46    -0.00057190874468126
  47    0.00011193768394589
  48    -4.8779737938363e-06
  49    -0.00010898789229538
  50    -0.00013301667229982
  51    -3.4176062600403e-05
  52    2.3006030611134e-05
  53     -0.11202213337921
  54    -0.00074138788395325
  55    0.0041195889407571
  56    9.7596263783743e-05
  57    7.0207622734919e-06
  58    -0.00011442582945012
  59    0.00084473349700925
  60    0.00099210711227745
  61    -0.00092469709881986
  62    -8.8357334577811e-06
  63    7.1198519993335e-05
  64    0.00013778241302022
  65    6.1217033175619e-05
  66    -0.00010640376145738
  67    -0.013472784679476
  68    -0.00012893426156789
  69    0.00062860726401381
  70    -5.1836282578465e-05
  71    -7.4190153023118e-05
  72    7.3008004151233e-06
  73    0.00032124252491075
  74    0.00028806436024387
  75    7.4607577031114e-05
  76    6.1662328812636e-06
  77    1.8246401864742e-07
  78    -6.3380396614138e-05
  79    -4.8958400269842e-05
  80    7.1192193440173e-06
  81    -0.00019295855904206
  82    -6.2560776394046e-05
  83    -5.6312801629398e-06
  84    3.4070284115095e-05
  85    -7.4769705757243e-05
  86      0.99589046900849
  87     0.005224270160184
  88    -0.012978387897993
  89    -0.00013950402663367
  90    0.00013563881692288
  91    5.9508924543481e-05
  92    -0.00056521060208055
  93    0.0016370979861591
  94    -7.0780953956248e-05
  95    1.6553684208726e-05
  96    0.00031980682361116
  97    3.4504648298797e-05
  98    -8.8561987347732e-05
  99    7.5798493240291e-05
 100    -0.00015755221160199
 101    4.830268037765e-05
 102    8.2392470174612e-05
 103    8.3429935107082e-05
 104    -1.6576981968504e-05
 105    5.2243828918153e-05
 106    -0.0001033957895415
 107    -5.456164355011e-05
 108    -6.9559598166646e-07
 109    1.5178111123627e-05
 110    -9.4293388497554e-05
 111    -0.00040784820615139
 112    1.5103832367991e-05
 113     2.74420326329e-05
 114    -1.7356962549087e-05
 115    0.0013982099951533
 116    7.217951509248e-06
 117    -8.5814318320219e-05
 118    1.3666153848252e-05
 119    9.3882551078174e-06
 120    1.1900981182629e-05
 121    -0.00011816861991284
 122    -0.00015406659211641
 123    -8.4594418948268e-05
 124    4.1413244491234e-06
 125    -1.1818019038903e-05
 126    1.4004684470435e-05
 127    -4.1051128464016e-06
 128    -1.4334428973277e-05
 129    0.00021276279767824
 130    0.0012020998562027
 131    0.00022627599725887
 132    0.00028883261336129
 133    0.00023771456496223
 134    0.00020970674224256
 135    0.0013409418548538
 136    -0.00025913309787742
 137    7.386094456829e-05
 138    -0.00032414260391755
 139     0.028060793058841
 140    -7.7715180292715e-05
 141    0.0035978930968691
 142    -0.0001238274392939
 143    5.1781044178782e-05
 144    8.5187941654524e-05
 145    -0.0013465085914401
 146    0.0010928506990149
 147    0.00075098567411697
 148    3.7207742437867e-05
 149    4.4117829486469e-05
 150    -3.5398679010797e-05
 151    1.1036784822263e-06
 152    8.4339140406909e-05
 153    4.084135064137e-05
 154    6.7226022041512e-05
 155    -5.1669323841805e-06
 156    3.4798743843023e-06
 157    -2.5084348557417e-06
 158    -1.4853299209858e-05
 159    -5.2307619282331e-06
 160    1.2810936799836e-05
 161    6.6924136489452e-06
 162    7.5388177701088e-06
 163    6.1761039763332e-05
 164    2.0772429928193e-05
 165    -0.00017576534277284
 166    -1.234938922602e-05
 167    -2.856916050216e-06
 168    2.8877945446351e-06
 169    0.00016328791182165
 170    3.5118813491771e-05
 171    -6.4139975738067e-06
 172    2.9942547965175e-06
 173    1.5137218002955e-05
 174    -1.9862483229329e-06
 175    3.0984463549207e-06
 176    3.0850814835325e-06
 177    -0.00012818594269904
 178    0.00023620233350638
 179    -5.5572565379684e-05
 180    2.1360417506834e-05
 181    1.8885684992904e-05
 182    0.00014392028035271
 183    -4.8693399825582e-05
 184    -0.00060266654515237
 185    5.3539161350709e-05
 186    5.9836530948029e-06
 187    -4.9578689126851e-05
 188    -0.00018683271628113
 189    0.00050439120867617
 190    -4.3464398080351e-05
 191    -2.3318636003641e-05
 192    -7.1183511885671e-06
 193    3.2017531229572e-05
 194    -1.1376909084283e-06
 195    -5.3881973549037e-05
 196    -0.00012428569151777
 197    0.00022258707001143
 198    -3.9006446208796e-05
 199    2.8500634825635e-05
 200    4.042728687452e-05
 201    1.3507042641548e-05
 202    8.1843515190978e-05
 203    -5.7300472833948e-06
 204    3.1922225512938e-06
 205    6.5464081028928e-06
 206    -2.0089988783646e-05
 207    3.0498263902854e-05
 208    -5.2334131025831e-06
 209    -5.7626769688261e-06
 210    1.8600288455112e-06
 211    -1.1841188895674e-05
 212    -1.6083842340861e-05
 213    0.0001622420884601
 214    8.0708805569829e-06
 215    -2.0971930960205e-06
 216    -4.1808855791841e-06
 217    1.3744700798067e-05
 218    -5.7658966591233e-05
 219    -5.0665403811128e-05
 220    1.6770111066228e-06
 221    -5.6246456134428e-06
 222    5.5845766844233e-06
 223    5.6895049233443e-07
 224    -5.4181590651716e-06
 225    -1.0385214321753e-05
 226    -0.00023292526132547
 227    5.5148992447013e-05
 228    -1.1025124066365e-05
 229    -1.1451179587508e-05
 230    -7.9563403704187e-06
 231    -0.00027572313866082
 232    2.6272629832885e-05
 233    -2.1933643812417e-05
 234    -5.0989637941794e-05
 235    -6.6095747759032e-05
 236    -0.0001605554762453
 237    0.00074927636961779
 238    1.3765662409698e-05
 239    1.1325483730485e-05
 240    -1.5027034726121e-05
 241    -0.00041612711219219
 242    -6.7551015034954e-05
 243    0.00037707137606047
 244    6.3198113048307e-06
 245    -2.0927429965125e-05
 246    2.8150593933612e-06
 247    1.6962722905816e-05
 248    2.5681276767208e-06
 249    -2.6386600872691e-06
 250    1.7680152535976e-05
 251    1.0048103475821e-07
 252    1.0823609212217e-06
 253    8.7761796732705e-07
 254    -1.0526958747973e-05
 255    -3.3217050858113e-05
 256    -8.9152076036075e-07
 257    -5.0820034938279e-07
 258    2.6444646947065e-06
 259    -4.8775008625054e-06
 260    -5.2271544698094e-06
 261    -3.3879277174591e-07
 262    -2.0577770617588e-06