[Molden Format]
made by pyscf v[2.0.1]
[Atoms] (AU)
O   1   8     0.00000000000000     0.00000000000000     6.78435311142442
H   2   1     0.00000000000000     0.00000000000000     4.96095128952346
H   3   1    -0.05031916615174     1.78353065140343     7.16022480789109
O   4   8     0.00000000000000     0.00000000000000     2.31533471513237
C   5   6     0.00000000000000     0.00000000000000     0.00000000000000
C   6   6     2.01118073026938    -1.40227222164369    -1.50774939176400
C   7   6    -2.01249334291722     1.41331050329955    -1.50315905028694
H   8   1     3.32037363730244    -2.26721897153159    -0.13599698591495
C   9   6     3.45899267434009     0.28739631745591    -3.37437943254505
H   10   1     1.07662969841332    -2.94725144642667    -2.56541439481080
H   11   1    -2.67503415753480     0.18421555839588    -3.06194479365997
H   12   1    -1.07974048864772     3.03851734677796    -2.43674295017013
C   13   6    -4.21607110578555     2.32938802552922     0.11994162256091
H   14   1     4.24440173074564     1.93368664142019    -2.34976285512790
H   15   1     2.15020713235517     1.04714335134846    -4.81494497423699
C   16   6     5.60746363007797    -1.12419643481196    -4.70268606082550
H   17   1    -3.46838323670267     3.50951302338067     1.66946842715333
H   18   1    -5.11873485366228     0.68575958301209     1.04047743976495
C   19   6    -6.18314754751344     3.80909592987882    -1.39656589068747
H   20   1     6.93011263717176    -1.87550812453645    -3.26656317360070
C   21   6     7.06356622236532     0.52877932406334    -6.57829775293605
H   22   1     4.82318879258361    -2.78573437948532    -5.70504560381835
H   23   1    -6.91582688743803     2.61304780074712    -2.95074552451969
H   24   1    -5.26532430573853     5.45420349051338    -2.31005832200284
C   25   6    -8.39941882261433     4.73263980500213     0.21800571437956
H   26   1     7.83338371486801     2.19084139882824    -5.57093109900697
H   27   1     5.73544244039420     1.27376866537418    -8.01071492370229
C   28   6     9.21124858443101    -0.89699110072176    -7.88926949186242
H   29   1    -7.66272760055236     5.92277078003992     1.77035591474408
H   30   1    -9.31497248082589     3.08753015622020     1.12614408368786
C   31   6   -10.35481709231879     6.21833079391143    -1.30905206253246
H   32   1    10.58815905329501    -1.61074586756696    -6.49512691622620
H   33   1    10.23506248045667     0.32468009384095    -9.23072870921204
H   34   1     8.47665842847139    -2.53598436989925    -8.94921964622535
H   35   1    -9.48948872868064     7.90013588951020    -2.18823918416067
H   36   1   -11.93332513000955     6.86460487874102    -0.11255798845995
H   37   1   -11.15126291841033     5.04495968327630    -2.83849898862534
[GTO]
1 0
 s    8 1.00
                 11720  0.00070964594651845
                  1759  0.0054672722921914
                 400.8   0.027823118610189
                 113.7    0.10474773971146
                 37.03    0.28292084635691
                 13.27    0.44849523869833
                 5.025    0.27081688521277
                 1.013    0.01545029160744
 s    8 1.00
                 11720  -0.00031444341168873
                  1759  -0.0024821376810179
                 400.8  -0.012316355381583
                 113.7  -0.050538917343672
                 37.03   -0.13938490331632
                 13.27   -0.32507749481778
                 5.025   -0.22984830758785
                 1.013     1.0953793467883
 s    1 1.00
                0.3023                   1
 p    3 1.00
                  17.7   0.062679166281506
                 3.854    0.33353656587936
                 1.046    0.74123964163973
 p    1 1.00
                0.2753                   1
 d    1 1.00
                 1.185                   1

2 0
 s    3 1.00
                 13.01   0.033498726389998
                 1.962    0.23480080117413
                0.4446     0.8136829578829
 s    1 1.00
                 0.122                   1
 p    1 1.00
                 0.727                   1

3 0
 s    3 1.00
                 13.01   0.033498726389998
                 1.962    0.23480080117413
                0.4446     0.8136829578829
 s    1 1.00
                 0.122                   1
 p    1 1.00
                 0.727                   1

4 0
 s    8 1.00
                 11720  0.00070964594651845
                  1759  0.0054672722921914
                 400.8   0.027823118610189
                 113.7    0.10474773971146
                 37.03    0.28292084635691
                 13.27    0.44849523869833
                 5.025    0.27081688521277
                 1.013    0.01545029160744
 s    8 1.00
                 11720  -0.00031444341168873
                  1759  -0.0024821376810179
                 400.8  -0.012316355381583
                 113.7  -0.050538917343672
                 37.03   -0.13938490331632
                 13.27   -0.32507749481778
                 5.025   -0.22984830758785
                 1.013     1.0953793467883
 s    1 1.00
                0.3023                   1
 p    3 1.00
                  17.7   0.062679166281506
                 3.854    0.33353656587936
                 1.046    0.74123964163973
 p    1 1.00
                0.2753                   1
 d    1 1.00
                 1.185                   1

5 0
 s    8 1.00
                  6665  0.00069158396281299
                  1000  0.0053257961529341
                   228   0.027060721042034
                 64.71    0.10165684614077
                 21.06     0.2745748236174
                 7.495    0.44829431892377
                 2.797    0.28490261071525
                0.5215   0.015194859206082
 s    8 1.00
                  6665  -0.00029326965268655
                  1000  -0.0023180354739745
                   228  -0.011499786038565
                 64.71  -0.046826727009787
                 21.06   -0.12846616875047
                 7.495   -0.30126627246289
                 2.797   -0.25563070233011
                0.5215      1.093793361012
 s    1 1.00
                0.1596                   1
 p    3 1.00
                 9.439   0.056979251590039
                 2.002    0.31320721150073
                0.5456    0.76037674173753
 p    1 1.00
                0.1517                   1
 d    1 1.00
                  0.55                   1

6 0
 s    8 1.00
                  6665  0.00069158396281299
                  1000  0.0053257961529341
                   228   0.027060721042034
                 64.71    0.10165684614077
                 21.06     0.2745748236174
                 7.495    0.44829431892377
                 2.797    0.28490261071525
                0.5215   0.015194859206082
 s    8 1.00
                  6665  -0.00029326965268655
                  1000  -0.0023180354739745
                   228  -0.011499786038565
                 64.71  -0.046826727009787
                 21.06   -0.12846616875047
                 7.495   -0.30126627246289
                 2.797   -0.25563070233011
                0.5215      1.093793361012
 s    1 1.00
                0.1596                   1
 p    3 1.00
                 9.439   0.056979251590039
                 2.002    0.31320721150073
                0.5456    0.76037674173753
 p    1 1.00
                0.1517                   1
 d    1 1.00
                  0.55                   1

7 0
 s    8 1.00
                  6665  0.00069158396281299
                  1000  0.0053257961529341
                   228   0.027060721042034
                 64.71    0.10165684614077
                 21.06     0.2745748236174
                 7.495    0.44829431892377
                 2.797    0.28490261071525
                0.5215   0.015194859206082
 s    8 1.00
                  6665  -0.00029326965268655
                  1000  -0.0023180354739745
                   228  -0.011499786038565
                 64.71  -0.046826727009787
                 21.06   -0.12846616875047
                 7.495   -0.30126627246289
                 2.797   -0.25563070233011
                0.5215      1.093793361012
 s    1 1.00
                0.1596                   1
 p    3 1.00
                 9.439   0.056979251590039
                 2.002    0.31320721150073
                0.5456    0.76037674173753
 p    1 1.00
                0.1517                   1
 d    1 1.00
                  0.55                   1

8 0
 s    3 1.00
                 13.01   0.033498726389998
                 1.962    0.23480080117413
                0.4446     0.8136829578829
 s    1 1.00
                 0.122                   1
 p    1 1.00
                 0.727                   1

9 0
 s    8 1.00
                  6665  0.00069158396281299
                  1000  0.0053257961529341
                   228   0.027060721042034
                 64.71    0.10165684614077
                 21.06     0.2745748236174
                 7.495    0.44829431892377
                 2.797    0.28490261071525
                0.5215   0.015194859206082
 s    8 1.00
                  6665  -0.00029326965268655
                  1000  -0.0023180354739745
                   228  -0.011499786038565
                 64.71  -0.046826727009787
                 21.06   -0.12846616875047
                 7.495   -0.30126627246289
                 2.797   -0.25563070233011
                0.5215      1.093793361012
 s    1 1.00
                0.1596                   1
 p    3 1.00
                 9.439   0.056979251590039
                 2.002    0.31320721150073
                0.5456    0.76037674173753
 p    1 1.00
                0.1517                   1
 d    1 1.00
                  0.55                   1

10 0
 s    3 1.00
                 13.01   0.033498726389998
                 1.962    0.23480080117413
                0.4446     0.8136829578829
 s    1 1.00
                 0.122                   1
 p    1 1.00
                 0.727                   1

11 0
 s    3 1.00
                 13.01   0.033498726389998
                 1.962    0.23480080117413
                0.4446     0.8136829578829
 s    1 1.00
                 0.122                   1
 p    1 1.00
                 0.727                   1

12 0
 s    3 1.00
                 13.01   0.033498726389998
                 1.962    0.23480080117413
                0.4446     0.8136829578829
 s    1 1.00
                 0.122                   1
 p    1 1.00
                 0.727                   1

13 0
 s    8 1.00
                  6665  0.00069158396281299
                  1000  0.0053257961529341
                   228   0.027060721042034
                 64.71    0.10165684614077
                 21.06     0.2745748236174
                 7.495    0.44829431892377
                 2.797    0.28490261071525
                0.5215   0.015194859206082
 s    8 1.00
                  6665  -0.00029326965268655
                  1000  -0.0023180354739745
                   228  -0.011499786038565
                 64.71  -0.046826727009787
                 21.06   -0.12846616875047
                 7.495   -0.30126627246289
                 2.797   -0.25563070233011
                0.5215      1.093793361012
 s    1 1.00
                0.1596                   1
 p    3 1.00
                 9.439   0.056979251590039
                 2.002    0.31320721150073
                0.5456    0.76037674173753
 p    1 1.00
                0.1517                   1
 d    1 1.00
                  0.55                   1

14 0
 s    3 1.00
                 13.01   0.033498726389998
                 1.962    0.23480080117413
                0.4446     0.8136829578829
 s    1 1.00
                 0.122                   1
 p    1 1.00
                 0.727                   1

15 0
 s    3 1.00
                 13.01   0.033498726389998
                 1.962    0.23480080117413
                0.4446     0.8136829578829
 s    1 1.00
                 0.122                   1
 p    1 1.00
                 0.727                   1

16 0
 s    8 1.00
                  6665  0.00069158396281299
                  1000  0.0053257961529341
                   228   0.027060721042034
                 64.71    0.10165684614077
                 21.06     0.2745748236174
                 7.495    0.44829431892377
                 2.797    0.28490261071525
                0.5215   0.015194859206082
 s    8 1.00
                  6665  -0.00029326965268655
                  1000  -0.0023180354739745
                   228  -0.011499786038565
                 64.71  -0.046826727009787
                 21.06   -0.12846616875047
                 7.495   -0.30126627246289
                 2.797   -0.25563070233011
                0.5215      1.093793361012
 s    1 1.00
                0.1596                   1
 p    3 1.00
                 9.439   0.056979251590039
                 2.002    0.31320721150073
                0.5456    0.76037674173753
 p    1 1.00
                0.1517                   1
 d    1 1.00
                  0.55                   1

17 0
 s    3 1.00
                 13.01   0.033498726389998
                 1.962    0.23480080117413
                0.4446     0.8136829578829
 s    1 1.00
                 0.122                   1
 p    1 1.00
                 0.727                   1

18 0
 s    3 1.00
                 13.01   0.033498726389998
                 1.962    0.23480080117413
                0.4446     0.8136829578829
 s    1 1.00
                 0.122                   1
 p    1 1.00
                 0.727                   1

19 0
 s    8 1.00
                  6665  0.00069158396281299
                  1000  0.0053257961529341
                   228   0.027060721042034
                 64.71    0.10165684614077
                 21.06     0.2745748236174
                 7.495    0.44829431892377
                 2.797    0.28490261071525
                0.5215   0.015194859206082
 s    8 1.00
                  6665  -0.00029326965268655
                  1000  -0.0023180354739745
                   228  -0.011499786038565
                 64.71  -0.046826727009787
                 21.06   -0.12846616875047
                 7.495   -0.30126627246289
                 2.797   -0.25563070233011
                0.5215      1.093793361012
 s    1 1.00
                0.1596                   1
 p    3 1.00
                 9.439   0.056979251590039
                 2.002    0.31320721150073
                0.5456    0.76037674173753
 p    1 1.00
                0.1517                   1
 d    1 1.00
                  0.55                   1

20 0
 s    3 1.00
                 13.01   0.033498726389998
                 1.962    0.23480080117413
                0.4446     0.8136829578829
 s    1 1.00
                 0.122                   1
 p    1 1.00
                 0.727                   1

21 0
 s    8 1.00
                  6665  0.00069158396281299
                  1000  0.0053257961529341
                   228   0.027060721042034
                 64.71    0.10165684614077
                 21.06     0.2745748236174
                 7.495    0.44829431892377
                 2.797    0.28490261071525
                0.5215   0.015194859206082
 s    8 1.00
                  6665  -0.00029326965268655
                  1000  -0.0023180354739745
                   228  -0.011499786038565
                 64.71  -0.046826727009787
                 21.06   -0.12846616875047
                 7.495   -0.30126627246289
                 2.797   -0.25563070233011
                0.5215      1.093793361012
 s    1 1.00
                0.1596                   1
 p    3 1.00
                 9.439   0.056979251590039
                 2.002    0.31320721150073
                0.5456    0.76037674173753
 p    1 1.00
                0.1517                   1
 d    1 1.00
                  0.55                   1

22 0
 s    3 1.00
                 13.01   0.033498726389998
                 1.962    0.23480080117413
                0.4446     0.8136829578829
 s    1 1.00
                 0.122                   1
 p    1 1.00
                 0.727                   1

23 0
 s    3 1.00
                 13.01   0.033498726389998
                 1.962    0.23480080117413
                0.4446     0.8136829578829
 s    1 1.00
                 0.122                   1
 p    1 1.00
                 0.727                   1

24 0
 s    3 1.00
                 13.01   0.033498726389998
                 1.962    0.23480080117413
                0.4446     0.8136829578829
 s    1 1.00
                 0.122                   1
 p    1 1.00
                 0.727                   1

25 0
 s    8 1.00
                  6665  0.00069158396281299
                  1000  0.0053257961529341
                   228   0.027060721042034
                 64.71    0.10165684614077
                 21.06     0.2745748236174
                 7.495    0.44829431892377
                 2.797    0.28490261071525
                0.5215   0.015194859206082
 s    8 1.00
                  6665  -0.00029326965268655
                  1000  -0.0023180354739745
                   228  -0.011499786038565
                 64.71  -0.046826727009787
                 21.06   -0.12846616875047
                 7.495   -0.30126627246289
                 2.797   -0.25563070233011
                0.5215      1.093793361012
 s    1 1.00
                0.1596                   1
 p    3 1.00
                 9.439   0.056979251590039
                 2.002    0.31320721150073
                0.5456    0.76037674173753
 p    1 1.00
                0.1517                   1
 d    1 1.00
                  0.55                   1

26 0
 s    3 1.00
                 13.01   0.033498726389998
                 1.962    0.23480080117413
                0.4446     0.8136829578829
 s    1 1.00
                 0.122                   1
 p    1 1.00
                 0.727                   1

27 0
 s    3 1.00
                 13.01   0.033498726389998
                 1.962    0.23480080117413
                0.4446     0.8136829578829
 s    1 1.00
                 0.122                   1
 p    1 1.00
                 0.727                   1

28 0
 s    8 1.00
                  6665  0.00069158396281299
                  1000  0.0053257961529341
                   228   0.027060721042034
                 64.71    0.10165684614077
                 21.06     0.2745748236174
                 7.495    0.44829431892377
                 2.797    0.28490261071525
                0.5215   0.015194859206082
 s    8 1.00
                  6665  -0.00029326965268655
                  1000  -0.0023180354739745
                   228  -0.011499786038565
                 64.71  -0.046826727009787
                 21.06   -0.12846616875047
                 7.495   -0.30126627246289
                 2.797   -0.25563070233011
                0.5215      1.093793361012
 s    1 1.00
                0.1596                   1
 p    3 1.00
                 9.439   0.056979251590039
                 2.002    0.31320721150073
                0.5456    0.76037674173753
 p    1 1.00
                0.1517                   1
 d    1 1.00
                  0.55                   1

29 0
 s    3 1.00
                 13.01   0.033498726389998
                 1.962    0.23480080117413
                0.4446     0.8136829578829
 s    1 1.00
                 0.122                   1
 p    1 1.00
                 0.727                   1

30 0
 s    3 1.00
                 13.01   0.033498726389998
                 1.962    0.23480080117413
                0.4446     0.8136829578829
 s    1 1.00
                 0.122                   1
 p    1 1.00
                 0.727                   1

31 0
 s    8 1.00
                  6665  0.00069158396281299
                  1000  0.0053257961529341
                   228   0.027060721042034
                 64.71    0.10165684614077
                 21.06     0.2745748236174
                 7.495    0.44829431892377
                 2.797    0.28490261071525
                0.5215   0.015194859206082
 s    8 1.00
                  6665  -0.00029326965268655
                  1000  -0.0023180354739745
                   228  -0.011499786038565
                 64.71  -0.046826727009787
                 21.06   -0.12846616875047
                 7.495   -0.30126627246289
                 2.797   -0.25563070233011
                0.5215      1.093793361012
 s    1 1.00
                0.1596                   1
 p    3 1.00
                 9.439   0.056979251590039
                 2.002    0.31320721150073
                0.5456    0.76037674173753
 p    1 1.00
                0.1517                   1
 d    1 1.00
                  0.55                   1

32 0
 s    3 1.00
                 13.01   0.033498726389998
                 1.962    0.23480080117413
                0.4446     0.8136829578829
 s    1 1.00
                 0.122                   1
 p    1 1.00
                 0.727                   1

33 0
 s    3 1.00
                 13.01   0.033498726389998
                 1.962    0.23480080117413
                0.4446     0.8136829578829
 s    1 1.00
                 0.122                   1
 p    1 1.00
                 0.727                   1

34 0
 s    3 1.00
                 13.01   0.033498726389998
                 1.962    0.23480080117413
                0.4446     0.8136829578829
 s    1 1.00
                 0.122                   1
 p    1 1.00
                 0.727                   1

35 0
 s    3 1.00
                 13.01   0.033498726389998
                 1.962    0.23480080117413
                0.4446     0.8136829578829
 s    1 1.00
                 0.122                   1
 p    1 1.00
                 0.727                   1

36 0
 s    3 1.00
                 13.01   0.033498726389998
                 1.962    0.23480080117413
                0.4446     0.8136829578829
 s    1 1.00
                 0.122                   1
 p    1 1.00
                 0.727                   1

37 0
 s    3 1.00
                 13.01   0.033498726389998
                 1.962    0.23480080117413
                0.4446     0.8136829578829
 s    1 1.00
                 0.122                   1
 p    1 1.00
                 0.727                   1

[5d]
[7f]
[9g]

[MO]
 Sym= A
 Ene=               0
 Spin= Alpha
 Occup=    1.00000
   1    -5.9881610023544e-06
   2    -4.0615753417386e-05
   3    -5.1089566846396e-05
   4    5.7098157700635e-05
   5    0.00011453625064534
   6    -3.9107356840317e-05
   7    4.7068350208897e-05
   8    6.8597629671731e-05
   9    -4.6092091038464e-05
  10    -4.1611226523768e-06
  11    1.1218258278227e-06
  12    -1.4058204258054e-06
  13    -3.7876506685183e-06
  14    1.1532265943392e-06
  15    -1.9194062890716e-05
  16    -2.8922526417585e-05
  17    6.1386621359039e-06
  18    -1.9109561185483e-06
  19    1.8200210850524e-05
  20    7.6847288800632e-05
  21    8.3207190632906e-06
  22    3.4363748146107e-06
  23    -4.5743464316442e-06
  24    -2.3942814065339e-06
  25    1.8423404000633e-05
  26    4.5424123387376e-05
  27    2.3236725223418e-05
  28    -0.00044409428172355
  29    -0.0008424706850725
  30    -0.00023108321296178
  31    -0.00034444762313373
  32    -0.00057568587844513
  33    -8.784030972945e-05
  34    1.450999474224e-05
  35    1.5602717775656e-05
  36    2.8215244677021e-05
  37    -5.5768141385104e-06
  38    1.5280206445691e-06
  39    -1.9723169761889e-05
  40    1.4542977111869e-05
  41    -0.00047298520643664
  42    -0.00038029380312046
  43    -0.00044095259677768
  44    0.00021335603563028
  45    -0.00033186005449701
  46    -0.00054353800646554
  47    0.00010157823270061
  48    -3.4391359473045e-06
  49    -0.00010930942480081
  50    -0.00012737731332626
  51    -3.2844250487886e-05
  52    1.8720994031171e-05
  53     -0.11324350938148
  54    -0.00070927179273792
  55    0.0041533449897506
  56    7.8522933637006e-05
  57    2.4879945360132e-05
  58    -9.749377829413e-05
  59    0.00083351467905833
  60    0.0010011178551124
  61    -0.00091824127649951
  62    -9.7832939253289e-06
  63    7.1882486967362e-05
  64    0.00014203607333085
  65    6.0590791820412e-05
  66    -0.00011035294007561
  67     -0.01387710205355
  68    -0.00012324429840678
  69    0.0006169381675874
  70    -4.1671534381899e-05
  71    -7.5703796785291e-05
  72    8.2377325319645e-06
  73      0.00031549386387
  74    0.00028825329736373
  75    7.0567833278593e-05
  76    5.8127386305328e-06
  77    1.5616178114445e-06
  78    -6.3292212509014e-05
  79    -4.7797521125114e-05
  80    6.6239539335164e-06
  81    -0.00018636512018141
  82    -6.5781372907576e-05
  83    -6.4445690583926e-06
  84    3.4806120061411e-05
  85    -7.5560471041102e-05
  86      0.99582415721026
  87    0.0052290359628552
  88    -0.012993958444851
  89    -0.00015374384783695
  90    0.0001305778803627
  91    7.4029457630065e-05
  92    -0.00055444442406764
  93    0.0016420601640788
  94    -8.2361062070432e-05
  95    1.6870813173024e-05
  96    0.00031759078980728
  97    3.4023062676382e-05
  98    -8.8001771527716e-05
  99    7.6012759482245e-05
 100    -0.00015089344706629
 101    4.8758829047106e-05
 102    8.2652567429897e-05
 103    8.4574276388578e-05
 104    -1.5804844088766e-05
 105    5.4389148702619e-05
 106    -0.00010204972157868
 107    -5.4109793135418e-05
 108    -5.8221161030526e-07
 109    1.5279339353163e-05
 110    -9.1998352350448e-05
 111    -0.00040994603162288
 112    1.4995730841044e-05
 113    2.6893932759703e-05
 114    -1.7166606968961e-05
 115    0.00084759204790431
 116    2.0843573323798e-06
 117    -7.9276357077031e-05
 118    1.1520582975815e-05
 119    1.0035471700915e-05
 120    1.1424536345627e-05
 121    -0.00012036692698779
 122    -0.00015650400784304
 123    -8.8463233981545e-05
 124    3.7047146382036e-06
 125    -1.1950393687404e-05
 126    1.3543194990395e-05
 127    -3.6005691098128e-06
 128    -1.463823979351e-05
 129    0.00021772267479325
 130    0.0012007911109855
 131    0.00022490250986954
 132    0.00028759746490704
 133    0.00023711026214735
 134    0.00021369909764055
 135    0.0013409245785249
 136    -0.00025844796843372
 137    7.3534603812693e-05
 138    -0.00032228864786153
 139      0.02523492308987
 140    -9.2413243048942e-05
 141    0.0036291293944714
 142    -0.00012463278108522
 143    5.3059505151525e-05
 144    8.5401808075379e-05
 145    -0.0013499742146975
 146    0.0010954784465058
 147    0.00075393249911391
 148    3.6641235085295e-05
 149    4.2050517293693e-05
 150    -3.4721927939755e-05
 151    1.6589873521667e-06
 152    8.2663410898124e-05
 153    3.9611154064819e-05
 154    7.3852532879211e-05
 155    -5.2908333990475e-06
 156    2.9941408061316e-06
 157    -2.8594184762064e-06
 158    -1.5879963243943e-05
 159    -1.0006324680935e-05
 160    1.2588566859879e-05
 161    6.7467369909644e-06
 162    7.7715236271441e-06
 163    4.2660046710705e-05
 164    2.1372616597091e-05
 165    -0.00017861297558975
 166    -1.1789270342641e-05
 167    -2.9837883313376e-06
 168    3.0827239027405e-06
 169    0.00015957852904228
 170    3.7203407466532e-05
 171    -6.4865448846649e-06
 172    3.039778048779e-06
 173    1.5046301357952e-05
 174    -1.9294828843604e-06
 175    3.0804628207983e-06
 176    3.1720324548584e-06
 177    -0.0001281743157861
 178    0.00023320751153777
 179    -5.6424697468171e-05
 180    2.1738937183199e-05
 181    1.7636066944881e-05
 182    6.9791148607401e-05
 183    -4.8267132810313e-05
 184    -0.00060644595987625
 185    5.3436402925716e-05
 186    6.5375464472169e-06
 187    -4.9653813179737e-05
 188    -0.00017826536237744
 189    0.0005028765169335
 190    -5.0908594325164e-05
 191    -2.3244377858839e-05
 192    -7.2516743091929e-06
 193    3.1665197715596e-05
 194    -1.1861962437364e-06
 195    -5.3559114067233e-05
 196    -0.00012408889306992
 197    0.0002195613592398
 198    -3.8221214555455e-05
 199    2.9657750785971e-05
 200    4.1115207279946e-05
 201    1.3402488499388e-05
 202    8.1138708471728e-05
 203    -5.6106356196249e-06
 204    3.106161764303e-06
 205    6.4361449630295e-06
 206    -1.9629719625114e-05
 207    3.0661110161081e-05
 208    -5.1137055816773e-06
 209    -5.853690041826e-06
 210    1.8215046101895e-06
 211    -1.1710900962855e-05
 212    -1.5981754669304e-05
 213    0.00016102148435366
 214    7.9769675327441e-06
 215    -1.9977872937981e-06
 216    -4.1505221539553e-06
 217    1.3372114611698e-05
 218    -5.6872019324501e-05
 219    -4.9737581532048e-05
 220    1.6386669371312e-06
 221    -5.5140531446678e-06
 222    5.5793978118052e-06
 223    5.7153539226572e-07
 224    -5.4010693642377e-06
 225    -9.4964270609752e-06
 226    -0.00023313682284789
 227    5.478954245877e-05
 228    -1.0615584254304e-05
 229    -1.1426488538299e-05
 230    -7.1628278714295e-06
 231    -0.00027638056362512
 232     2.60130801498e-05
 233    -2.1438261246603e-05
 234    -5.0842313181932e-05
 235    -6.8320774605678e-05
 236    -0.00015942038146103
 237    0.0007418084957105
 238    1.3547446998587e-05
 239    1.1423608527322e-05
 240    -1.4892882619138e-05
 241    -0.00041400328227474
 242    -6.9805306301092e-05
 243    0.00037624146301371
 244    6.3945774560527e-06
 245    -2.0743406187135e-05
 246    2.9671184599494e-06
 247    1.7043716832482e-05
 248    2.6028609606764e-06
 249    -2.5673012283243e-06
 250    1.603868532671e-05
 251    1.1512310067981e-07
 252    1.1565175575964e-06
 253    9.3364522651118e-07
 254    -1.0570155760253e-05
 255    -3.2162801593174e-05
 256    -8.3255913565921e-07
 257    -4.8901768436936e-07
 258    2.5938432643174e-06
 259    -4.5562292030295e-06
 260    -4.9891505650918e-06
 261    -6.6889527450746e-07
 262    -1.9533728188259e-06