[Molden Format]
made by pyscf v[2.0.1]
[Atoms] (AU)
O   1   8     0.00000000000000     0.00000000000000     6.40640788651141
H   2   1     0.00000000000000     0.00000000000000     4.58300606461044
H   3   1    -0.05031916615174     1.78353439551780     6.78227958297808
O   4   8     0.00000000000000     0.00000000000000     2.31533471513237
C   5   6     0.00000000000000     0.00000000000000     0.00000000000000
C   6   6     2.01118073026938    -1.40227222164369    -1.50774939176400
C   7   6    -2.01249334291722     1.41331050329955    -1.50319235519811
H   8   1     3.32037363730244    -2.26721897153159    -0.13599698591495
C   9   6     3.45899267434009     0.28739631745591    -3.37437943254505
H   10   1     1.07662969841332    -2.94725144642667    -2.56541439481080
H   11   1    -2.67503415753480     0.18421555839588    -3.06194479365997
H   12   1    -1.08005520873877     3.03851734677796    -2.43674295017013
C   13   6    -4.21607110578555     2.32938802552922     0.11994192435017
H   14   1     4.24440173074564     1.93368664387684    -2.34976285512790
H   15   1     2.18907033049676     1.04714335134846    -4.81494497423699
C   16   6     5.60746363007797    -1.12419643481196    -4.70268606082550
H   17   1    -3.46838323670267     3.50951302338067     1.66946842715333
H   18   1    -5.11873485366228     0.68575958301209     1.04047743976495
C   19   6    -6.18314754751344     3.80909592987882    -1.39656589068747
H   20   1     6.93011263717176    -1.87550812453645    -3.26656317360070
C   21   6     7.10306991577580     0.52877932406334    -6.57829775293605
H   22   1     4.82318879258361    -2.78573437948532    -5.70504560381835
H   23   1    -6.91582688743803     2.61304780074712    -2.95074552451969
H   24   1    -5.26532430573853     5.45420349051338    -2.31005832200284
C   25   6    -8.39941882261433     4.73263980500213     0.21800571437956
H   26   1     7.83338371486801     2.19084139882824    -5.57093109900697
H   27   1     5.73544244039420     1.27376866537418    -8.01071492370229
C   28   6     9.21124858443101    -0.89699110072176    -7.88926949186242
H   29   1    -7.66272760055236     5.92277078003992     1.77035591474408
H   30   1    -9.31497248082589     3.08753015622020     1.12614408368786
C   31   6   -10.35481709231879     6.21833079391143    -1.30905206253246
H   32   1    10.58815905329501    -1.61099162890610    -6.52093739071026
H   33   1    10.23506248045667     0.32468009384095    -9.23072870921204
H   34   1     8.47665842847139    -2.53598436989925    -8.94921964622535
H   35   1    -9.48948872868064     7.90013588951020    -2.18823918416067
H   36   1   -11.93332774482359     6.86460487874102    -0.11255798845995
H   37   1   -11.15126291841033     5.04495968327630    -2.83849898862534
[GTO]
1 0
 s    8 1.00
                 11720  0.00070964594651845
                  1759  0.0054672722921914
                 400.8   0.027823118610189
                 113.7    0.10474773971146
                 37.03    0.28292084635691
                 13.27    0.44849523869833
                 5.025    0.27081688521277
                 1.013    0.01545029160744
 s    8 1.00
                 11720  -0.00031444341168873
                  1759  -0.0024821376810179
                 400.8  -0.012316355381583
                 113.7  -0.050538917343672
                 37.03   -0.13938490331632
                 13.27   -0.32507749481778
                 5.025   -0.22984830758785
                 1.013     1.0953793467883
 s    1 1.00
                0.3023                   1
 p    3 1.00
                  17.7   0.062679166281506
                 3.854    0.33353656587936
                 1.046    0.74123964163973
 p    1 1.00
                0.2753                   1
 d    1 1.00
                 1.185                   1

2 0
 s    3 1.00
                 13.01   0.033498726389998
                 1.962    0.23480080117413
                0.4446     0.8136829578829
 s    1 1.00
                 0.122                   1
 p    1 1.00
                 0.727                   1

3 0
 s    3 1.00
                 13.01   0.033498726389998
                 1.962    0.23480080117413
                0.4446     0.8136829578829
 s    1 1.00
                 0.122                   1
 p    1 1.00
                 0.727                   1

4 0
 s    8 1.00
                 11720  0.00070964594651845
                  1759  0.0054672722921914
                 400.8   0.027823118610189
                 113.7    0.10474773971146
                 37.03    0.28292084635691
                 13.27    0.44849523869833
                 5.025    0.27081688521277
                 1.013    0.01545029160744
 s    8 1.00
                 11720  -0.00031444341168873
                  1759  -0.0024821376810179
                 400.8  -0.012316355381583
                 113.7  -0.050538917343672
                 37.03   -0.13938490331632
                 13.27   -0.32507749481778
                 5.025   -0.22984830758785
                 1.013     1.0953793467883
 s    1 1.00
                0.3023                   1
 p    3 1.00
                  17.7   0.062679166281506
                 3.854    0.33353656587936
                 1.046    0.74123964163973
 p    1 1.00
                0.2753                   1
 d    1 1.00
                 1.185                   1

5 0
 s    8 1.00
                  6665  0.00069158396281299
                  1000  0.0053257961529341
                   228   0.027060721042034
                 64.71    0.10165684614077
                 21.06     0.2745748236174
                 7.495    0.44829431892377
                 2.797    0.28490261071525
                0.5215   0.015194859206082
 s    8 1.00
                  6665  -0.00029326965268655
                  1000  -0.0023180354739745
                   228  -0.011499786038565
                 64.71  -0.046826727009787
                 21.06   -0.12846616875047
                 7.495   -0.30126627246289
                 2.797   -0.25563070233011
                0.5215      1.093793361012
 s    1 1.00
                0.1596                   1
 p    3 1.00
                 9.439   0.056979251590039
                 2.002    0.31320721150073
                0.5456    0.76037674173753
 p    1 1.00
                0.1517                   1
 d    1 1.00
                  0.55                   1

6 0
 s    8 1.00
                  6665  0.00069158396281299
                  1000  0.0053257961529341
                   228   0.027060721042034
                 64.71    0.10165684614077
                 21.06     0.2745748236174
                 7.495    0.44829431892377
                 2.797    0.28490261071525
                0.5215   0.015194859206082
 s    8 1.00
                  6665  -0.00029326965268655
                  1000  -0.0023180354739745
                   228  -0.011499786038565
                 64.71  -0.046826727009787
                 21.06   -0.12846616875047
                 7.495   -0.30126627246289
                 2.797   -0.25563070233011
                0.5215      1.093793361012
 s    1 1.00
                0.1596                   1
 p    3 1.00
                 9.439   0.056979251590039
                 2.002    0.31320721150073
                0.5456    0.76037674173753
 p    1 1.00
                0.1517                   1
 d    1 1.00
                  0.55                   1

7 0
 s    8 1.00
                  6665  0.00069158396281299
                  1000  0.0053257961529341
                   228   0.027060721042034
                 64.71    0.10165684614077
                 21.06     0.2745748236174
                 7.495    0.44829431892377
                 2.797    0.28490261071525
                0.5215   0.015194859206082
 s    8 1.00
                  6665  -0.00029326965268655
                  1000  -0.0023180354739745
                   228  -0.011499786038565
                 64.71  -0.046826727009787
                 21.06   -0.12846616875047
                 7.495   -0.30126627246289
                 2.797   -0.25563070233011
                0.5215      1.093793361012
 s    1 1.00
                0.1596                   1
 p    3 1.00
                 9.439   0.056979251590039
                 2.002    0.31320721150073
                0.5456    0.76037674173753
 p    1 1.00
                0.1517                   1
 d    1 1.00
                  0.55                   1

8 0
 s    3 1.00
                 13.01   0.033498726389998
                 1.962    0.23480080117413
                0.4446     0.8136829578829
 s    1 1.00
                 0.122                   1
 p    1 1.00
                 0.727                   1

9 0
 s    8 1.00
                  6665  0.00069158396281299
                  1000  0.0053257961529341
                   228   0.027060721042034
                 64.71    0.10165684614077
                 21.06     0.2745748236174
                 7.495    0.44829431892377
                 2.797    0.28490261071525
                0.5215   0.015194859206082
 s    8 1.00
                  6665  -0.00029326965268655
                  1000  -0.0023180354739745
                   228  -0.011499786038565
                 64.71  -0.046826727009787
                 21.06   -0.12846616875047
                 7.495   -0.30126627246289
                 2.797   -0.25563070233011
                0.5215      1.093793361012
 s    1 1.00
                0.1596                   1
 p    3 1.00
                 9.439   0.056979251590039
                 2.002    0.31320721150073
                0.5456    0.76037674173753
 p    1 1.00
                0.1517                   1
 d    1 1.00
                  0.55                   1

10 0
 s    3 1.00
                 13.01   0.033498726389998
                 1.962    0.23480080117413
                0.4446     0.8136829578829
 s    1 1.00
                 0.122                   1
 p    1 1.00
                 0.727                   1

11 0
 s    3 1.00
                 13.01   0.033498726389998
                 1.962    0.23480080117413
                0.4446     0.8136829578829
 s    1 1.00
                 0.122                   1
 p    1 1.00
                 0.727                   1

12 0
 s    3 1.00
                 13.01   0.033498726389998
                 1.962    0.23480080117413
                0.4446     0.8136829578829
 s    1 1.00
                 0.122                   1
 p    1 1.00
                 0.727                   1

13 0
 s    8 1.00
                  6665  0.00069158396281299
                  1000  0.0053257961529341
                   228   0.027060721042034
                 64.71    0.10165684614077
                 21.06     0.2745748236174
                 7.495    0.44829431892377
                 2.797    0.28490261071525
                0.5215   0.015194859206082
 s    8 1.00
                  6665  -0.00029326965268655
                  1000  -0.0023180354739745
                   228  -0.011499786038565
                 64.71  -0.046826727009787
                 21.06   -0.12846616875047
                 7.495   -0.30126627246289
                 2.797   -0.25563070233011
                0.5215      1.093793361012
 s    1 1.00
                0.1596                   1
 p    3 1.00
                 9.439   0.056979251590039
                 2.002    0.31320721150073
                0.5456    0.76037674173753
 p    1 1.00
                0.1517                   1
 d    1 1.00
                  0.55                   1

14 0
 s    3 1.00
                 13.01   0.033498726389998
                 1.962    0.23480080117413
                0.4446     0.8136829578829
 s    1 1.00
                 0.122                   1
 p    1 1.00
                 0.727                   1

15 0
 s    3 1.00
                 13.01   0.033498726389998
                 1.962    0.23480080117413
                0.4446     0.8136829578829
 s    1 1.00
                 0.122                   1
 p    1 1.00
                 0.727                   1

16 0
 s    8 1.00
                  6665  0.00069158396281299
                  1000  0.0053257961529341
                   228   0.027060721042034
                 64.71    0.10165684614077
                 21.06     0.2745748236174
                 7.495    0.44829431892377
                 2.797    0.28490261071525
                0.5215   0.015194859206082
 s    8 1.00
                  6665  -0.00029326965268655
                  1000  -0.0023180354739745
                   228  -0.011499786038565
                 64.71  -0.046826727009787
                 21.06   -0.12846616875047
                 7.495   -0.30126627246289
                 2.797   -0.25563070233011
                0.5215      1.093793361012
 s    1 1.00
                0.1596                   1
 p    3 1.00
                 9.439   0.056979251590039
                 2.002    0.31320721150073
                0.5456    0.76037674173753
 p    1 1.00
                0.1517                   1
 d    1 1.00
                  0.55                   1

17 0
 s    3 1.00
                 13.01   0.033498726389998
                 1.962    0.23480080117413
                0.4446     0.8136829578829
 s    1 1.00
                 0.122                   1
 p    1 1.00
                 0.727                   1

18 0
 s    3 1.00
                 13.01   0.033498726389998
                 1.962    0.23480080117413
                0.4446     0.8136829578829
 s    1 1.00
                 0.122                   1
 p    1 1.00
                 0.727                   1

19 0
 s    8 1.00
                  6665  0.00069158396281299
                  1000  0.0053257961529341
                   228   0.027060721042034
                 64.71    0.10165684614077
                 21.06     0.2745748236174
                 7.495    0.44829431892377
                 2.797    0.28490261071525
                0.5215   0.015194859206082
 s    8 1.00
                  6665  -0.00029326965268655
                  1000  -0.0023180354739745
                   228  -0.011499786038565
                 64.71  -0.046826727009787
                 21.06   -0.12846616875047
                 7.495   -0.30126627246289
                 2.797   -0.25563070233011
                0.5215      1.093793361012
 s    1 1.00
                0.1596                   1
 p    3 1.00
                 9.439   0.056979251590039
                 2.002    0.31320721150073
                0.5456    0.76037674173753
 p    1 1.00
                0.1517                   1
 d    1 1.00
                  0.55                   1

20 0
 s    3 1.00
                 13.01   0.033498726389998
                 1.962    0.23480080117413
                0.4446     0.8136829578829
 s    1 1.00
                 0.122                   1
 p    1 1.00
                 0.727                   1

21 0
 s    8 1.00
                  6665  0.00069158396281299
                  1000  0.0053257961529341
                   228   0.027060721042034
                 64.71    0.10165684614077
                 21.06     0.2745748236174
                 7.495    0.44829431892377
                 2.797    0.28490261071525
                0.5215   0.015194859206082
 s    8 1.00
                  6665  -0.00029326965268655
                  1000  -0.0023180354739745
                   228  -0.011499786038565
                 64.71  -0.046826727009787
                 21.06   -0.12846616875047
                 7.495   -0.30126627246289
                 2.797   -0.25563070233011
                0.5215      1.093793361012
 s    1 1.00
                0.1596                   1
 p    3 1.00
                 9.439   0.056979251590039
                 2.002    0.31320721150073
                0.5456    0.76037674173753
 p    1 1.00
                0.1517                   1
 d    1 1.00
                  0.55                   1

22 0
 s    3 1.00
                 13.01   0.033498726389998
                 1.962    0.23480080117413
                0.4446     0.8136829578829
 s    1 1.00
                 0.122                   1
 p    1 1.00
                 0.727                   1

23 0
 s    3 1.00
                 13.01   0.033498726389998
                 1.962    0.23480080117413
                0.4446     0.8136829578829
 s    1 1.00
                 0.122                   1
 p    1 1.00
                 0.727                   1

24 0
 s    3 1.00
                 13.01   0.033498726389998
                 1.962    0.23480080117413
                0.4446     0.8136829578829
 s    1 1.00
                 0.122                   1
 p    1 1.00
                 0.727                   1

25 0
 s    8 1.00
                  6665  0.00069158396281299
                  1000  0.0053257961529341
                   228   0.027060721042034
                 64.71    0.10165684614077
                 21.06     0.2745748236174
                 7.495    0.44829431892377
                 2.797    0.28490261071525
                0.5215   0.015194859206082
 s    8 1.00
                  6665  -0.00029326965268655
                  1000  -0.0023180354739745
                   228  -0.011499786038565
                 64.71  -0.046826727009787
                 21.06   -0.12846616875047
                 7.495   -0.30126627246289
                 2.797   -0.25563070233011
                0.5215      1.093793361012
 s    1 1.00
                0.1596                   1
 p    3 1.00
                 9.439   0.056979251590039
                 2.002    0.31320721150073
                0.5456    0.76037674173753
 p    1 1.00
                0.1517                   1
 d    1 1.00
                  0.55                   1

26 0
 s    3 1.00
                 13.01   0.033498726389998
                 1.962    0.23480080117413
                0.4446     0.8136829578829
 s    1 1.00
                 0.122                   1
 p    1 1.00
                 0.727                   1

27 0
 s    3 1.00
                 13.01   0.033498726389998
                 1.962    0.23480080117413
                0.4446     0.8136829578829
 s    1 1.00
                 0.122                   1
 p    1 1.00
                 0.727                   1

28 0
 s    8 1.00
                  6665  0.00069158396281299
                  1000  0.0053257961529341
                   228   0.027060721042034
                 64.71    0.10165684614077
                 21.06     0.2745748236174
                 7.495    0.44829431892377
                 2.797    0.28490261071525
                0.5215   0.015194859206082
 s    8 1.00
                  6665  -0.00029326965268655
                  1000  -0.0023180354739745
                   228  -0.011499786038565
                 64.71  -0.046826727009787
                 21.06   -0.12846616875047
                 7.495   -0.30126627246289
                 2.797   -0.25563070233011
                0.5215      1.093793361012
 s    1 1.00
                0.1596                   1
 p    3 1.00
                 9.439   0.056979251590039
                 2.002    0.31320721150073
                0.5456    0.76037674173753
 p    1 1.00
                0.1517                   1
 d    1 1.00
                  0.55                   1

29 0
 s    3 1.00
                 13.01   0.033498726389998
                 1.962    0.23480080117413
                0.4446     0.8136829578829
 s    1 1.00
                 0.122                   1
 p    1 1.00
                 0.727                   1

30 0
 s    3 1.00
                 13.01   0.033498726389998
                 1.962    0.23480080117413
                0.4446     0.8136829578829
 s    1 1.00
                 0.122                   1
 p    1 1.00
                 0.727                   1

31 0
 s    8 1.00
                  6665  0.00069158396281299
                  1000  0.0053257961529341
                   228   0.027060721042034
                 64.71    0.10165684614077
                 21.06     0.2745748236174
                 7.495    0.44829431892377
                 2.797    0.28490261071525
                0.5215   0.015194859206082
 s    8 1.00
                  6665  -0.00029326965268655
                  1000  -0.0023180354739745
                   228  -0.011499786038565
                 64.71  -0.046826727009787
                 21.06   -0.12846616875047
                 7.495   -0.30126627246289
                 2.797   -0.25563070233011
                0.5215      1.093793361012
 s    1 1.00
                0.1596                   1
 p    3 1.00
                 9.439   0.056979251590039
                 2.002    0.31320721150073
                0.5456    0.76037674173753
 p    1 1.00
                0.1517                   1
 d    1 1.00
                  0.55                   1

32 0
 s    3 1.00
                 13.01   0.033498726389998
                 1.962    0.23480080117413
                0.4446     0.8136829578829
 s    1 1.00
                 0.122                   1
 p    1 1.00
                 0.727                   1

33 0
 s    3 1.00
                 13.01   0.033498726389998
                 1.962    0.23480080117413
                0.4446     0.8136829578829
 s    1 1.00
                 0.122                   1
 p    1 1.00
                 0.727                   1

34 0
 s    3 1.00
                 13.01   0.033498726389998
                 1.962    0.23480080117413
                0.4446     0.8136829578829
 s    1 1.00
                 0.122                   1
 p    1 1.00
                 0.727                   1

35 0
 s    3 1.00
                 13.01   0.033498726389998
                 1.962    0.23480080117413
                0.4446     0.8136829578829
 s    1 1.00
                 0.122                   1
 p    1 1.00
                 0.727                   1

36 0
 s    3 1.00
                 13.01   0.033498726389998
                 1.962    0.23480080117413
                0.4446     0.8136829578829
 s    1 1.00
                 0.122                   1
 p    1 1.00
                 0.727                   1

37 0
 s    3 1.00
                 13.01   0.033498726389998
                 1.962    0.23480080117413
                0.4446     0.8136829578829
 s    1 1.00
                 0.122                   1
 p    1 1.00
                 0.727                   1

[5d]
[7f]
[9g]

[MO]
 Sym= A
 Ene=               0
 Spin= Alpha
 Occup=    1.00000
   1    -6.7607907874313e-06
   2    -5.8548266426675e-05
   3    -6.8260279489054e-05
   4    8.7758126856654e-05
   5    0.00015605023030603
   6    -5.6952911365324e-05
   7    7.7187271386863e-05
   8    9.9593737078743e-05
   9    -7.1777382673233e-05
  10    -5.7297912886224e-06
  11    1.2572613897272e-06
  12    -2.1460430605568e-06
  13    -5.187817931465e-06
  14    1.8387637026903e-06
  15    -4.774156969808e-05
  16    -4.9574169723174e-05
  17    8.5496408817694e-06
  18    -3.9112345622203e-06
  19    2.9575576244043e-05
  20    0.00010207604459991
  21    2.185734152858e-05
  22    4.8130560502807e-06
  23    -6.3079945459422e-06
  24    -4.1716613461569e-06
  25    1.677904811169e-05
  26    1.5784143594197e-05
  27    -4.2913745723754e-06
  28    -0.00044229697142131
  29    -0.0008134439786309
  30    -0.00025078922668143
  31    -0.00035148438107137
  32    -0.00054859398545737
  33    -6.9072922897669e-05
  34    1.796226350155e-05
  35    1.1941800406737e-05
  36    2.4858826181429e-05
  37    -5.5998776778883e-06
  38    1.9743272877995e-06
  39    -2.0436832583101e-05
  40    9.9378449050333e-05
  41    -0.00038279442391116
  42    -0.00032808455020039
  43    -0.00044526842838952
  44    0.00016493226316594
  45    -0.00029699318296552
  46    -0.00053433470690249
  47    8.0515028978098e-05
  48    -6.0597042386501e-06
  49    -0.00011372004462606
  50    -0.00012082904224517
  51    -3.0712351830208e-05
  52    1.1188969481414e-05
  53        -0.11555668161
  54    -0.00064640438039753
  55    0.0042002070136748
  56    3.4399575780219e-05
  57    5.6778392504907e-05
  58    -6.3978176085345e-05
  59    0.00080644666406994
  60    0.0010114694785467
  61    -0.00091226478395428
  62    -9.3902847123149e-06
  63    7.2373685153062e-05
  64    0.00014725536502123
  65    5.7667410176502e-05
  66    -0.00011947548680732
  67    -0.014766340902979
  68    -0.00011349795160935
  69    0.00060376498027117
  70    -2.4541173881511e-05
  71    -8.4308944230883e-05
  72    9.2125172687849e-06
  73    0.00031619959595627
  74    0.00029001384508501
  75    6.0347174418512e-05
  76    4.0680888975302e-06
  77    3.6025811191176e-06
  78    -6.4251442033123e-05
  79    -4.7059807498662e-05
  80    5.0557136419503e-06
  81    -0.00017147698373921
  82    -6.8747050234881e-05
  83    -7.628847245822e-06
  84    3.7342788297292e-05
  85    -7.7351444830648e-05
  86       0.9955412439599
  87      0.00528693849032
  88    -0.013056163133296
  89    -0.00016844427667651
  90    0.00013330209400393
  91    7.6141948431372e-05
  92    -0.00055032574922536
  93    0.0016346186818423
  94    -7.1621291399911e-05
  95    2.8287597289648e-05
  96    0.00032322309738151
  97    2.0729870683329e-05
  98    -9.2373769656521e-05
  99    7.3701535373829e-05
 100    -0.00013783832959112
 101    3.9393507821097e-05
 102    8.2884674182648e-05
 103    8.7144404071195e-05
 104    -1.2791836055638e-05
 105    5.8579069734178e-05
 106    -0.0001012416043515
 107    -5.3681236720262e-05
 108    1.1364469246394e-09
 109    1.6127208605539e-05
 110    -8.96760862501e-05
 111    -0.00041530137037941
 112    1.4727506597419e-05
 113    2.6313064095041e-05
 114    -1.690867625129e-05
 115    -9.9758232758971e-05
 116    -7.9048334796797e-06
 117    -6.5873767990277e-05
 118    7.498680477584e-06
 119    1.1742826079201e-05
 120    1.0382605778384e-05
 121    -0.00011467134901741
 122    -0.00016459488269863
 123    -9.2656220173084e-05
 124    2.9047592892132e-06
 125    -1.2318276593847e-05
 126    1.3358704080683e-05
 127    -2.806179079482e-06
 128    -1.5634408333185e-05
 129    0.0002275054054192
 130    0.0011985012551057
 131    0.00022582712754198
 132    0.00028814064474877
 133    0.00023651340633934
 134    0.00020486762599024
 135    0.0013825804267803
 136    -0.00025708861426974
 137    7.3267538680035e-05
 138    -0.00032066315867019
 139     0.026136606305133
 140    -8.5547274654561e-05
 141    0.0036261384751988
 142    -0.00012840451100218
 143    5.4252274642765e-05
 144    8.6890180565284e-05
 145    -0.0013514281902531
 146    0.0010982520263891
 147    0.0007701867093041
 148    3.4853615252728e-05
 149    4.2684002687912e-05
 150    -3.1830952623266e-05
 151    2.8402147592183e-07
 152    8.149974374157e-05
 153    3.6769641277237e-05
 154    8.0641665944857e-05
 155    -5.7233976252628e-06
 156    2.6564622896652e-06
 157    -3.1751252542058e-06
 158    -1.8515293683582e-05
 159    -1.457897076247e-05
 160    1.2202101177138e-05
 161    7.143058327077e-06
 162    7.9516001607932e-06
 163    1.4879454633619e-05
 164    2.1984600620626e-05
 165    -0.00017659057791771
 166    -1.0614559126087e-05
 167    -3.6421794025909e-06
 168    3.5975763814467e-06
 169    0.00015672198439818
 170    3.8686592370131e-05
 171    -4.0037419081728e-06
 172    3.0256122586932e-06
 173    1.5107325560184e-05
 174    -1.9320654757522e-06
 175    3.136774807673e-06
 176    3.0946464959664e-06
 177    -0.00012941705285785
 178    0.0002304434598627
 179    -5.5981661894088e-05
 180    2.0929540781871e-05
 181    1.7356425725517e-05
 182    6.7536412222807e-05
 183    -4.5748075475254e-05
 184    -0.0006045685018542
 185    5.2855031460412e-05
 186    6.7041829670101e-06
 187    -4.9960656917685e-05
 188    -0.00017235241138722
 189    0.00050629704118711
 190    -4.8277495806941e-05
 191    -2.4328765720641e-05
 192    -2.4970039534935e-06
 193    3.1284589535646e-05
 194    -3.5252300006201e-06
 195    -5.2360724961349e-05
 196    -0.00012315276474541
 197    0.00022463624396664
 198    -3.9062899839392e-05
 199    2.9411248144866e-05
 200    4.0212797855292e-05
 201    1.338335679937e-05
 202    8.0640408132042e-05
 203    -5.4560302579119e-06
 204      3.0548125148e-06
 205    6.2525064274683e-06
 206    -1.9360181944177e-05
 207    3.1418729147483e-05
 208    -4.963550827058e-06
 209    -6.084212142403e-06
 210    1.7049758939218e-06
 211    -1.1854248629001e-05
 212    -1.5886342907402e-05
 213    0.00015792078931895
 214    7.6614568874274e-06
 215    -1.7560135465812e-06
 216    -4.093926590713e-06
 217    1.3666071296535e-05
 218    -5.7350087724119e-05
 219    -4.7285021227879e-05
 220    1.5434803943484e-06
 221    -5.3757787868745e-06
 222    5.5805870245009e-06
 223    5.5366853705394e-07
 224    -5.395638105799e-06
 225    -1.4241788882831e-05
 226    -0.00023662471933882
 227    5.4974907874129e-05
 228    -9.2075011081436e-06
 229    -9.8077356132377e-06
 230    -7.5905797471752e-06
 231    -0.0002831402365875
 232    2.4046498938731e-05
 233    -1.9692628396493e-05
 234    -5.2702694713267e-05
 235    -7.2022389512138e-05
 236    -0.00016026211852035
 237    0.00075287132080568
 238    1.3144606408904e-05
 239    1.2034850956245e-05
 240    -1.4608515252853e-05
 241    -0.00041975841354538
 242    -7.0582212067147e-05
 243    0.00037958119904574
 244    5.6748189802677e-06
 245    -2.0902537931557e-05
 246    2.8923015140815e-06
 247    1.6668804624319e-05
 248    1.479608748351e-06
 249    -2.5353521365611e-06
 250    1.4328326436629e-05
 251    8.3634699114751e-08
 252    1.3186924860984e-06
 253    9.3326465209684e-07
 254    -1.0773395522564e-05
 255    -3.1710388466602e-05
 256    -8.8150051293495e-07
 257    -4.607104687847e-07
 258    2.5109748053831e-06
 259    -4.5497898381292e-06
 260    -4.9264233489136e-06
 261    1.2947572962423e-06
 262    -1.7192668857593e-06
 263    1.4115814519304e-06