[Molden Format]
made by pyscf v[2.0.1]
[Atoms] (AU)
C   1   6     0.69100024066471     0.64692934207205    -3.48223131169301
H   2   1     2.68052439830868     1.13355088658700    -3.25784032593313
C   3   6    -0.36286361513219     0.85440132524594    -5.97030179418974
H   4   1    -2.35448549047279     0.36322488579172    -6.17995817793143
C   5   6     0.93697958957450     1.61209284601821    -8.05828437677121
H   6   1     0.98787445190838     3.61459623416997    -8.53612607551025
C   7   6     2.26501037377666    -0.09521284299527    -9.69466000525781
H   8   1     2.19798542548318    -2.09561092109775    -9.19103573591963
H   9   1     1.55630230933075    -1.92953025305990    12.99630010416247
C   10   6     0.75233899775814    -2.21270439606481    11.10705728102219
H   11   1    -0.43433408177274    -3.90944857546550    11.22216085340412
C   12   6     2.86362581178706    -2.63237380607947     9.17926416456045
H   13   1     4.39038949912609    -1.24955421540245     9.49899813497433
H   14   1     3.74629220191363    -4.48798724300892     9.47414880959024
C   15   6     2.02478325613682    -2.42177285709634     6.44560829588644
C   16   6     3.88048732735477    -3.58795445234514     4.61402886975252
C   17   6    -0.18412382258602    -1.30464291234259     5.76021113872346
C   18   6    -2.10044360464350    -0.26837831858460     7.71610340967100
C   19   6    -3.08956938670431     2.35282328359417     6.88693925039594
C   20   6    -4.37372924086464    -2.09766595989678     7.93610724222001
C   21   6    -0.83850430601230     0.06372213486173    10.33002307638377
H   22   1     0.38411922151109     1.74281358582432    10.27380136542181
H   23   1    -2.30980003007874     0.45460143924521    11.73986301809809
H   24   1     4.58527064644668    -5.38706904487420     5.36778158031719
H   25   1     5.54944938085014    -2.37631462192748     4.35398898413318
H   26   1     3.06633019150423    -3.94118377050688     2.75255466040884
H   27   1    -4.17727778763735     2.26573369139522     5.12914900961283
H   28   1    -1.52662344944051     3.68001877445626     6.59540397144508
H   29   1    -4.32916174397830     3.13643051467482     8.35225460090378
H   30   1    -5.32329548508442    -2.36691813602939     6.11583672749896
H   31   1    -5.77989366602257    -1.33896741843465     9.25748940450990
H   32   1    -3.79310905208926    -3.96389819310853     8.61386170102686
C   33   6    -1.01100794811226    -1.06331657314144     3.11929490449947
C   34   6     0.37686231036534    -0.33275864505552     1.09165013605873
H   35   1    -3.01671213906703    -1.40297922279997     2.77827895090944
C   36   6    -0.64382707979370    -0.11591880174385    -1.42063131251064
H   37   1     2.35569259782137     0.17174499283897     1.33641070251401
H   38   1    -2.63317482980319    -0.60229203511219    -1.66119700387645
C   39   6     3.58038244524183     0.57209765736826   -11.79257005200741
C   40   6     4.87057751772619    -1.31288245896332   -13.33829616647468
H   41   1     3.72212183925239     2.53140115363455   -12.39986577500592
O   42   8     6.08287300298468    -0.84687400827575   -15.24460146946798
H   43   1     4.67557951371048    -3.29368722109141   -12.64651065729987
[GTO]
1 0
 s    6 1.00
             3047.5249  0.0018347001629433
             457.36951    0.01403730124668
             103.94869   0.068842606114048
             29.210155    0.23218442062076
              9.286663    0.46794134155879
              3.163927    0.36231203217765
 s    3 1.00
             7.8682724   -0.11933240861517
             1.8812885   -0.16085421161283
             0.5442493     1.1434564825515
 s    1 1.00
             0.1687144                   1
 p    3 1.00
             7.8682724   0.068999095584993
             1.8812885    0.31642397975315
             0.5442493    0.74430825237435
 p    1 1.00
             0.1687144                   1
 d    1 1.00
                   0.8                   1

2 0
 s    3 1.00
             18.731137    0.03349459952309
             2.8253937    0.23472694665786
             0.6401217    0.81375731841339
 s    1 1.00
             0.1612778                   1

3 0
 s    6 1.00
             3047.5249  0.0018347001629433
             457.36951    0.01403730124668
             103.94869   0.068842606114048
             29.210155    0.23218442062076
              9.286663    0.46794134155879
              3.163927    0.36231203217765
 s    3 1.00
             7.8682724   -0.11933240861517
             1.8812885   -0.16085421161283
             0.5442493     1.1434564825515
 s    1 1.00
             0.1687144                   1
 p    3 1.00
             7.8682724   0.068999095584993
             1.8812885    0.31642397975315
             0.5442493    0.74430825237435
 p    1 1.00
             0.1687144                   1
 d    1 1.00
                   0.8                   1

4 0
 s    3 1.00
             18.731137    0.03349459952309
             2.8253937    0.23472694665786
             0.6401217    0.81375731841339
 s    1 1.00
             0.1612778                   1

5 0
 s    6 1.00
             3047.5249  0.0018347001629433
             457.36951    0.01403730124668
             103.94869   0.068842606114048
             29.210155    0.23218442062076
              9.286663    0.46794134155879
              3.163927    0.36231203217765
 s    3 1.00
             7.8682724   -0.11933240861517
             1.8812885   -0.16085421161283
             0.5442493     1.1434564825515
 s    1 1.00
             0.1687144                   1
 p    3 1.00
             7.8682724   0.068999095584993
             1.8812885    0.31642397975315
             0.5442493    0.74430825237435
 p    1 1.00
             0.1687144                   1
 d    1 1.00
                   0.8                   1

6 0
 s    3 1.00
             18.731137    0.03349459952309
             2.8253937    0.23472694665786
             0.6401217    0.81375731841339
 s    1 1.00
             0.1612778                   1

7 0
 s    6 1.00
             3047.5249  0.0018347001629433
             457.36951    0.01403730124668
             103.94869   0.068842606114048
             29.210155    0.23218442062076
              9.286663    0.46794134155879
              3.163927    0.36231203217765
 s    3 1.00
             7.8682724   -0.11933240861517
             1.8812885   -0.16085421161283
             0.5442493     1.1434564825515
 s    1 1.00
             0.1687144                   1
 p    3 1.00
             7.8682724   0.068999095584993
             1.8812885    0.31642397975315
             0.5442493    0.74430825237435
 p    1 1.00
             0.1687144                   1
 d    1 1.00
                   0.8                   1

8 0
 s    3 1.00
             18.731137    0.03349459952309
             2.8253937    0.23472694665786
             0.6401217    0.81375731841339
 s    1 1.00
             0.1612778                   1

9 0
 s    3 1.00
             18.731137    0.03349459952309
             2.8253937    0.23472694665786
             0.6401217    0.81375731841339
 s    1 1.00
             0.1612778                   1

10 0
 s    6 1.00
             3047.5249  0.0018347001629433
             457.36951    0.01403730124668
             103.94869   0.068842606114048
             29.210155    0.23218442062076
              9.286663    0.46794134155879
              3.163927    0.36231203217765
 s    3 1.00
             7.8682724   -0.11933240861517
             1.8812885   -0.16085421161283
             0.5442493     1.1434564825515
 s    1 1.00
             0.1687144                   1
 p    3 1.00
             7.8682724   0.068999095584993
             1.8812885    0.31642397975315
             0.5442493    0.74430825237435
 p    1 1.00
             0.1687144                   1
 d    1 1.00
                   0.8                   1

11 0
 s    3 1.00
             18.731137    0.03349459952309
             2.8253937    0.23472694665786
             0.6401217    0.81375731841339
 s    1 1.00
             0.1612778                   1

12 0
 s    6 1.00
             3047.5249  0.0018347001629433
             457.36951    0.01403730124668
             103.94869   0.068842606114048
             29.210155    0.23218442062076
              9.286663    0.46794134155879
              3.163927    0.36231203217765
 s    3 1.00
             7.8682724   -0.11933240861517
             1.8812885   -0.16085421161283
             0.5442493     1.1434564825515
 s    1 1.00
             0.1687144                   1
 p    3 1.00
             7.8682724   0.068999095584993
             1.8812885    0.31642397975315
             0.5442493    0.74430825237435
 p    1 1.00
             0.1687144                   1
 d    1 1.00
                   0.8                   1

13 0
 s    3 1.00
             18.731137    0.03349459952309
             2.8253937    0.23472694665786
             0.6401217    0.81375731841339
 s    1 1.00
             0.1612778                   1

14 0
 s    3 1.00
             18.731137    0.03349459952309
             2.8253937    0.23472694665786
             0.6401217    0.81375731841339
 s    1 1.00
             0.1612778                   1

15 0
 s    6 1.00
             3047.5249  0.0018347001629433
             457.36951    0.01403730124668
             103.94869   0.068842606114048
             29.210155    0.23218442062076
              9.286663    0.46794134155879
              3.163927    0.36231203217765
 s    3 1.00
             7.8682724   -0.11933240861517
             1.8812885   -0.16085421161283
             0.5442493     1.1434564825515
 s    1 1.00
             0.1687144                   1
 p    3 1.00
             7.8682724   0.068999095584993
             1.8812885    0.31642397975315
             0.5442493    0.74430825237435
 p    1 1.00
             0.1687144                   1
 d    1 1.00
                   0.8                   1

16 0
 s    6 1.00
             3047.5249  0.0018347001629433
             457.36951    0.01403730124668
             103.94869   0.068842606114048
             29.210155    0.23218442062076
              9.286663    0.46794134155879
              3.163927    0.36231203217765
 s    3 1.00
             7.8682724   -0.11933240861517
             1.8812885   -0.16085421161283
             0.5442493     1.1434564825515
 s    1 1.00
             0.1687144                   1
 p    3 1.00
             7.8682724   0.068999095584993
             1.8812885    0.31642397975315
             0.5442493    0.74430825237435
 p    1 1.00
             0.1687144                   1
 d    1 1.00
                   0.8                   1

17 0
 s    6 1.00
             3047.5249  0.0018347001629433
             457.36951    0.01403730124668
             103.94869   0.068842606114048
             29.210155    0.23218442062076
              9.286663    0.46794134155879
              3.163927    0.36231203217765
 s    3 1.00
             7.8682724   -0.11933240861517
             1.8812885   -0.16085421161283
             0.5442493     1.1434564825515
 s    1 1.00
             0.1687144                   1
 p    3 1.00
             7.8682724   0.068999095584993
             1.8812885    0.31642397975315
             0.5442493    0.74430825237435
 p    1 1.00
             0.1687144                   1
 d    1 1.00
                   0.8                   1

18 0
 s    6 1.00
             3047.5249  0.0018347001629433
             457.36951    0.01403730124668
             103.94869   0.068842606114048
             29.210155    0.23218442062076
              9.286663    0.46794134155879
              3.163927    0.36231203217765
 s    3 1.00
             7.8682724   -0.11933240861517
             1.8812885   -0.16085421161283
             0.5442493     1.1434564825515
 s    1 1.00
             0.1687144                   1
 p    3 1.00
             7.8682724   0.068999095584993
             1.8812885    0.31642397975315
             0.5442493    0.74430825237435
 p    1 1.00
             0.1687144                   1
 d    1 1.00
                   0.8                   1

19 0
 s    6 1.00
             3047.5249  0.0018347001629433
             457.36951    0.01403730124668
             103.94869   0.068842606114048
             29.210155    0.23218442062076
              9.286663    0.46794134155879
              3.163927    0.36231203217765
 s    3 1.00
             7.8682724   -0.11933240861517
             1.8812885   -0.16085421161283
             0.5442493     1.1434564825515
 s    1 1.00
             0.1687144                   1
 p    3 1.00
             7.8682724   0.068999095584993
             1.8812885    0.31642397975315
             0.5442493    0.74430825237435
 p    1 1.00
             0.1687144                   1
 d    1 1.00
                   0.8                   1

20 0
 s    6 1.00
             3047.5249  0.0018347001629433
             457.36951    0.01403730124668
             103.94869   0.068842606114048
             29.210155    0.23218442062076
              9.286663    0.46794134155879
              3.163927    0.36231203217765
 s    3 1.00
             7.8682724   -0.11933240861517
             1.8812885   -0.16085421161283
             0.5442493     1.1434564825515
 s    1 1.00
             0.1687144                   1
 p    3 1.00
             7.8682724   0.068999095584993
             1.8812885    0.31642397975315
             0.5442493    0.74430825237435
 p    1 1.00
             0.1687144                   1
 d    1 1.00
                   0.8                   1

21 0
 s    6 1.00
             3047.5249  0.0018347001629433
             457.36951    0.01403730124668
             103.94869   0.068842606114048
             29.210155    0.23218442062076
              9.286663    0.46794134155879
              3.163927    0.36231203217765
 s    3 1.00
             7.8682724   -0.11933240861517
             1.8812885   -0.16085421161283
             0.5442493     1.1434564825515
 s    1 1.00
             0.1687144                   1
 p    3 1.00
             7.8682724   0.068999095584993
             1.8812885    0.31642397975315
             0.5442493    0.74430825237435
 p    1 1.00
             0.1687144                   1
 d    1 1.00
                   0.8                   1

22 0
 s    3 1.00
             18.731137    0.03349459952309
             2.8253937    0.23472694665786
             0.6401217    0.81375731841339
 s    1 1.00
             0.1612778                   1

23 0
 s    3 1.00
             18.731137    0.03349459952309
             2.8253937    0.23472694665786
             0.6401217    0.81375731841339
 s    1 1.00
             0.1612778                   1

24 0
 s    3 1.00
             18.731137    0.03349459952309
             2.8253937    0.23472694665786
             0.6401217    0.81375731841339
 s    1 1.00
             0.1612778                   1

25 0
 s    3 1.00
             18.731137    0.03349459952309
             2.8253937    0.23472694665786
             0.6401217    0.81375731841339
 s    1 1.00
             0.1612778                   1

26 0
 s    3 1.00
             18.731137    0.03349459952309
             2.8253937    0.23472694665786
             0.6401217    0.81375731841339
 s    1 1.00
             0.1612778                   1

27 0
 s    3 1.00
             18.731137    0.03349459952309
             2.8253937    0.23472694665786
             0.6401217    0.81375731841339
 s    1 1.00
             0.1612778                   1

28 0
 s    3 1.00
             18.731137    0.03349459952309
             2.8253937    0.23472694665786
             0.6401217    0.81375731841339
 s    1 1.00
             0.1612778                   1

29 0
 s    3 1.00
             18.731137    0.03349459952309
             2.8253937    0.23472694665786
             0.6401217    0.81375731841339
 s    1 1.00
             0.1612778                   1

30 0
 s    3 1.00
             18.731137    0.03349459952309
             2.8253937    0.23472694665786
             0.6401217    0.81375731841339
 s    1 1.00
             0.1612778                   1

31 0
 s    3 1.00
             18.731137    0.03349459952309
             2.8253937    0.23472694665786
             0.6401217    0.81375731841339
 s    1 1.00
             0.1612778                   1

32 0
 s    3 1.00
             18.731137    0.03349459952309
             2.8253937    0.23472694665786
             0.6401217    0.81375731841339
 s    1 1.00
             0.1612778                   1

33 0
 s    6 1.00
             3047.5249  0.0018347001629433
             457.36951    0.01403730124668
             103.94869   0.068842606114048
             29.210155    0.23218442062076
              9.286663    0.46794134155879
              3.163927    0.36231203217765
 s    3 1.00
             7.8682724   -0.11933240861517
             1.8812885   -0.16085421161283
             0.5442493     1.1434564825515
 s    1 1.00
             0.1687144                   1
 p    3 1.00
             7.8682724   0.068999095584993
             1.8812885    0.31642397975315
             0.5442493    0.74430825237435
 p    1 1.00
             0.1687144                   1
 d    1 1.00
                   0.8                   1

34 0
 s    6 1.00
             3047.5249  0.0018347001629433
             457.36951    0.01403730124668
             103.94869   0.068842606114048
             29.210155    0.23218442062076
              9.286663    0.46794134155879
              3.163927    0.36231203217765
 s    3 1.00
             7.8682724   -0.11933240861517
             1.8812885   -0.16085421161283
             0.5442493     1.1434564825515
 s    1 1.00
             0.1687144                   1
 p    3 1.00
             7.8682724   0.068999095584993
             1.8812885    0.31642397975315
             0.5442493    0.74430825237435
 p    1 1.00
             0.1687144                   1
 d    1 1.00
                   0.8                   1

35 0
 s    3 1.00
             18.731137    0.03349459952309
             2.8253937    0.23472694665786
             0.6401217    0.81375731841339
 s    1 1.00
             0.1612778                   1

36 0
 s    6 1.00
             3047.5249  0.0018347001629433
             457.36951    0.01403730124668
             103.94869   0.068842606114048
             29.210155    0.23218442062076
              9.286663    0.46794134155879
              3.163927    0.36231203217765
 s    3 1.00
             7.8682724   -0.11933240861517
             1.8812885   -0.16085421161283
             0.5442493     1.1434564825515
 s    1 1.00
             0.1687144                   1
 p    3 1.00
             7.8682724   0.068999095584993
             1.8812885    0.31642397975315
             0.5442493    0.74430825237435
 p    1 1.00
             0.1687144                   1
 d    1 1.00
                   0.8                   1

37 0
 s    3 1.00
             18.731137    0.03349459952309
             2.8253937    0.23472694665786
             0.6401217    0.81375731841339
 s    1 1.00
             0.1612778                   1

38 0
 s    3 1.00
             18.731137    0.03349459952309
             2.8253937    0.23472694665786
             0.6401217    0.81375731841339
 s    1 1.00
             0.1612778                   1

39 0
 s    6 1.00
             3047.5249  0.0018347001629433
             457.36951    0.01403730124668
             103.94869   0.068842606114048
             29.210155    0.23218442062076
              9.286663    0.46794134155879
              3.163927    0.36231203217765
 s    3 1.00
             7.8682724   -0.11933240861517
             1.8812885   -0.16085421161283
             0.5442493     1.1434564825515
 s    1 1.00
             0.1687144                   1
 p    3 1.00
             7.8682724   0.068999095584993
             1.8812885    0.31642397975315
             0.5442493    0.74430825237435
 p    1 1.00
             0.1687144                   1
 d    1 1.00
                   0.8                   1

40 0
 s    6 1.00
             3047.5249  0.0018347001629433
             457.36951    0.01403730124668
             103.94869   0.068842606114048
             29.210155    0.23218442062076
              9.286663    0.46794134155879
              3.163927    0.36231203217765
 s    3 1.00
             7.8682724   -0.11933240861517
             1.8812885   -0.16085421161283
             0.5442493     1.1434564825515
 s    1 1.00
             0.1687144                   1
 p    3 1.00
             7.8682724   0.068999095584993
             1.8812885    0.31642397975315
             0.5442493    0.74430825237435
 p    1 1.00
             0.1687144                   1
 d    1 1.00
                   0.8                   1

41 0
 s    3 1.00
             18.731137    0.03349459952309
             2.8253937    0.23472694665786
             0.6401217    0.81375731841339
 s    1 1.00
             0.1612778                   1

42 0
 s    6 1.00
             5484.6717   0.001831099805527
             825.23495   0.013950098518422
             188.04696    0.06844509273075
               52.9645    0.23271427528445
              16.89757    0.47019295006289
             5.7996353    0.35852086192309
 s    3 1.00
             15.539616   -0.11077750382508
             3.5999336   -0.14802630511126
             1.0137618     1.1307670390447
 s    1 1.00
             0.2700058                   1
 p    3 1.00
             15.539616   0.070874299543311
             3.5999336    0.33975279781076
             1.0137618    0.72715859531445
 p    1 1.00
             0.2700058                   1
 d    1 1.00
                   0.8                   1

43 0
 s    3 1.00
             18.731137    0.03349459952309
             2.8253937    0.23472694665786
             0.6401217    0.81375731841339
 s    1 1.00
             0.1612778                   1

[5d]
[7f]
[9g]

[MO]
 Sym= A
 Ene=               0
 Spin= Alpha
 Occup=    1.00000
   1     0.018179508707327
   2    -0.00092842113928186
   3    0.0069928069817836
   4    0.00041292681763369
   5    -0.00014161332224752
   6    0.0011834418348719
   7    0.0008069821938298
   8    0.0012563739697441
   9    -0.0054145262779351
  10    -0.00086607714503453
  11    -0.00084762642790298
  12    0.00014237346922267
  13    -0.00021609480062291
  14    3.3846162293122e-05
  15    -0.000524691048261
  16    -0.00098152363781719
  17      0.99489805659133
  18      0.03687344834412
  19    -0.028327530482484
  20    0.00094315319461843
  21    0.00018880793617782
  22    -0.00054797457652162
  23    -0.0035272434482901
  24    -0.001049159898654
  25    -0.00081697323039177
  26    0.00076697136442612
  27    -0.00029899068277375
  28    -0.00034608299433217
  29    0.00029905166168881
  30    0.00020104575478126
  31    -0.0011253113798798
  32    0.0038321431463672
  33     0.012177752719927
  34    -0.00029830863886198
  35    0.00086978167306214
  36    0.00081722288116082
  37    0.00032729603598587
  38    -0.0011293754414818
  39    -0.0024005838348215
  40    0.0035201543327033
  41    0.0039810387410663
  42    -0.00059417562998098
  43     0.001178432786101
  44    0.00046613956335639
  45    -0.00034609714064739
  46    -0.00036453217158685
  47    -0.00054998603734071
  48    -0.00059088098650003
  49    -0.00010879720509936
  50    -0.00053808170518425
  51    0.00033087708154908
  52    0.00026234097468318
  53    4.9523085002637e-05
  54    -0.00038858559148215
  55    -0.0048728047108767
  56    0.0011230174506282
  57    0.0069074519262717
  58    -0.00015561751632924
  59    -1.6608820280124e-05
  60    0.00014954936586543
  61    -0.00023467522537044
  62    -0.00019361259846069
  63    -0.00045844872704644
  64    0.00030658293469666
  65    -7.1462734347885e-06
  66    -1.7327184461262e-05
  67    -2.3229474861409e-06
  68    5.5592708736478e-06
  69    7.5617606902703e-07
  70    1.0766968118398e-05
  71    -5.3447479647447e-06
  72    -1.0568095754351e-05
  73    2.3676499645493e-05
  74    1.5911243746871e-05
  75    1.770941794336e-05
  76    -7.6792301529578e-07
  77    -9.2290085105601e-07
  78    5.3156105825006e-07
  79    6.0787250636346e-07
  80    -9.502010967961e-07
  81    -1.0689592976755e-07
  82    4.2616358086785e-06
  83    1.8589451882732e-06
  84    -4.5929214801206e-07
  85    -5.4050799261209e-05
  86    -3.7692348395754e-06
  87    -1.4277322404381e-05
  88    2.0158148132594e-05
  89    1.6379241593169e-05
  90    -6.5906172841103e-05
  91    8.0726183241484e-06
  92    1.9664696881426e-06
  93    -5.1015988555719e-06
  94    -4.8547253347697e-09
  95    -2.3592237464542e-06
  96    -4.5762693783948e-06
  97    -1.5796449902944e-05
  98    -2.5451944691318e-05
  99    1.5856444247447e-05
 100    1.4239619232883e-05
 101    -9.7798457899836e-06
 102    -6.0607557501918e-07
 103    0.00026686389696135
 104    3.2596465314417e-05
 105    0.00010488957355964
 106    -3.0078230873714e-05
 107    -0.00016274658920633
 108    0.00027054264699887
 109    9.9769464490868e-05
 110    -6.5368574901756e-06
 111    9.7408425585728e-07
 112    -1.4543313699711e-06
 113    -1.9815443884485e-06
 114    -9.3146569412427e-06
 115    -1.6741192891453e-06
 116    -3.2982001786549e-05
 117    0.00021518133165034
 118    -3.0840174226887e-06
 119    -1.2248500376294e-05
 120    1.5418587693439e-05
 121    -3.9465688217413e-05
 122    -4.3518213384792e-07
 123    3.8218910832837e-05
 124    1.0674999831308e-06
 125    -1.1080868007326e-06
 126    -1.0250189415325e-06
 127    -2.7994964868715e-06
 128    -5.6006878032866e-06
 129    -1.722055534869e-05
 130    -1.7774504052943e-05
 131    0.0001682396526126
 132    5.3111908522961e-05
 133    5.9225364132245e-05
 134    -3.2434768993778e-06
 135    -0.00034934385790756
 136    0.00010747335066763
 137    -0.00039396128681566
 138    6.6034837592201e-06
 139    1.8313402011423e-05
 140    1.0766098084611e-05
 141    1.0600748160557e-05
 142    9.646279274797e-06
 143    2.7722043855458e-06
 144    -3.0624810795009e-05
 145    -2.006237278311e-05
 146    -9.1810688438343e-06
 147    8.0335246911903e-06
 148    1.982330089572e-05
 149    -9.4578502175613e-06
 150    2.5174383053978e-05
 151    -7.1165235402807e-05
 152    -6.5406330142498e-06
 153    -5.2690805324507e-06
 154    -4.8822908671235e-06
 155    5.8827275552238e-06
 156    -1.8187733019274e-06
 157    3.2586298901801e-06
 158    1.030024858024e-05
 159    -5.6976138313214e-05
 160    4.1570614803945e-06
 161    7.5981644933373e-06
 162    -1.9938460805708e-06
 163    -5.7660756139729e-05
 164    3.6130331005068e-05
 165    1.0525722508188e-05
 166    4.2493111241701e-06
 167    -1.0262781837227e-06
 168    -4.2865211566017e-09
 169    1.0875368721444e-06
 170    2.1232980627289e-06
 171    -2.3659673734695e-06
 172    -6.6387826834152e-06
 173    4.0525928670918e-05
 174     1.38070144585e-05
 175    3.7829309738149e-06
 176    3.3265539725886e-05
 177    1.8170595862739e-05
 178    2.8266532152347e-06
 179    -4.256836927094e-06
 180    1.0192627532777e-06
 181    4.456428309894e-06
 182    4.665852672299e-07
 183    -2.2560563153038e-06
 184    1.7223424533467e-06
 185    -3.6410230576854e-06
 186    -3.3363321033399e-05
 187    0.00011416891054465
 188    -3.8013968089917e-06
 189    -5.8267147225547e-06
 190    8.9523535346941e-06
 191    1.4383069810523e-06
 192    -3.3083678619817e-05
 193    -8.3521805039971e-05
 194    3.0888889588525e-06
 195    1.6563690552701e-06
 196    2.9294016037574e-06
 197    2.7378011193928e-07
 198    1.2524422651117e-07
 199    -1.1999002160373e-05
 200    1.8324692348999e-06
 201    -2.4058558393491e-07
 202    2.6726060160414e-05
 203    8.613682471624e-06
 204    2.148004485781e-05
 205    -2.0518301523204e-05
 206    -5.938187350198e-05
 207    1.0478568592627e-05
 208    -4.7539469705247e-05
 209    1.0518873168614e-05
 210    -3.1243303988485e-05
 211    8.4918526842445e-06
 212    2.2668599667241e-05
 213    1.0371292650346e-06
 214    -2.0771319349896e-05
 215    -1.5767097771759e-05
 216    -2.7216428227974e-05
 217    3.3307294669604e-06
 218    1.1722678510016e-06
 219    8.4927083584941e-06
 220    -3.6491950483615e-06
 221    1.3165200654565e-05
 222    -5.8835066834594e-05
 223    0.0008958746572482
 224    -0.00019191459849035
 225    -0.00011880611531625
 226    4.2537740377719e-05
 227    0.00055728835941917
 228    0.00023171068704384
 229    -0.00090089672634556
 230    9.0897393120663e-06
 231    -3.7081366405875e-05
 232    -1.6926138100584e-05
 233    2.6680035189542e-05
 234    2.0336247002402e-05
 235    -0.00020750351441534
 236    0.00028305388416014
 237    5.7109976123741e-05
 238    -6.4517035284049e-05
 239    -3.1541726604887e-05
 240    -0.00052654510892615
 241    0.00030638240870995
 242    0.00029560156915744
 243    -0.0016777720959483
 244    2.2315077593735e-05
 245    7.0975242676217e-05
 246    8.694135150797e-06
 247    1.9204718315449e-05
 248    1.4021747356073e-06
 249    7.5057488244144e-05
 250    0.00036183130871473
 251    0.00015333771514125
 252    -0.00030712305110185
 253    0.0020072234660427
 254    0.0006829912116007
 255    -2.6067370218277e-05
 256    0.00067297381747164
 257    0.00015199073902009
 258    0.0003486402370221
 259    -0.0015669926686992
 260    -3.1782945750628e-05
 261    -7.9171562335105e-06
 262    -2.2108610553745e-05
 263    0.00011800726264176
 264    6.8502167737574e-05
 265    -6.3199283658617e-05
 266    0.00011730331121295
 267    -0.0005124494105037
 268    -0.00084192151289677
 269    -0.00011947612872956
 270    -0.00061101263663117
 271    0.0063656658017029
 272    -0.00013278239118605
 273    0.00032612586896957
 274    0.0002452044449886
 275    -0.0014780129725402
 276    -0.0026082594223738
 277    0.0027233288355497
 278    7.8218786242639e-05
 279    -0.00016911818786735
 280    -9.9280878084488e-05