[Molden Format]
made by pyscf v[2.0.1]
[Atoms] (AU)
C   1   6     0.69100024066471     0.64692934207205    -3.48223131169301
H   2   1     2.68052439830868     1.13355088658700    -3.25784032593313
C   3   6    -0.36286361513219     0.85440132524594    -5.97030179418974
H   4   1    -2.35448549047279     0.36322488579172    -6.17995817793143
C   5   6     0.93697958957450     1.61209284601821    -8.05828437677121
H   6   1     1.03927160684768     3.62047501567417    -8.50199621914587
C   7   6     2.20035018302409    -0.10258413888539    -9.73758817852609
H   8   1     2.08224949102462    -2.10886499715255    -9.26789512642378
H   9   1     1.55630230933075    -1.92953025305990    12.99630010416247
C   10   6     0.75233899775814    -2.21270439606481    11.10705728102219
H   11   1    -0.43433408177274    -3.90944857546550    11.22216085340412
C   12   6     2.86362581178706    -2.63237380607947     9.17926416456045
H   13   1     4.39038949912609    -1.24955421540245     9.49899813497433
H   14   1     3.74629220191363    -4.48798724300892     9.47414880959024
C   15   6     2.02478325613682    -2.42177285709634     6.44560829588644
C   16   6     3.88048732735477    -3.58795445234514     4.61402886975252
C   17   6    -0.18412382258602    -1.30464291234259     5.76021113872346
C   18   6    -2.10044360464350    -0.26837831858460     7.71610340967100
C   19   6    -3.08956938670431     2.35282328359417     6.88693925039594
C   20   6    -4.37372924086464    -2.09766595989678     7.93610724222001
C   21   6    -0.83850430601230     0.06372213486173    10.33002307638377
H   22   1     0.38411922151109     1.74281358582432    10.27380136542181
H   23   1    -2.30980003007874     0.45460143924521    11.73986301809809
H   24   1     4.58527064644668    -5.38706904487420     5.36778158031719
H   25   1     5.54944938085014    -2.37631462192748     4.35398898413318
H   26   1     3.06633019150423    -3.94118377050688     2.75255466040884
H   27   1    -4.17727778763735     2.26573369139522     5.12914900961283
H   28   1    -1.52662344944051     3.68001877445626     6.59540397144508
H   29   1    -4.32916174397830     3.13643051467482     8.35225460090378
H   30   1    -5.32329548508442    -2.36691813602939     6.11583672749896
H   31   1    -5.77989366602257    -1.33896741843465     9.25748940450990
H   32   1    -3.79310905208926    -3.96389819310853     8.61386170102686
C   33   6    -1.01100794811226    -1.06331657314144     3.11929490449947
C   34   6     0.37686231036534    -0.33275864505552     1.09165013605873
H   35   1    -3.01671213906703    -1.40297922279997     2.77827895090944
C   36   6    -0.64382707979370    -0.11591880174385    -1.42063131251064
H   37   1     2.35569259782137     0.17174499283897     1.33641070251401
H   38   1    -2.63317482980319    -0.60229203511219    -1.66119700387645
C   39   6     3.51308281939799     0.56451683374771   -11.83721740116087
C   40   6     4.73454985947753    -1.32827425009098   -13.42856361339847
H   41   1     3.70368628307445     2.52946227119814   -12.41204614817202
O   42   8     5.94050384923934    -0.86285538356078   -15.33903067176323
H   43   1     4.49094488416901    -3.31470750932465   -12.76908014850535
[GTO]
1 0
 s    6 1.00
             3047.5249  0.0018347001629433
             457.36951    0.01403730124668
             103.94869   0.068842606114048
             29.210155    0.23218442062076
              9.286663    0.46794134155879
              3.163927    0.36231203217765
 s    3 1.00
             7.8682724   -0.11933240861517
             1.8812885   -0.16085421161283
             0.5442493     1.1434564825515
 s    1 1.00
             0.1687144                   1
 p    3 1.00
             7.8682724   0.068999095584993
             1.8812885    0.31642397975315
             0.5442493    0.74430825237435
 p    1 1.00
             0.1687144                   1
 d    1 1.00
                   0.8                   1

2 0
 s    3 1.00
             18.731137    0.03349459952309
             2.8253937    0.23472694665786
             0.6401217    0.81375731841339
 s    1 1.00
             0.1612778                   1

3 0
 s    6 1.00
             3047.5249  0.0018347001629433
             457.36951    0.01403730124668
             103.94869   0.068842606114048
             29.210155    0.23218442062076
              9.286663    0.46794134155879
              3.163927    0.36231203217765
 s    3 1.00
             7.8682724   -0.11933240861517
             1.8812885   -0.16085421161283
             0.5442493     1.1434564825515
 s    1 1.00
             0.1687144                   1
 p    3 1.00
             7.8682724   0.068999095584993
             1.8812885    0.31642397975315
             0.5442493    0.74430825237435
 p    1 1.00
             0.1687144                   1
 d    1 1.00
                   0.8                   1

4 0
 s    3 1.00
             18.731137    0.03349459952309
             2.8253937    0.23472694665786
             0.6401217    0.81375731841339
 s    1 1.00
             0.1612778                   1

5 0
 s    6 1.00
             3047.5249  0.0018347001629433
             457.36951    0.01403730124668
             103.94869   0.068842606114048
             29.210155    0.23218442062076
              9.286663    0.46794134155879
              3.163927    0.36231203217765
 s    3 1.00
             7.8682724   -0.11933240861517
             1.8812885   -0.16085421161283
             0.5442493     1.1434564825515
 s    1 1.00
             0.1687144                   1
 p    3 1.00
             7.8682724   0.068999095584993
             1.8812885    0.31642397975315
             0.5442493    0.74430825237435
 p    1 1.00
             0.1687144                   1
 d    1 1.00
                   0.8                   1

6 0
 s    3 1.00
             18.731137    0.03349459952309
             2.8253937    0.23472694665786
             0.6401217    0.81375731841339
 s    1 1.00
             0.1612778                   1

7 0
 s    6 1.00
             3047.5249  0.0018347001629433
             457.36951    0.01403730124668
             103.94869   0.068842606114048
             29.210155    0.23218442062076
              9.286663    0.46794134155879
              3.163927    0.36231203217765
 s    3 1.00
             7.8682724   -0.11933240861517
             1.8812885   -0.16085421161283
             0.5442493     1.1434564825515
 s    1 1.00
             0.1687144                   1
 p    3 1.00
             7.8682724   0.068999095584993
             1.8812885    0.31642397975315
             0.5442493    0.74430825237435
 p    1 1.00
             0.1687144                   1
 d    1 1.00
                   0.8                   1

8 0
 s    3 1.00
             18.731137    0.03349459952309
             2.8253937    0.23472694665786
             0.6401217    0.81375731841339
 s    1 1.00
             0.1612778                   1

9 0
 s    3 1.00
             18.731137    0.03349459952309
             2.8253937    0.23472694665786
             0.6401217    0.81375731841339
 s    1 1.00
             0.1612778                   1

10 0
 s    6 1.00
             3047.5249  0.0018347001629433
             457.36951    0.01403730124668
             103.94869   0.068842606114048
             29.210155    0.23218442062076
              9.286663    0.46794134155879
              3.163927    0.36231203217765
 s    3 1.00
             7.8682724   -0.11933240861517
             1.8812885   -0.16085421161283
             0.5442493     1.1434564825515
 s    1 1.00
             0.1687144                   1
 p    3 1.00
             7.8682724   0.068999095584993
             1.8812885    0.31642397975315
             0.5442493    0.74430825237435
 p    1 1.00
             0.1687144                   1
 d    1 1.00
                   0.8                   1

11 0
 s    3 1.00
             18.731137    0.03349459952309
             2.8253937    0.23472694665786
             0.6401217    0.81375731841339
 s    1 1.00
             0.1612778                   1

12 0
 s    6 1.00
             3047.5249  0.0018347001629433
             457.36951    0.01403730124668
             103.94869   0.068842606114048
             29.210155    0.23218442062076
              9.286663    0.46794134155879
              3.163927    0.36231203217765
 s    3 1.00
             7.8682724   -0.11933240861517
             1.8812885   -0.16085421161283
             0.5442493     1.1434564825515
 s    1 1.00
             0.1687144                   1
 p    3 1.00
             7.8682724   0.068999095584993
             1.8812885    0.31642397975315
             0.5442493    0.74430825237435
 p    1 1.00
             0.1687144                   1
 d    1 1.00
                   0.8                   1

13 0
 s    3 1.00
             18.731137    0.03349459952309
             2.8253937    0.23472694665786
             0.6401217    0.81375731841339
 s    1 1.00
             0.1612778                   1

14 0
 s    3 1.00
             18.731137    0.03349459952309
             2.8253937    0.23472694665786
             0.6401217    0.81375731841339
 s    1 1.00
             0.1612778                   1

15 0
 s    6 1.00
             3047.5249  0.0018347001629433
             457.36951    0.01403730124668
             103.94869   0.068842606114048
             29.210155    0.23218442062076
              9.286663    0.46794134155879
              3.163927    0.36231203217765
 s    3 1.00
             7.8682724   -0.11933240861517
             1.8812885   -0.16085421161283
             0.5442493     1.1434564825515
 s    1 1.00
             0.1687144                   1
 p    3 1.00
             7.8682724   0.068999095584993
             1.8812885    0.31642397975315
             0.5442493    0.74430825237435
 p    1 1.00
             0.1687144                   1
 d    1 1.00
                   0.8                   1

16 0
 s    6 1.00
             3047.5249  0.0018347001629433
             457.36951    0.01403730124668
             103.94869   0.068842606114048
             29.210155    0.23218442062076
              9.286663    0.46794134155879
              3.163927    0.36231203217765
 s    3 1.00
             7.8682724   -0.11933240861517
             1.8812885   -0.16085421161283
             0.5442493     1.1434564825515
 s    1 1.00
             0.1687144                   1
 p    3 1.00
             7.8682724   0.068999095584993
             1.8812885    0.31642397975315
             0.5442493    0.74430825237435
 p    1 1.00
             0.1687144                   1
 d    1 1.00
                   0.8                   1

17 0
 s    6 1.00
             3047.5249  0.0018347001629433
             457.36951    0.01403730124668
             103.94869   0.068842606114048
             29.210155    0.23218442062076
              9.286663    0.46794134155879
              3.163927    0.36231203217765
 s    3 1.00
             7.8682724   -0.11933240861517
             1.8812885   -0.16085421161283
             0.5442493     1.1434564825515
 s    1 1.00
             0.1687144                   1
 p    3 1.00
             7.8682724   0.068999095584993
             1.8812885    0.31642397975315
             0.5442493    0.74430825237435
 p    1 1.00
             0.1687144                   1
 d    1 1.00
                   0.8                   1

18 0
 s    6 1.00
             3047.5249  0.0018347001629433
             457.36951    0.01403730124668
             103.94869   0.068842606114048
             29.210155    0.23218442062076
              9.286663    0.46794134155879
              3.163927    0.36231203217765
 s    3 1.00
             7.8682724   -0.11933240861517
             1.8812885   -0.16085421161283
             0.5442493     1.1434564825515
 s    1 1.00
             0.1687144                   1
 p    3 1.00
             7.8682724   0.068999095584993
             1.8812885    0.31642397975315
             0.5442493    0.74430825237435
 p    1 1.00
             0.1687144                   1
 d    1 1.00
                   0.8                   1

19 0
 s    6 1.00
             3047.5249  0.0018347001629433
             457.36951    0.01403730124668
             103.94869   0.068842606114048
             29.210155    0.23218442062076
              9.286663    0.46794134155879
              3.163927    0.36231203217765
 s    3 1.00
             7.8682724   -0.11933240861517
             1.8812885   -0.16085421161283
             0.5442493     1.1434564825515
 s    1 1.00
             0.1687144                   1
 p    3 1.00
             7.8682724   0.068999095584993
             1.8812885    0.31642397975315
             0.5442493    0.74430825237435
 p    1 1.00
             0.1687144                   1
 d    1 1.00
                   0.8                   1

20 0
 s    6 1.00
             3047.5249  0.0018347001629433
             457.36951    0.01403730124668
             103.94869   0.068842606114048
             29.210155    0.23218442062076
              9.286663    0.46794134155879
              3.163927    0.36231203217765
 s    3 1.00
             7.8682724   -0.11933240861517
             1.8812885   -0.16085421161283
             0.5442493     1.1434564825515
 s    1 1.00
             0.1687144                   1
 p    3 1.00
             7.8682724   0.068999095584993
             1.8812885    0.31642397975315
             0.5442493    0.74430825237435
 p    1 1.00
             0.1687144                   1
 d    1 1.00
                   0.8                   1

21 0
 s    6 1.00
             3047.5249  0.0018347001629433
             457.36951    0.01403730124668
             103.94869   0.068842606114048
             29.210155    0.23218442062076
              9.286663    0.46794134155879
              3.163927    0.36231203217765
 s    3 1.00
             7.8682724   -0.11933240861517
             1.8812885   -0.16085421161283
             0.5442493     1.1434564825515
 s    1 1.00
             0.1687144                   1
 p    3 1.00
             7.8682724   0.068999095584993
             1.8812885    0.31642397975315
             0.5442493    0.74430825237435
 p    1 1.00
             0.1687144                   1
 d    1 1.00
                   0.8                   1

22 0
 s    3 1.00
             18.731137    0.03349459952309
             2.8253937    0.23472694665786
             0.6401217    0.81375731841339
 s    1 1.00
             0.1612778                   1

23 0
 s    3 1.00
             18.731137    0.03349459952309
             2.8253937    0.23472694665786
             0.6401217    0.81375731841339
 s    1 1.00
             0.1612778                   1

24 0
 s    3 1.00
             18.731137    0.03349459952309
             2.8253937    0.23472694665786
             0.6401217    0.81375731841339
 s    1 1.00
             0.1612778                   1

25 0
 s    3 1.00
             18.731137    0.03349459952309
             2.8253937    0.23472694665786
             0.6401217    0.81375731841339
 s    1 1.00
             0.1612778                   1

26 0
 s    3 1.00
             18.731137    0.03349459952309
             2.8253937    0.23472694665786
             0.6401217    0.81375731841339
 s    1 1.00
             0.1612778                   1

27 0
 s    3 1.00
             18.731137    0.03349459952309
             2.8253937    0.23472694665786
             0.6401217    0.81375731841339
 s    1 1.00
             0.1612778                   1

28 0
 s    3 1.00
             18.731137    0.03349459952309
             2.8253937    0.23472694665786
             0.6401217    0.81375731841339
 s    1 1.00
             0.1612778                   1

29 0
 s    3 1.00
             18.731137    0.03349459952309
             2.8253937    0.23472694665786
             0.6401217    0.81375731841339
 s    1 1.00
             0.1612778                   1

30 0
 s    3 1.00
             18.731137    0.03349459952309
             2.8253937    0.23472694665786
             0.6401217    0.81375731841339
 s    1 1.00
             0.1612778                   1

31 0
 s    3 1.00
             18.731137    0.03349459952309
             2.8253937    0.23472694665786
             0.6401217    0.81375731841339
 s    1 1.00
             0.1612778                   1

32 0
 s    3 1.00
             18.731137    0.03349459952309
             2.8253937    0.23472694665786
             0.6401217    0.81375731841339
 s    1 1.00
             0.1612778                   1

33 0
 s    6 1.00
             3047.5249  0.0018347001629433
             457.36951    0.01403730124668
             103.94869   0.068842606114048
             29.210155    0.23218442062076
              9.286663    0.46794134155879
              3.163927    0.36231203217765
 s    3 1.00
             7.8682724   -0.11933240861517
             1.8812885   -0.16085421161283
             0.5442493     1.1434564825515
 s    1 1.00
             0.1687144                   1
 p    3 1.00
             7.8682724   0.068999095584993
             1.8812885    0.31642397975315
             0.5442493    0.74430825237435
 p    1 1.00
             0.1687144                   1
 d    1 1.00
                   0.8                   1

34 0
 s    6 1.00
             3047.5249  0.0018347001629433
             457.36951    0.01403730124668
             103.94869   0.068842606114048
             29.210155    0.23218442062076
              9.286663    0.46794134155879
              3.163927    0.36231203217765
 s    3 1.00
             7.8682724   -0.11933240861517
             1.8812885   -0.16085421161283
             0.5442493     1.1434564825515
 s    1 1.00
             0.1687144                   1
 p    3 1.00
             7.8682724   0.068999095584993
             1.8812885    0.31642397975315
             0.5442493    0.74430825237435
 p    1 1.00
             0.1687144                   1
 d    1 1.00
                   0.8                   1

35 0
 s    3 1.00
             18.731137    0.03349459952309
             2.8253937    0.23472694665786
             0.6401217    0.81375731841339
 s    1 1.00
             0.1612778                   1

36 0
 s    6 1.00
             3047.5249  0.0018347001629433
             457.36951    0.01403730124668
             103.94869   0.068842606114048
             29.210155    0.23218442062076
              9.286663    0.46794134155879
              3.163927    0.36231203217765
 s    3 1.00
             7.8682724   -0.11933240861517
             1.8812885   -0.16085421161283
             0.5442493     1.1434564825515
 s    1 1.00
             0.1687144                   1
 p    3 1.00
             7.8682724   0.068999095584993
             1.8812885    0.31642397975315
             0.5442493    0.74430825237435
 p    1 1.00
             0.1687144                   1
 d    1 1.00
                   0.8                   1

37 0
 s    3 1.00
             18.731137    0.03349459952309
             2.8253937    0.23472694665786
             0.6401217    0.81375731841339
 s    1 1.00
             0.1612778                   1

38 0
 s    3 1.00
             18.731137    0.03349459952309
             2.8253937    0.23472694665786
             0.6401217    0.81375731841339
 s    1 1.00
             0.1612778                   1

39 0
 s    6 1.00
             3047.5249  0.0018347001629433
             457.36951    0.01403730124668
             103.94869   0.068842606114048
             29.210155    0.23218442062076
              9.286663    0.46794134155879
              3.163927    0.36231203217765
 s    3 1.00
             7.8682724   -0.11933240861517
             1.8812885   -0.16085421161283
             0.5442493     1.1434564825515
 s    1 1.00
             0.1687144                   1
 p    3 1.00
             7.8682724   0.068999095584993
             1.8812885    0.31642397975315
             0.5442493    0.74430825237435
 p    1 1.00
             0.1687144                   1
 d    1 1.00
                   0.8                   1

40 0
 s    6 1.00
             3047.5249  0.0018347001629433
             457.36951    0.01403730124668
             103.94869   0.068842606114048
             29.210155    0.23218442062076
              9.286663    0.46794134155879
              3.163927    0.36231203217765
 s    3 1.00
             7.8682724   -0.11933240861517
             1.8812885   -0.16085421161283
             0.5442493     1.1434564825515
 s    1 1.00
             0.1687144                   1
 p    3 1.00
             7.8682724   0.068999095584993
             1.8812885    0.31642397975315
             0.5442493    0.74430825237435
 p    1 1.00
             0.1687144                   1
 d    1 1.00
                   0.8                   1

41 0
 s    3 1.00
             18.731137    0.03349459952309
             2.8253937    0.23472694665786
             0.6401217    0.81375731841339
 s    1 1.00
             0.1612778                   1

42 0
 s    6 1.00
             5484.6717   0.001831099805527
             825.23495   0.013950098518422
             188.04696    0.06844509273075
               52.9645    0.23271427528445
              16.89757    0.47019295006289
             5.7996353    0.35852086192309
 s    3 1.00
             15.539616   -0.11077750382508
             3.5999336   -0.14802630511126
             1.0137618     1.1307670390447
 s    1 1.00
             0.2700058                   1
 p    3 1.00
             15.539616   0.070874299543311
             3.5999336    0.33975279781076
             1.0137618    0.72715859531445
 p    1 1.00
             0.2700058                   1
 d    1 1.00
                   0.8                   1

43 0
 s    3 1.00
             18.731137    0.03349459952309
             2.8253937    0.23472694665786
             0.6401217    0.81375731841339
 s    1 1.00
             0.1612778                   1

[5d]
[7f]
[9g]

[MO]
 Sym= A
 Ene=               0
 Spin= Alpha
 Occup=    1.00000
   1      0.01792627644637
   2    -0.00094017273932653
   3    0.0069729187487483
   4    0.00040868081250706
   5    -0.00012433600879302
   6    0.0011921670187858
   7    0.00081443178471821
   8    0.0012167328257362
   9    -0.0053998922898673
  10    -0.00086981470998835
  11    -0.00084663913286164
  12    0.00014031739876806
  13    -0.00021496623062941
  14    3.0490223963459e-05
  15    -0.00052465978123286
  16    -0.00097604824556995
  17      0.99489659225003
  18     0.036868585297126
  19    -0.028309168904331
  20    0.00093441014906233
  21    0.00016257765144312
  22    -0.00054657198191275
  23    -0.0034965540431815
  24    -0.0010402296623863
  25    -0.00081123577035742
  26    0.00077009854539594
  27    -0.00029724256141976
  28    -0.00034150261916076
  29    0.00029882832583581
  30    0.00020162218830778
  31    -0.0011173344315832
  32    0.0038549941922643
  33     0.012630478808418
  34    -0.00027891929070993
  35    0.00085034179295349
  36    0.00083136104108474
  37    0.00032607328864194
  38    -0.0011215735741116
  39    -0.0022833132824972
  40     0.003546513773072
  41    0.0040670110295388
  42    -0.00060314196527327
  43    0.0011743294067469
  44    0.00045170813769835
  45    -0.00033659184553538
  46    -0.00038193870398417
  47    -0.00054878929431234
  48    -0.00060114382248069
  49    6.5296659372528e-05
  50    -0.00053588403549707
  51    0.00035883781298627
  52    0.0002427095982213
  53    4.0960092818245e-05
  54    -0.00040286411771245
  55    -0.0047372777520217
  56    0.0011487904174475
  57    0.0069943435555329
  58    -0.00014699375700328
  59    -1.5610668669251e-05
  60    0.00016160492623299
  61    -0.00024205443486947
  62    -0.00017764399039555
  63    -0.0004616619144398
  64    0.00029794962556448
  65    -2.3219492778453e-06
  66    -1.8998415294656e-06
  67    -3.9196362017544e-07
  68    -2.167881144145e-06
  69    6.5156166852546e-06
  70    -5.0506900388048e-06
  71    1.5322737474092e-06
  72    2.578834227883e-06
  73    8.3450812917968e-06
  74    3.1418376082622e-05
  75    7.8728098121372e-06
  76    -4.2902814735243e-07
  77    1.9764528565883e-07
  78    -6.7366351679516e-08
  79    7.8564491503787e-07
  80    5.0369089343403e-08
  81    2.6390604788323e-06
  82    1.5203010226555e-05
  83    2.6484679524883e-06
  84    -1.0017151779704e-06
  85    -7.3258188196267e-05
  86    1.9674408551978e-05
  87    4.1576957118843e-06
  88    1.6631369990481e-05
  89    3.2649771255351e-05
  90    -6.5611193530113e-05
  91    1.5662786949995e-05
  92    1.6970789841757e-07
  93    -1.4666697287066e-06
  94    4.1312409795727e-06
  95    -5.7581659338235e-07
  96    -5.493224572725e-07
  97    1.7902862832582e-05
  98    2.5597168696472e-05
  99    4.2513577655993e-07
 100    -1.5790077715037e-05
 101    -1.4091262147189e-05
 102    8.4432146867917e-06
 103    0.0002841532227003
 104    -5.0943525163338e-05
 105    -1.0098389700523e-05
 106    -2.6981209571027e-05
 107    -0.00020214751692275
 108    0.00017444817062782
 109    0.00011479649686533
 110    -6.3059011587984e-06
 111    1.3810888480765e-06
 112    -6.5631792143848e-08
 113    2.5879986908601e-06
 114    -5.0473206828868e-06
 115    -5.2249081750444e-06
 116    -2.580427898027e-05
 117    0.00023546932119761
 118    -1.8077644917881e-06
 119    7.2021184174147e-06
 120    -1.652578027546e-05
 121    -3.9430661936753e-05
 122    -6.9290814369798e-06
 123    5.4591594807426e-06
 124    1.2422484957738e-06
 125    -3.273414917066e-06
 126    -1.8105415847749e-06
 127    1.9970526740028e-06
 128    -9.8178137168911e-07
 129    -1.6260889781153e-05
 130    -2.1601851610937e-05
 131    0.00017264972066302
 132    2.2003215808317e-05
 133    -4.3954022342209e-05
 134    -9.7041939368127e-06
 135    -0.00036750364183193
 136    2.4116970786348e-05
 137    -0.00039158566257439
 138    5.0589489665525e-06
 139    2.0192802042446e-05
 140    4.0291934746361e-06
 141    4.9848608033507e-06
 142    4.374944236028e-06
 143    6.1471444859799e-06
 144    -3.7805408651589e-05
 145    -2.8952136438011e-05
 146    -1.9923670215632e-05
 147    2.8430737760284e-05
 148    4.7747774358485e-05
 149    -1.6488747707018e-05
 150    2.2886635136324e-05
 151    -4.5571280743246e-05
 152    -5.8044475139875e-06
 153    -2.6934203827598e-06
 154    -3.4300914856796e-06
 155    3.1102627288059e-06
 156    -4.0073866053489e-06
 157    2.3422338995711e-06
 158    1.1608205109251e-05
 159    -4.7717247689892e-05
 160    1.560610826425e-05
 161    -6.4003714739746e-06
 162    1.5711921899753e-05
 163    -3.7000086588887e-05
 164    1.9554173653429e-05
 165    1.9163262402368e-05
 166    4.8706752043952e-06
 167    -1.2952321554098e-06
 168    -5.7732240323759e-07
 169    4.9135133220329e-07
 170    2.3690832630154e-06
 171    1.5493962512059e-06
 172    -1.4386805009715e-05
 173    1.2714344957107e-05
 174    -3.5024238441609e-06
 175    -1.4812982557762e-06
 176    2.9720952833017e-05
 177    4.4020230126415e-06
 178    -1.0588527494494e-06
 179    -1.2724732651169e-05
 180    1.2651266576907e-06
 181    4.6559517202614e-06
 182    1.0972784912813e-06
 183    -2.1221511361642e-06
 184    1.2399611449668e-06
 185    -5.65722344022e-06
 186    -2.5083736874162e-05
 187    0.00010330967424898
 188    -2.1442630964415e-06
 189    -7.0826040520803e-06
 190    -1.3152779084235e-05
 191    -7.394302144944e-06
 192    -1.9572958531048e-05
 193    -8.6985375923414e-05
 194    2.6683407690232e-06
 195    3.6102548799682e-06
 196    1.783040022818e-06
 197    -3.4700877500703e-07
 198    4.8653478929804e-07
 199    -8.2837924065483e-06
 200    -9.7832906654064e-08
 201    -1.4344718001554e-05
 202    1.8756957718263e-07
 203    -1.9551338534014e-05
 204    -2.5741148490456e-05
 205    8.6348097421925e-06
 206    -1.4581820274147e-05
 207    1.5419555301555e-05
 208    -7.832451308494e-05
 209    1.9914934308722e-06
 210    -2.3531150470839e-05
 211    6.6927692875864e-06
 212    1.9714777546274e-05
 213    3.6722699320763e-07
 214    -2.0147904320916e-05
 215    -1.1122503157605e-05
 216    -2.3501281682317e-05
 217    5.3056459860374e-06
 218    8.3682938157471e-06
 219    5.7909625639904e-06
 220    5.6983290804076e-06
 221    1.2095309135737e-05
 222    -5.798727666274e-05
 223    0.00090525361742439
 224    -0.00021516335965321
 225    3.6145691953163e-05
 226    7.0508098767627e-05
 227    0.00053942006493978
 228    0.0003387827992671
 229    -0.00086971573745516
 230    7.2447319637133e-06
 231    -3.6016291146527e-05
 232    -2.7533600645158e-05
 233    2.1210908326501e-05
 234    2.2376574491909e-05
 235    -0.00020964400881624
 236    0.00028719738729768
 237    8.3394018950806e-05
 238    -0.00012640919335965
 239    0.00017874607176955
 240    -0.00047409616565381
 241    0.00025763015553508
 242    0.0004333064880542
 243    -0.001658436472788
 244    2.3619078351294e-05
 245    6.897747669317e-05
 246    1.0770138905051e-05
 247    2.186857388426e-05
 248    -3.088015151017e-06
 249    6.2269598170477e-05
 250    0.00033881837351058
 251    0.00015353623852129
 252    -0.00030682181937481
 253    0.0019855295303946
 254    0.00065589618487724
 255    6.9220583057191e-05
 256    0.0006866631010651
 257    0.00012075367491405
 258    0.00041951864078351
 259    -0.0015679646404231
 260    -2.9598950270597e-05
 261    -9.7283538410588e-06
 262    -1.6710630290589e-05
 263    0.00011745375351274
 264    7.2155415526775e-05
 265    -6.4148001945344e-05
 266    0.00011539598520695
 267    -0.00051220460461903
 268    -0.00084759197018847
 269    -0.00012690714534804
 270    -0.00057800410523408
 271    0.0064011926075342
 272    -0.00012412137739478
 273    0.00027438404919145
 274    0.00020896702820167
 275     -0.00154855627171
 276    -0.0026387465671296
 277    0.0026474246356889
 278    7.4912501706079e-05
 279    -0.00017056526620907
 280    -9.3692066438861e-05
 281    -3.401269368786e-05