[Molden Format]
made by pyscf v[2.0.1]
[Atoms] (AU)
C   1   6     0.69100024066471     0.64692934207205    -3.48223131169301
H   2   1     2.68052439830868     1.13355088658700    -3.25784032593313
C   3   6    -0.36286361513219     0.85440132524594    -5.97030179418974
H   4   1    -2.35448549047279     0.36322488579172    -6.17995817793143
C   5   6     0.93697958957450     1.61209284601821    -8.05828437677121
H   6   1     2.68174994182533     2.67994959464420    -7.82079505522331
C   7   6     0.13444904340515     1.08121190669811   -10.59410649762000
H   8   1    -1.61655526267424     0.00863003830430   -10.80213119601662
H   9   1     1.55630230933075    -1.92953025305990    12.99630010416247
C   10   6     0.75233899775814    -2.21270439606481    11.10705728102219
H   11   1    -0.43433408177274    -3.90944857546550    11.22216085340412
C   12   6     2.86362581178706    -2.63237380607947     9.17926416456045
H   13   1     4.39038949912609    -1.24955421540245     9.49899813497433
H   14   1     3.74629220191363    -4.48798724300892     9.47414880959024
C   15   6     2.02478325613682    -2.42177285709634     6.44560829588644
C   16   6     3.88048732735477    -3.58795445234514     4.61402886975252
C   17   6    -0.18412382258602    -1.30464291234259     5.76021113872346
C   18   6    -2.10044360464350    -0.26837831858460     7.71610340967100
C   19   6    -3.08956938670431     2.35282328359417     6.88693925039594
C   20   6    -4.37372924086464    -2.09766595989678     7.93610724222001
C   21   6    -0.83850430601230     0.06372213486173    10.33002307638377
H   22   1     0.38411922151109     1.74281358582432    10.27380136542181
H   23   1    -2.30980003007874     0.45460143924521    11.73986301809809
H   24   1     4.58527064644668    -5.38706904487420     5.36778158031719
H   25   1     5.54944938085014    -2.37631462192748     4.35398898413318
H   26   1     3.06633019150423    -3.94118377050688     2.75255466040884
H   27   1    -4.17727778763735     2.26573369139522     5.12914900961283
H   28   1    -1.52662344944051     3.68001877445626     6.59540397144508
H   29   1    -4.32916174397830     3.13643051467482     8.35225460090378
H   30   1    -5.32329548508442    -2.36691813602939     6.11583672749896
H   31   1    -5.77989366602257    -1.33896741843465     9.25748940450990
H   32   1    -3.79310905208926    -3.96389819310853     8.61386170102686
C   33   6    -1.01100794811226    -1.06331657314144     3.11929490449947
C   34   6     0.37686231036534    -0.33275864505552     1.09165013605873
H   35   1    -3.01671213906703    -1.40297922279997     2.77827895090944
C   36   6    -0.64382707979370    -0.11591880174385    -1.42063131251064
H   37   1     2.35569259782137     0.17174499283897     1.33641070251401
H   38   1    -2.63317482980319    -0.60229203511219    -1.66119700387645
C   39   6     1.36441264344082     1.79875350819652   -12.72695837882209
C   40   6     0.39042169983249     1.16479015456541   -15.22824898409742
H   41   1     3.11744943935123     2.87075295695162   -12.65315109008398
O   42   8     1.39604269582139     1.74939992973347   -17.22017818748739
H   43   1    -1.40767336523230     0.06622817248511   -15.21429812709214
[GTO]
1 0
 s    6 1.00
             3047.5249  0.0018347001629433
             457.36951    0.01403730124668
             103.94869   0.068842606114048
             29.210155    0.23218442062076
              9.286663    0.46794134155879
              3.163927    0.36231203217765
 s    3 1.00
             7.8682724   -0.11933240861517
             1.8812885   -0.16085421161283
             0.5442493     1.1434564825515
 s    1 1.00
             0.1687144                   1
 p    3 1.00
             7.8682724   0.068999095584993
             1.8812885    0.31642397975315
             0.5442493    0.74430825237435
 p    1 1.00
             0.1687144                   1
 d    1 1.00
                   0.8                   1

2 0
 s    3 1.00
             18.731137    0.03349459952309
             2.8253937    0.23472694665786
             0.6401217    0.81375731841339
 s    1 1.00
             0.1612778                   1

3 0
 s    6 1.00
             3047.5249  0.0018347001629433
             457.36951    0.01403730124668
             103.94869   0.068842606114048
             29.210155    0.23218442062076
              9.286663    0.46794134155879
              3.163927    0.36231203217765
 s    3 1.00
             7.8682724   -0.11933240861517
             1.8812885   -0.16085421161283
             0.5442493     1.1434564825515
 s    1 1.00
             0.1687144                   1
 p    3 1.00
             7.8682724   0.068999095584993
             1.8812885    0.31642397975315
             0.5442493    0.74430825237435
 p    1 1.00
             0.1687144                   1
 d    1 1.00
                   0.8                   1

4 0
 s    3 1.00
             18.731137    0.03349459952309
             2.8253937    0.23472694665786
             0.6401217    0.81375731841339
 s    1 1.00
             0.1612778                   1

5 0
 s    6 1.00
             3047.5249  0.0018347001629433
             457.36951    0.01403730124668
             103.94869   0.068842606114048
             29.210155    0.23218442062076
              9.286663    0.46794134155879
              3.163927    0.36231203217765
 s    3 1.00
             7.8682724   -0.11933240861517
             1.8812885   -0.16085421161283
             0.5442493     1.1434564825515
 s    1 1.00
             0.1687144                   1
 p    3 1.00
             7.8682724   0.068999095584993
             1.8812885    0.31642397975315
             0.5442493    0.74430825237435
 p    1 1.00
             0.1687144                   1
 d    1 1.00
                   0.8                   1

6 0
 s    3 1.00
             18.731137    0.03349459952309
             2.8253937    0.23472694665786
             0.6401217    0.81375731841339
 s    1 1.00
             0.1612778                   1

7 0
 s    6 1.00
             3047.5249  0.0018347001629433
             457.36951    0.01403730124668
             103.94869   0.068842606114048
             29.210155    0.23218442062076
              9.286663    0.46794134155879
              3.163927    0.36231203217765
 s    3 1.00
             7.8682724   -0.11933240861517
             1.8812885   -0.16085421161283
             0.5442493     1.1434564825515
 s    1 1.00
             0.1687144                   1
 p    3 1.00
             7.8682724   0.068999095584993
             1.8812885    0.31642397975315
             0.5442493    0.74430825237435
 p    1 1.00
             0.1687144                   1
 d    1 1.00
                   0.8                   1

8 0
 s    3 1.00
             18.731137    0.03349459952309
             2.8253937    0.23472694665786
             0.6401217    0.81375731841339
 s    1 1.00
             0.1612778                   1

9 0
 s    3 1.00
             18.731137    0.03349459952309
             2.8253937    0.23472694665786
             0.6401217    0.81375731841339
 s    1 1.00
             0.1612778                   1

10 0
 s    6 1.00
             3047.5249  0.0018347001629433
             457.36951    0.01403730124668
             103.94869   0.068842606114048
             29.210155    0.23218442062076
              9.286663    0.46794134155879
              3.163927    0.36231203217765
 s    3 1.00
             7.8682724   -0.11933240861517
             1.8812885   -0.16085421161283
             0.5442493     1.1434564825515
 s    1 1.00
             0.1687144                   1
 p    3 1.00
             7.8682724   0.068999095584993
             1.8812885    0.31642397975315
             0.5442493    0.74430825237435
 p    1 1.00
             0.1687144                   1
 d    1 1.00
                   0.8                   1

11 0
 s    3 1.00
             18.731137    0.03349459952309
             2.8253937    0.23472694665786
             0.6401217    0.81375731841339
 s    1 1.00
             0.1612778                   1

12 0
 s    6 1.00
             3047.5249  0.0018347001629433
             457.36951    0.01403730124668
             103.94869   0.068842606114048
             29.210155    0.23218442062076
              9.286663    0.46794134155879
              3.163927    0.36231203217765
 s    3 1.00
             7.8682724   -0.11933240861517
             1.8812885   -0.16085421161283
             0.5442493     1.1434564825515
 s    1 1.00
             0.1687144                   1
 p    3 1.00
             7.8682724   0.068999095584993
             1.8812885    0.31642397975315
             0.5442493    0.74430825237435
 p    1 1.00
             0.1687144                   1
 d    1 1.00
                   0.8                   1

13 0
 s    3 1.00
             18.731137    0.03349459952309
             2.8253937    0.23472694665786
             0.6401217    0.81375731841339
 s    1 1.00
             0.1612778                   1

14 0
 s    3 1.00
             18.731137    0.03349459952309
             2.8253937    0.23472694665786
             0.6401217    0.81375731841339
 s    1 1.00
             0.1612778                   1

15 0
 s    6 1.00
             3047.5249  0.0018347001629433
             457.36951    0.01403730124668
             103.94869   0.068842606114048
             29.210155    0.23218442062076
              9.286663    0.46794134155879
              3.163927    0.36231203217765
 s    3 1.00
             7.8682724   -0.11933240861517
             1.8812885   -0.16085421161283
             0.5442493     1.1434564825515
 s    1 1.00
             0.1687144                   1
 p    3 1.00
             7.8682724   0.068999095584993
             1.8812885    0.31642397975315
             0.5442493    0.74430825237435
 p    1 1.00
             0.1687144                   1
 d    1 1.00
                   0.8                   1

16 0
 s    6 1.00
             3047.5249  0.0018347001629433
             457.36951    0.01403730124668
             103.94869   0.068842606114048
             29.210155    0.23218442062076
              9.286663    0.46794134155879
              3.163927    0.36231203217765
 s    3 1.00
             7.8682724   -0.11933240861517
             1.8812885   -0.16085421161283
             0.5442493     1.1434564825515
 s    1 1.00
             0.1687144                   1
 p    3 1.00
             7.8682724   0.068999095584993
             1.8812885    0.31642397975315
             0.5442493    0.74430825237435
 p    1 1.00
             0.1687144                   1
 d    1 1.00
                   0.8                   1

17 0
 s    6 1.00
             3047.5249  0.0018347001629433
             457.36951    0.01403730124668
             103.94869   0.068842606114048
             29.210155    0.23218442062076
              9.286663    0.46794134155879
              3.163927    0.36231203217765
 s    3 1.00
             7.8682724   -0.11933240861517
             1.8812885   -0.16085421161283
             0.5442493     1.1434564825515
 s    1 1.00
             0.1687144                   1
 p    3 1.00
             7.8682724   0.068999095584993
             1.8812885    0.31642397975315
             0.5442493    0.74430825237435
 p    1 1.00
             0.1687144                   1
 d    1 1.00
                   0.8                   1

18 0
 s    6 1.00
             3047.5249  0.0018347001629433
             457.36951    0.01403730124668
             103.94869   0.068842606114048
             29.210155    0.23218442062076
              9.286663    0.46794134155879
              3.163927    0.36231203217765
 s    3 1.00
             7.8682724   -0.11933240861517
             1.8812885   -0.16085421161283
             0.5442493     1.1434564825515
 s    1 1.00
             0.1687144                   1
 p    3 1.00
             7.8682724   0.068999095584993
             1.8812885    0.31642397975315
             0.5442493    0.74430825237435
 p    1 1.00
             0.1687144                   1
 d    1 1.00
                   0.8                   1

19 0
 s    6 1.00
             3047.5249  0.0018347001629433
             457.36951    0.01403730124668
             103.94869   0.068842606114048
             29.210155    0.23218442062076
              9.286663    0.46794134155879
              3.163927    0.36231203217765
 s    3 1.00
             7.8682724   -0.11933240861517
             1.8812885   -0.16085421161283
             0.5442493     1.1434564825515
 s    1 1.00
             0.1687144                   1
 p    3 1.00
             7.8682724   0.068999095584993
             1.8812885    0.31642397975315
             0.5442493    0.74430825237435
 p    1 1.00
             0.1687144                   1
 d    1 1.00
                   0.8                   1

20 0
 s    6 1.00
             3047.5249  0.0018347001629433
             457.36951    0.01403730124668
             103.94869   0.068842606114048
             29.210155    0.23218442062076
              9.286663    0.46794134155879
              3.163927    0.36231203217765
 s    3 1.00
             7.8682724   -0.11933240861517
             1.8812885   -0.16085421161283
             0.5442493     1.1434564825515
 s    1 1.00
             0.1687144                   1
 p    3 1.00
             7.8682724   0.068999095584993
             1.8812885    0.31642397975315
             0.5442493    0.74430825237435
 p    1 1.00
             0.1687144                   1
 d    1 1.00
                   0.8                   1

21 0
 s    6 1.00
             3047.5249  0.0018347001629433
             457.36951    0.01403730124668
             103.94869   0.068842606114048
             29.210155    0.23218442062076
              9.286663    0.46794134155879
              3.163927    0.36231203217765
 s    3 1.00
             7.8682724   -0.11933240861517
             1.8812885   -0.16085421161283
             0.5442493     1.1434564825515
 s    1 1.00
             0.1687144                   1
 p    3 1.00
             7.8682724   0.068999095584993
             1.8812885    0.31642397975315
             0.5442493    0.74430825237435
 p    1 1.00
             0.1687144                   1
 d    1 1.00
                   0.8                   1

22 0
 s    3 1.00
             18.731137    0.03349459952309
             2.8253937    0.23472694665786
             0.6401217    0.81375731841339
 s    1 1.00
             0.1612778                   1

23 0
 s    3 1.00
             18.731137    0.03349459952309
             2.8253937    0.23472694665786
             0.6401217    0.81375731841339
 s    1 1.00
             0.1612778                   1

24 0
 s    3 1.00
             18.731137    0.03349459952309
             2.8253937    0.23472694665786
             0.6401217    0.81375731841339
 s    1 1.00
             0.1612778                   1

25 0
 s    3 1.00
             18.731137    0.03349459952309
             2.8253937    0.23472694665786
             0.6401217    0.81375731841339
 s    1 1.00
             0.1612778                   1

26 0
 s    3 1.00
             18.731137    0.03349459952309
             2.8253937    0.23472694665786
             0.6401217    0.81375731841339
 s    1 1.00
             0.1612778                   1

27 0
 s    3 1.00
             18.731137    0.03349459952309
             2.8253937    0.23472694665786
             0.6401217    0.81375731841339
 s    1 1.00
             0.1612778                   1

28 0
 s    3 1.00
             18.731137    0.03349459952309
             2.8253937    0.23472694665786
             0.6401217    0.81375731841339
 s    1 1.00
             0.1612778                   1

29 0
 s    3 1.00
             18.731137    0.03349459952309
             2.8253937    0.23472694665786
             0.6401217    0.81375731841339
 s    1 1.00
             0.1612778                   1

30 0
 s    3 1.00
             18.731137    0.03349459952309
             2.8253937    0.23472694665786
             0.6401217    0.81375731841339
 s    1 1.00
             0.1612778                   1

31 0
 s    3 1.00
             18.731137    0.03349459952309
             2.8253937    0.23472694665786
             0.6401217    0.81375731841339
 s    1 1.00
             0.1612778                   1

32 0
 s    3 1.00
             18.731137    0.03349459952309
             2.8253937    0.23472694665786
             0.6401217    0.81375731841339
 s    1 1.00
             0.1612778                   1

33 0
 s    6 1.00
             3047.5249  0.0018347001629433
             457.36951    0.01403730124668
             103.94869   0.068842606114048
             29.210155    0.23218442062076
              9.286663    0.46794134155879
              3.163927    0.36231203217765
 s    3 1.00
             7.8682724   -0.11933240861517
             1.8812885   -0.16085421161283
             0.5442493     1.1434564825515
 s    1 1.00
             0.1687144                   1
 p    3 1.00
             7.8682724   0.068999095584993
             1.8812885    0.31642397975315
             0.5442493    0.74430825237435
 p    1 1.00
             0.1687144                   1
 d    1 1.00
                   0.8                   1

34 0
 s    6 1.00
             3047.5249  0.0018347001629433
             457.36951    0.01403730124668
             103.94869   0.068842606114048
             29.210155    0.23218442062076
              9.286663    0.46794134155879
              3.163927    0.36231203217765
 s    3 1.00
             7.8682724   -0.11933240861517
             1.8812885   -0.16085421161283
             0.5442493     1.1434564825515
 s    1 1.00
             0.1687144                   1
 p    3 1.00
             7.8682724   0.068999095584993
             1.8812885    0.31642397975315
             0.5442493    0.74430825237435
 p    1 1.00
             0.1687144                   1
 d    1 1.00
                   0.8                   1

35 0
 s    3 1.00
             18.731137    0.03349459952309
             2.8253937    0.23472694665786
             0.6401217    0.81375731841339
 s    1 1.00
             0.1612778                   1

36 0
 s    6 1.00
             3047.5249  0.0018347001629433
             457.36951    0.01403730124668
             103.94869   0.068842606114048
             29.210155    0.23218442062076
              9.286663    0.46794134155879
              3.163927    0.36231203217765
 s    3 1.00
             7.8682724   -0.11933240861517
             1.8812885   -0.16085421161283
             0.5442493     1.1434564825515
 s    1 1.00
             0.1687144                   1
 p    3 1.00
             7.8682724   0.068999095584993
             1.8812885    0.31642397975315
             0.5442493    0.74430825237435
 p    1 1.00
             0.1687144                   1
 d    1 1.00
                   0.8                   1

37 0
 s    3 1.00
             18.731137    0.03349459952309
             2.8253937    0.23472694665786
             0.6401217    0.81375731841339
 s    1 1.00
             0.1612778                   1

38 0
 s    3 1.00
             18.731137    0.03349459952309
             2.8253937    0.23472694665786
             0.6401217    0.81375731841339
 s    1 1.00
             0.1612778                   1

39 0
 s    6 1.00
             3047.5249  0.0018347001629433
             457.36951    0.01403730124668
             103.94869   0.068842606114048
             29.210155    0.23218442062076
              9.286663    0.46794134155879
              3.163927    0.36231203217765
 s    3 1.00
             7.8682724   -0.11933240861517
             1.8812885   -0.16085421161283
             0.5442493     1.1434564825515
 s    1 1.00
             0.1687144                   1
 p    3 1.00
             7.8682724   0.068999095584993
             1.8812885    0.31642397975315
             0.5442493    0.74430825237435
 p    1 1.00
             0.1687144                   1
 d    1 1.00
                   0.8                   1

40 0
 s    6 1.00
             3047.5249  0.0018347001629433
             457.36951    0.01403730124668
             103.94869   0.068842606114048
             29.210155    0.23218442062076
              9.286663    0.46794134155879
              3.163927    0.36231203217765
 s    3 1.00
             7.8682724   -0.11933240861517
             1.8812885   -0.16085421161283
             0.5442493     1.1434564825515
 s    1 1.00
             0.1687144                   1
 p    3 1.00
             7.8682724   0.068999095584993
             1.8812885    0.31642397975315
             0.5442493    0.74430825237435
 p    1 1.00
             0.1687144                   1
 d    1 1.00
                   0.8                   1

41 0
 s    3 1.00
             18.731137    0.03349459952309
             2.8253937    0.23472694665786
             0.6401217    0.81375731841339
 s    1 1.00
             0.1612778                   1

42 0
 s    6 1.00
             5484.6717   0.001831099805527
             825.23495   0.013950098518422
             188.04696    0.06844509273075
               52.9645    0.23271427528445
              16.89757    0.47019295006289
             5.7996353    0.35852086192309
 s    3 1.00
             15.539616   -0.11077750382508
             3.5999336   -0.14802630511126
             1.0137618     1.1307670390447
 s    1 1.00
             0.2700058                   1
 p    3 1.00
             15.539616   0.070874299543311
             3.5999336    0.33975279781076
             1.0137618    0.72715859531445
 p    1 1.00
             0.2700058                   1
 d    1 1.00
                   0.8                   1

43 0
 s    3 1.00
             18.731137    0.03349459952309
             2.8253937    0.23472694665786
             0.6401217    0.81375731841339
 s    1 1.00
             0.1612778                   1

[5d]
[7f]
[9g]

[MO]
 Sym= A
 Ene=               0
 Spin= Alpha
 Occup=    1.00000
   1    0.0022137785139376
   2    1.6872447813533e-05
   3    0.00029318017779369
   4    5.1372232045753e-06
   5    -3.6948940755082e-05
   6    1.0501572695663e-05
   7    -2.6030737303544e-05
   8    0.00029671345521448
   9    -0.00095871697240401
  10    1.3009364707212e-05
  11    3.3794330140754e-05
  12    4.0592580537862e-06
  13    1.3692667364214e-05
  14    1.5321139073924e-06
  15    -4.3442773309649e-05
  16    0.00014015104515006
  17    0.0065794621165046
  18    -9.9897684031586e-05
  19    0.00066903993404689
  20    2.0913214979107e-05
  21    5.390853431095e-06
  22    0.00019958964270106
  23    -0.00025414142089306
  24    0.00015148405883164
  25    -0.0011772738837075
  26    -5.5280926226383e-05
  27    -3.9839635411791e-06
  28    1.9178174586408e-05
  29    7.170615030648e-05
  30    0.00012237690842555
  31    -0.00011836122856946
  32    -0.00034484350182574
  33     0.014531177008618
  34    -0.00098504262409031
  35    0.0069086534203604
  36    0.00034047318548319
  37    0.00021979985341775
  38     0.001121414138203
  39    0.0004197066291731
  40    0.00013594044039531
  41    -0.0040009402910833
  42    -0.0010017803613483
  43    -0.00071677176261153
  44    -0.00047448821736106
  45    -9.6313438240849e-05
  46    -0.00019380462308226
  47    -0.00042609225405926
  48    -0.00067473432170965
  49      0.99495975163226
  50      0.03606428583411
  51    -0.027362562389968
  52    0.00061632727919566
  53    0.00034387568982819
  54    -0.00015863104846137
  55    -0.0027673364957444
  56    -0.0016867947235403
  57    -0.0005363366551929
  58    0.00088034560150162
  59    -0.00032710420093743
  60    -0.00017188228327925
  61    0.00014748554067401
  62    0.00027472886572624
  63    -0.0011617756739016
  64    0.0037090652399045
  65    -2.7686959145923e-07
  66    -1.670173680594e-06
  67    -4.7934336347449e-07
  68    8.8439097916564e-07
  69    2.4524140868394e-06
  70    1.6942195487967e-06
  71    -1.1614864378307e-06
  72    -1.2900408890673e-06
  73    4.035760270385e-06
  74    2.0514866088102e-06
  75    3.1211726877696e-06
  76    4.8902624165086e-08
  77    -1.6074965092602e-07
  78    3.858960004489e-08
  79    6.0210344932587e-08
  80    -1.6606786641233e-07
  81    1.6567947332419e-07
  82    -2.7160821897908e-07
  83    -8.7882519857987e-07
  84    4.6885320373871e-07
  85    -1.3071237460101e-05
  86    -3.1123594875111e-06
  87    -8.8469155802636e-07
  88    -2.6709151897802e-06
  89    1.1617499226635e-06
  90    -7.4209720582373e-06
  91    -1.6886997195597e-07
  92    7.6670872332673e-07
  93    -8.5793798976479e-07
  94    1.7805045373731e-08
  95    -1.4625086124993e-07
  96    -6.4338003369916e-07
  97    -3.1361395406929e-06
  98    -4.8781108451793e-06
  99    5.6289394093254e-07
 100    -9.3740277005954e-07
 101    1.6482370834373e-06
 102    -2.3410551742776e-06
 103    -1.2535045676004e-05
 104    1.3135174534164e-05
 105    9.1956221637665e-06
 106    2.1396128554417e-06
 107    -2.0376419003627e-05
 108    3.394765004996e-05
 109    5.4343202032345e-05
 110    -1.1245230889948e-06
 111    -8.4209356195861e-08
 112    -3.9460089327295e-08
 113    -6.4638116922806e-07
 114    -8.153622984568e-07
 115    3.7576815140522e-07
 116    -1.1299703374281e-05
 117    5.2716158854755e-05
 118    1.0642830309001e-06
 119    -5.3565880173847e-06
 120    5.9576618609351e-06
 121    -1.7325954150631e-05
 122    1.5344471834845e-05
 123    6.6295968763597e-06
 124    -9.7281812570949e-08
 125    -4.9559551246245e-07
 126    3.5028298453839e-07
 127    1.5138602081862e-07
 128    -1.1314934411061e-06
 129    -4.7549197375111e-06
 130    -5.8788252674419e-06
 131    8.4456448876087e-05
 132    -1.7446367850976e-06
 133    1.2116272670151e-05
 134    -1.7224213885761e-05
 135    -1.353052449961e-05
 136     1.77818711012e-07
 137    -0.00013354140191386
 138     3.48721746401e-06
 139    3.2735022043988e-06
 140    3.4671475242237e-07
 141    1.3255608846729e-06
 142    9.0423221646826e-07
 143    2.1359277538779e-07
 144    -1.1650652573466e-05
 145    4.2440369944762e-05
 146    -2.2515761569019e-06
 147    1.2633347941439e-06
 148    7.1089379001613e-06
 149    1.5248910536374e-05
 150    -8.1056425705698e-06
 151    -2.1406144753335e-05
 152    -7.2324700751252e-07
 153    -1.267194923516e-06
 154    -1.79538271835e-07
 155    1.1966515149913e-06
 156    -7.5705574481587e-07
 157    5.7853543103075e-07
 158    7.6994803563115e-07
 159    -8.809225100293e-06
 160    -6.565501986651e-07
 161    3.0179499613507e-06
 162    -2.7381865985285e-06
 163    -1.0767093978295e-05
 164    5.8816576608875e-06
 165    3.4319887060617e-06
 166    1.1312465454521e-06
 167    -4.6126484411804e-07
 168    -2.9613373592592e-07
 169    2.515488872392e-07
 170    4.4707319415927e-07
 171    -4.7320410647285e-07
 172    3.5606677965005e-07
 173    -4.1286816651919e-06
 174    5.2100391634841e-07
 175    -9.1913679299119e-08
 176    1.640072713405e-06
 177    4.8926978316958e-06
 178    1.6686895237154e-06
 179    1.1824059879775e-06
 180    1.0922620872193e-07
 181    7.569754050741e-07
 182    4.6686734428996e-07
 183    -6.7090174556059e-07
 184    3.5010554502196e-07
 185    -1.2098875389564e-06
 186    -3.6061984041365e-06
 187    1.5319643322534e-05
 188    -1.7794875924684e-06
 189    -4.1035731923899e-07
 190    -1.4909836577989e-06
 191    -1.2061155742582e-06
 192    -2.1555320820783e-06
 193    -1.3034893446019e-05
 194    2.7153505576115e-07
 195    2.2087196881118e-07
 196    3.7657551556245e-07
 197    3.8561043952693e-07
 198    -1.4817395837601e-07
 199    -1.1848137229715e-06
 200    -8.7703971198651e-07
 201    -6.7399819661415e-07
 202    3.0911260829975e-06
 203    2.7329481507356e-06
 204    1.151108774359e-05
 205    -5.9537207760583e-06
 206    -1.0406063790736e-05
 207    -1.8915166753281e-06
 208    -4.9698263043556e-06
 209    3.1119546455872e-06
 210    -2.0079865560387e-06
 211    1.7731443154604e-06
 212    4.0272541453554e-06
 213    -8.1266678688269e-07
 214    -4.4574114842416e-06
 215    -1.0259401627254e-06
 216    7.9407329458131e-06
 217    -5.1448219594098e-07
 218    4.2821283966907e-07
 219    9.272484755128e-07
 220    -3.2075356322916e-07
 221    7.0938851763304e-06
 222    -2.4686371779755e-05
 223    1.8424797899267e-05
 224    1.9997685739896e-06
 225    -2.185119942863e-05
 226    3.7413733684357e-05
 227    2.0020738479007e-05
 228    2.7630117938244e-05
 229    -0.00014607758075196
 230    9.2178483800332e-07
 231    -6.4215662773831e-06
 232    -1.214480558877e-06
 233    4.2695018932474e-06
 234    2.9887804670266e-06
 235    -1.6176559671971e-05
 236    4.474716364498e-06
 237    4.319441822345e-05
 238    1.6742155592668e-05
 239    -6.8272211900254e-06
 240    -4.8431655571762e-05
 241    -1.8763584602154e-05
 242    2.7281789261351e-05
 243    -0.00017200566969387
 244    3.6044453135029e-06
 245    1.7337104560059e-05
 246    -1.2141148429121e-06
 247    8.3951813420635e-06
 248    -2.8553732912548e-07
 249    -8.6969639066626e-06
 250    4.4136653481874e-06
 251    -3.2660712627219e-06
 252    5.507629703721e-05
 253    0.00051921887379082
 254    -4.98265516829e-05
 255    -2.4396080732034e-05
 256    4.6902652098576e-05
 257    0.00029253969289661
 258    8.6709181161571e-05
 259    -0.00038673108673539
 260    -1.7544833003708e-06
 261    -2.0020241591292e-05
 262    -4.0151547081751e-06
 263    1.9698244400398e-05
 264    7.7704684296049e-06
 265    1.3600018287749e-05
 266    4.3090050790011e-05
 267    4.8654924147425e-05
 268    0.00020062970132616
 269    -0.00093795558750713
 270    -0.0031056099211523
 271    0.0074357066890319
 272    2.3123096751568e-06
 273    -5.7153199066273e-06
 274    -0.0012022071708597
 275    -0.00065186593134629
 276    -0.0003276261103418
 277    0.0036116265296975
 278    -0.00059161588216379
 279    0.00093993550934207
 280    0.00055124615606456