[Molden Format]
made by pyscf v[2.0.1]
[Atoms] (AU)
C   1   6     0.69100024066471     0.64692934207205    -3.48223131169301
H   2   1     2.68052439830868     1.13355088658700    -3.25784032593313
C   3   6    -0.36286361513219     0.85440132524594    -5.97030179418974
H   4   1    -2.35448549047279     0.36322488579172    -6.17995817793143
C   5   6     0.93697958957450     1.61209284601821    -8.05828437677121
H   6   1     0.50725181311820     3.44287068169954    -8.89764684313250
C   7   6     2.86970100877903     0.12057508237944    -9.23991306333710
H   8   1     3.28022106466413    -1.70875314533660    -8.37692190559989
H   9   1     1.55630230933075    -1.92953025305990    12.99630010416247
C   10   6     0.75233899775814    -2.21270439606481    11.10705728102219
H   11   1    -0.43433408177274    -3.90944857546550    11.22216085340412
C   12   6     2.86362581178706    -2.63237380607947     9.17926416456045
H   13   1     4.39038949912609    -1.24955421540245     9.49899813497433
H   14   1     3.74629220191363    -4.48798724300892     9.47414880959024
C   15   6     2.02478325613682    -2.42177285709634     6.44560829588644
C   16   6     3.88048732735477    -3.58795445234514     4.61402886975252
C   17   6    -0.18412382258602    -1.30464291234259     5.76021113872346
C   18   6    -2.10044360464350    -0.26837831858460     7.71610340967100
C   19   6    -3.08956938670431     2.35282328359417     6.88693925039594
C   20   6    -4.37372924086464    -2.09766595989678     7.93610724222001
C   21   6    -0.83850430601230     0.06372213486173    10.33002307638377
H   22   1     0.38411922151109     1.74281358582432    10.27380136542181
H   23   1    -2.30980003007874     0.45460143924521    11.73986301809809
H   24   1     4.58527064644668    -5.38706904487420     5.36778158031719
H   25   1     5.54944938085014    -2.37631462192748     4.35398898413318
H   26   1     3.06633019150423    -3.94118377050688     2.75255466040884
H   27   1    -4.17727778763735     2.26573369139522     5.12914900961283
H   28   1    -1.52662344944051     3.68001877445626     6.59540397144508
H   29   1    -4.32916174397830     3.13643051467482     8.35225460090378
H   30   1    -5.32329548508442    -2.36691813602939     6.11583672749896
H   31   1    -5.77989366602257    -1.33896741843465     9.25748940450990
H   32   1    -3.79310905208926    -3.96389819310853     8.61386170102686
C   33   6    -1.01100794811226    -1.06331657314144     3.11929490449947
C   34   6     0.37686231036534    -0.33275864505552     1.09165013605873
H   35   1    -3.01671213906703    -1.40297922279997     2.77827895090944
C   36   6    -0.64382707979370    -0.11591880174385    -1.42063131251064
H   37   1     2.35569259782137     0.17174499283897     1.33641070251401
H   38   1    -2.63317482980319    -0.60229203511219    -1.66119700387645
C   39   6     4.20991814769739     0.79575668965015   -11.31949989075694
C   40   6     6.14288813089389    -0.86010693489370   -12.38193355267250
H   41   1     3.89481568247576     2.59125541029260   -12.27063769452772
O   42   8     7.41472391465697    -0.37430332261595   -14.24398959848541
H   43   1     6.40229959564941    -2.67780216203268   -11.34807250251721
[GTO]
1 0
 s    6 1.00
             3047.5249  0.0018347001629433
             457.36951    0.01403730124668
             103.94869   0.068842606114048
             29.210155    0.23218442062076
              9.286663    0.46794134155879
              3.163927    0.36231203217765
 s    3 1.00
             7.8682724   -0.11933240861517
             1.8812885   -0.16085421161283
             0.5442493     1.1434564825515
 s    1 1.00
             0.1687144                   1
 p    3 1.00
             7.8682724   0.068999095584993
             1.8812885    0.31642397975315
             0.5442493    0.74430825237435
 p    1 1.00
             0.1687144                   1
 d    1 1.00
                   0.8                   1

2 0
 s    3 1.00
             18.731137    0.03349459952309
             2.8253937    0.23472694665786
             0.6401217    0.81375731841339
 s    1 1.00
             0.1612778                   1

3 0
 s    6 1.00
             3047.5249  0.0018347001629433
             457.36951    0.01403730124668
             103.94869   0.068842606114048
             29.210155    0.23218442062076
              9.286663    0.46794134155879
              3.163927    0.36231203217765
 s    3 1.00
             7.8682724   -0.11933240861517
             1.8812885   -0.16085421161283
             0.5442493     1.1434564825515
 s    1 1.00
             0.1687144                   1
 p    3 1.00
             7.8682724   0.068999095584993
             1.8812885    0.31642397975315
             0.5442493    0.74430825237435
 p    1 1.00
             0.1687144                   1
 d    1 1.00
                   0.8                   1

4 0
 s    3 1.00
             18.731137    0.03349459952309
             2.8253937    0.23472694665786
             0.6401217    0.81375731841339
 s    1 1.00
             0.1612778                   1

5 0
 s    6 1.00
             3047.5249  0.0018347001629433
             457.36951    0.01403730124668
             103.94869   0.068842606114048
             29.210155    0.23218442062076
              9.286663    0.46794134155879
              3.163927    0.36231203217765
 s    3 1.00
             7.8682724   -0.11933240861517
             1.8812885   -0.16085421161283
             0.5442493     1.1434564825515
 s    1 1.00
             0.1687144                   1
 p    3 1.00
             7.8682724   0.068999095584993
             1.8812885    0.31642397975315
             0.5442493    0.74430825237435
 p    1 1.00
             0.1687144                   1
 d    1 1.00
                   0.8                   1

6 0
 s    3 1.00
             18.731137    0.03349459952309
             2.8253937    0.23472694665786
             0.6401217    0.81375731841339
 s    1 1.00
             0.1612778                   1

7 0
 s    6 1.00
             3047.5249  0.0018347001629433
             457.36951    0.01403730124668
             103.94869   0.068842606114048
             29.210155    0.23218442062076
              9.286663    0.46794134155879
              3.163927    0.36231203217765
 s    3 1.00
             7.8682724   -0.11933240861517
             1.8812885   -0.16085421161283
             0.5442493     1.1434564825515
 s    1 1.00
             0.1687144                   1
 p    3 1.00
             7.8682724   0.068999095584993
             1.8812885    0.31642397975315
             0.5442493    0.74430825237435
 p    1 1.00
             0.1687144                   1
 d    1 1.00
                   0.8                   1

8 0
 s    3 1.00
             18.731137    0.03349459952309
             2.8253937    0.23472694665786
             0.6401217    0.81375731841339
 s    1 1.00
             0.1612778                   1

9 0
 s    3 1.00
             18.731137    0.03349459952309
             2.8253937    0.23472694665786
             0.6401217    0.81375731841339
 s    1 1.00
             0.1612778                   1

10 0
 s    6 1.00
             3047.5249  0.0018347001629433
             457.36951    0.01403730124668
             103.94869   0.068842606114048
             29.210155    0.23218442062076
              9.286663    0.46794134155879
              3.163927    0.36231203217765
 s    3 1.00
             7.8682724   -0.11933240861517
             1.8812885   -0.16085421161283
             0.5442493     1.1434564825515
 s    1 1.00
             0.1687144                   1
 p    3 1.00
             7.8682724   0.068999095584993
             1.8812885    0.31642397975315
             0.5442493    0.74430825237435
 p    1 1.00
             0.1687144                   1
 d    1 1.00
                   0.8                   1

11 0
 s    3 1.00
             18.731137    0.03349459952309
             2.8253937    0.23472694665786
             0.6401217    0.81375731841339
 s    1 1.00
             0.1612778                   1

12 0
 s    6 1.00
             3047.5249  0.0018347001629433
             457.36951    0.01403730124668
             103.94869   0.068842606114048
             29.210155    0.23218442062076
              9.286663    0.46794134155879
              3.163927    0.36231203217765
 s    3 1.00
             7.8682724   -0.11933240861517
             1.8812885   -0.16085421161283
             0.5442493     1.1434564825515
 s    1 1.00
             0.1687144                   1
 p    3 1.00
             7.8682724   0.068999095584993
             1.8812885    0.31642397975315
             0.5442493    0.74430825237435
 p    1 1.00
             0.1687144                   1
 d    1 1.00
                   0.8                   1

13 0
 s    3 1.00
             18.731137    0.03349459952309
             2.8253937    0.23472694665786
             0.6401217    0.81375731841339
 s    1 1.00
             0.1612778                   1

14 0
 s    3 1.00
             18.731137    0.03349459952309
             2.8253937    0.23472694665786
             0.6401217    0.81375731841339
 s    1 1.00
             0.1612778                   1

15 0
 s    6 1.00
             3047.5249  0.0018347001629433
             457.36951    0.01403730124668
             103.94869   0.068842606114048
             29.210155    0.23218442062076
              9.286663    0.46794134155879
              3.163927    0.36231203217765
 s    3 1.00
             7.8682724   -0.11933240861517
             1.8812885   -0.16085421161283
             0.5442493     1.1434564825515
 s    1 1.00
             0.1687144                   1
 p    3 1.00
             7.8682724   0.068999095584993
             1.8812885    0.31642397975315
             0.5442493    0.74430825237435
 p    1 1.00
             0.1687144                   1
 d    1 1.00
                   0.8                   1

16 0
 s    6 1.00
             3047.5249  0.0018347001629433
             457.36951    0.01403730124668
             103.94869   0.068842606114048
             29.210155    0.23218442062076
              9.286663    0.46794134155879
              3.163927    0.36231203217765
 s    3 1.00
             7.8682724   -0.11933240861517
             1.8812885   -0.16085421161283
             0.5442493     1.1434564825515
 s    1 1.00
             0.1687144                   1
 p    3 1.00
             7.8682724   0.068999095584993
             1.8812885    0.31642397975315
             0.5442493    0.74430825237435
 p    1 1.00
             0.1687144                   1
 d    1 1.00
                   0.8                   1

17 0
 s    6 1.00
             3047.5249  0.0018347001629433
             457.36951    0.01403730124668
             103.94869   0.068842606114048
             29.210155    0.23218442062076
              9.286663    0.46794134155879
              3.163927    0.36231203217765
 s    3 1.00
             7.8682724   -0.11933240861517
             1.8812885   -0.16085421161283
             0.5442493     1.1434564825515
 s    1 1.00
             0.1687144                   1
 p    3 1.00
             7.8682724   0.068999095584993
             1.8812885    0.31642397975315
             0.5442493    0.74430825237435
 p    1 1.00
             0.1687144                   1
 d    1 1.00
                   0.8                   1

18 0
 s    6 1.00
             3047.5249  0.0018347001629433
             457.36951    0.01403730124668
             103.94869   0.068842606114048
             29.210155    0.23218442062076
              9.286663    0.46794134155879
              3.163927    0.36231203217765
 s    3 1.00
             7.8682724   -0.11933240861517
             1.8812885   -0.16085421161283
             0.5442493     1.1434564825515
 s    1 1.00
             0.1687144                   1
 p    3 1.00
             7.8682724   0.068999095584993
             1.8812885    0.31642397975315
             0.5442493    0.74430825237435
 p    1 1.00
             0.1687144                   1
 d    1 1.00
                   0.8                   1

19 0
 s    6 1.00
             3047.5249  0.0018347001629433
             457.36951    0.01403730124668
             103.94869   0.068842606114048
             29.210155    0.23218442062076
              9.286663    0.46794134155879
              3.163927    0.36231203217765
 s    3 1.00
             7.8682724   -0.11933240861517
             1.8812885   -0.16085421161283
             0.5442493     1.1434564825515
 s    1 1.00
             0.1687144                   1
 p    3 1.00
             7.8682724   0.068999095584993
             1.8812885    0.31642397975315
             0.5442493    0.74430825237435
 p    1 1.00
             0.1687144                   1
 d    1 1.00
                   0.8                   1

20 0
 s    6 1.00
             3047.5249  0.0018347001629433
             457.36951    0.01403730124668
             103.94869   0.068842606114048
             29.210155    0.23218442062076
              9.286663    0.46794134155879
              3.163927    0.36231203217765
 s    3 1.00
             7.8682724   -0.11933240861517
             1.8812885   -0.16085421161283
             0.5442493     1.1434564825515
 s    1 1.00
             0.1687144                   1
 p    3 1.00
             7.8682724   0.068999095584993
             1.8812885    0.31642397975315
             0.5442493    0.74430825237435
 p    1 1.00
             0.1687144                   1
 d    1 1.00
                   0.8                   1

21 0
 s    6 1.00
             3047.5249  0.0018347001629433
             457.36951    0.01403730124668
             103.94869   0.068842606114048
             29.210155    0.23218442062076
              9.286663    0.46794134155879
              3.163927    0.36231203217765
 s    3 1.00
             7.8682724   -0.11933240861517
             1.8812885   -0.16085421161283
             0.5442493     1.1434564825515
 s    1 1.00
             0.1687144                   1
 p    3 1.00
             7.8682724   0.068999095584993
             1.8812885    0.31642397975315
             0.5442493    0.74430825237435
 p    1 1.00
             0.1687144                   1
 d    1 1.00
                   0.8                   1

22 0
 s    3 1.00
             18.731137    0.03349459952309
             2.8253937    0.23472694665786
             0.6401217    0.81375731841339
 s    1 1.00
             0.1612778                   1

23 0
 s    3 1.00
             18.731137    0.03349459952309
             2.8253937    0.23472694665786
             0.6401217    0.81375731841339
 s    1 1.00
             0.1612778                   1

24 0
 s    3 1.00
             18.731137    0.03349459952309
             2.8253937    0.23472694665786
             0.6401217    0.81375731841339
 s    1 1.00
             0.1612778                   1

25 0
 s    3 1.00
             18.731137    0.03349459952309
             2.8253937    0.23472694665786
             0.6401217    0.81375731841339
 s    1 1.00
             0.1612778                   1

26 0
 s    3 1.00
             18.731137    0.03349459952309
             2.8253937    0.23472694665786
             0.6401217    0.81375731841339
 s    1 1.00
             0.1612778                   1

27 0
 s    3 1.00
             18.731137    0.03349459952309
             2.8253937    0.23472694665786
             0.6401217    0.81375731841339
 s    1 1.00
             0.1612778                   1

28 0
 s    3 1.00
             18.731137    0.03349459952309
             2.8253937    0.23472694665786
             0.6401217    0.81375731841339
 s    1 1.00
             0.1612778                   1

29 0
 s    3 1.00
             18.731137    0.03349459952309
             2.8253937    0.23472694665786
             0.6401217    0.81375731841339
 s    1 1.00
             0.1612778                   1

30 0
 s    3 1.00
             18.731137    0.03349459952309
             2.8253937    0.23472694665786
             0.6401217    0.81375731841339
 s    1 1.00
             0.1612778                   1

31 0
 s    3 1.00
             18.731137    0.03349459952309
             2.8253937    0.23472694665786
             0.6401217    0.81375731841339
 s    1 1.00
             0.1612778                   1

32 0
 s    3 1.00
             18.731137    0.03349459952309
             2.8253937    0.23472694665786
             0.6401217    0.81375731841339
 s    1 1.00
             0.1612778                   1

33 0
 s    6 1.00
             3047.5249  0.0018347001629433
             457.36951    0.01403730124668
             103.94869   0.068842606114048
             29.210155    0.23218442062076
              9.286663    0.46794134155879
              3.163927    0.36231203217765
 s    3 1.00
             7.8682724   -0.11933240861517
             1.8812885   -0.16085421161283
             0.5442493     1.1434564825515
 s    1 1.00
             0.1687144                   1
 p    3 1.00
             7.8682724   0.068999095584993
             1.8812885    0.31642397975315
             0.5442493    0.74430825237435
 p    1 1.00
             0.1687144                   1
 d    1 1.00
                   0.8                   1

34 0
 s    6 1.00
             3047.5249  0.0018347001629433
             457.36951    0.01403730124668
             103.94869   0.068842606114048
             29.210155    0.23218442062076
              9.286663    0.46794134155879
              3.163927    0.36231203217765
 s    3 1.00
             7.8682724   -0.11933240861517
             1.8812885   -0.16085421161283
             0.5442493     1.1434564825515
 s    1 1.00
             0.1687144                   1
 p    3 1.00
             7.8682724   0.068999095584993
             1.8812885    0.31642397975315
             0.5442493    0.74430825237435
 p    1 1.00
             0.1687144                   1
 d    1 1.00
                   0.8                   1

35 0
 s    3 1.00
             18.731137    0.03349459952309
             2.8253937    0.23472694665786
             0.6401217    0.81375731841339
 s    1 1.00
             0.1612778                   1

36 0
 s    6 1.00
             3047.5249  0.0018347001629433
             457.36951    0.01403730124668
             103.94869   0.068842606114048
             29.210155    0.23218442062076
              9.286663    0.46794134155879
              3.163927    0.36231203217765
 s    3 1.00
             7.8682724   -0.11933240861517
             1.8812885   -0.16085421161283
             0.5442493     1.1434564825515
 s    1 1.00
             0.1687144                   1
 p    3 1.00
             7.8682724   0.068999095584993
             1.8812885    0.31642397975315
             0.5442493    0.74430825237435
 p    1 1.00
             0.1687144                   1
 d    1 1.00
                   0.8                   1

37 0
 s    3 1.00
             18.731137    0.03349459952309
             2.8253937    0.23472694665786
             0.6401217    0.81375731841339
 s    1 1.00
             0.1612778                   1

38 0
 s    3 1.00
             18.731137    0.03349459952309
             2.8253937    0.23472694665786
             0.6401217    0.81375731841339
 s    1 1.00
             0.1612778                   1

39 0
 s    6 1.00
             3047.5249  0.0018347001629433
             457.36951    0.01403730124668
             103.94869   0.068842606114048
             29.210155    0.23218442062076
              9.286663    0.46794134155879
              3.163927    0.36231203217765
 s    3 1.00
             7.8682724   -0.11933240861517
             1.8812885   -0.16085421161283
             0.5442493     1.1434564825515
 s    1 1.00
             0.1687144                   1
 p    3 1.00
             7.8682724   0.068999095584993
             1.8812885    0.31642397975315
             0.5442493    0.74430825237435
 p    1 1.00
             0.1687144                   1
 d    1 1.00
                   0.8                   1

40 0
 s    6 1.00
             3047.5249  0.0018347001629433
             457.36951    0.01403730124668
             103.94869   0.068842606114048
             29.210155    0.23218442062076
              9.286663    0.46794134155879
              3.163927    0.36231203217765
 s    3 1.00
             7.8682724   -0.11933240861517
             1.8812885   -0.16085421161283
             0.5442493     1.1434564825515
 s    1 1.00
             0.1687144                   1
 p    3 1.00
             7.8682724   0.068999095584993
             1.8812885    0.31642397975315
             0.5442493    0.74430825237435
 p    1 1.00
             0.1687144                   1
 d    1 1.00
                   0.8                   1

41 0
 s    3 1.00
             18.731137    0.03349459952309
             2.8253937    0.23472694665786
             0.6401217    0.81375731841339
 s    1 1.00
             0.1612778                   1

42 0
 s    6 1.00
             5484.6717   0.001831099805527
             825.23495   0.013950098518422
             188.04696    0.06844509273075
               52.9645    0.23271427528445
              16.89757    0.47019295006289
             5.7996353    0.35852086192309
 s    3 1.00
             15.539616   -0.11077750382508
             3.5999336   -0.14802630511126
             1.0137618     1.1307670390447
 s    1 1.00
             0.2700058                   1
 p    3 1.00
             15.539616   0.070874299543311
             3.5999336    0.33975279781076
             1.0137618    0.72715859531445
 p    1 1.00
             0.2700058                   1
 d    1 1.00
                   0.8                   1

43 0
 s    3 1.00
             18.731137    0.03349459952309
             2.8253937    0.23472694665786
             0.6401217    0.81375731841339
 s    1 1.00
             0.1612778                   1

[5d]
[7f]
[9g]

[MO]
 Sym= A
 Ene=               0
 Spin= Alpha
 Occup=    1.00000
   1     0.019616891983727
   2    -0.00082898853621786
   3    0.0069509725484349
   4    0.00044643067913467
   5    -0.00019178363977189
   6    0.0011388368315721
   7    0.00068967953534417
   8    0.0013913771034767
   9    -0.0048481448902913
  10    -0.00086769290715539
  11    -0.00088272221270017
  12    0.00012132407307952
  13    -0.00022421148876113
  14    3.7931782346697e-05
  15    -0.000484797053262
  16    -0.0010202558362669
  17      0.99474119716209
  18     0.036700192320165
  19    -0.027798823930129
  20    0.00093878672032969
  21    0.00019889886502324
  22    -0.0003884856571016
  23    -0.0033943149336796
  24    -0.0010847178358035
  25    -0.00072455881040128
  26    0.00074637649159726
  27    -0.00028799382470978
  28    -0.00033263830315553
  29    0.00027264813569877
  30    0.00023908741914505
  31    -0.0011586108941967
  32    0.0037614651044316
  33     0.019508392590124
  34    -0.00024855785884599
  35    0.0018160581405433
  36    0.0008115150449189
  37     0.000345685296468
  38    -0.0011443320896677
  39    -0.0030291651162053
  40    0.0025803316862409
  41    0.0030645661790306
  42    -0.00053305626830661
  43    0.0011330160692903
  44    0.00053054010707464
  45    -0.00039206734643002
  46    -0.0003541955671612
  47    -0.00051859937362403
  48    -0.00042528943863998
  49    -3.2726986232138e-05
  50    -0.00047209157655157
  51    -0.00029028753578873
  52    0.00033660979606352
  53    9.8904969597222e-05
  54    -0.00029938823808586
  55    -0.0053531283186541
  56    0.00025513301007861
  57    0.0053932415251319
  58    -0.0001693071843995
  59    2.8675050485166e-05
  60    1.4591518815986e-05
  61    -9.6269793255947e-05
  62    -0.00027355124022983
  63    -0.00041600146204257
  64    0.00020070338729774
  65    -6.5121502550908e-06
  66    -1.7032341575022e-05
  67    -2.0591427394733e-06
  68    6.2501349649621e-06
  69    -3.2913611234992e-06
  70    8.8781540992344e-06
  71    -4.5007344670022e-06
  72    -9.6117413618186e-06
  73    2.2487645771616e-05
  74    1.6894949611203e-05
  75    1.8485403020741e-05
  76    -8.1161181427751e-07
  77    -7.0923735137796e-07
  78    2.9093775471502e-07
  79    4.4632632770507e-07
  80    -8.33220550364e-07
  81    3.9204082047012e-07
  82    5.7187413886147e-06
  83    1.6952131399411e-06
  84    -1.9297514399859e-06
  85    -4.6728222516536e-05
  86    -2.2334750082411e-06
  87    -1.2916129753419e-05
  88    1.8886838636489e-05
  89    1.1011353438541e-05
  90    -5.9477356008893e-05
  91    8.9353069462987e-06
  92    1.9027904676704e-06
  93    -4.3480969534176e-06
  94    -2.6539482439424e-07
  95    -1.9802234893169e-06
  96    -4.2786049450252e-06
  97    -1.4089571402674e-05
  98    -2.227188742179e-05
  99    1.4871198543226e-05
 100    1.3270837442389e-05
 101    -9.2984163244311e-06
 102    4.2892091545077e-06
 103    0.00018414485165835
 104    2.7728184686376e-05
 105    9.6217050550433e-05
 106    -2.8169600551171e-05
 107    -0.00013027213501412
 108    0.00023906649876799
 109    0.0001056498657073
 110    -6.9481940098465e-06
 111    4.8557523237991e-07
 112    -1.1648421229145e-06
 113    -2.5965735675787e-06
 114    -7.7895485543276e-06
 115    -1.9709259990525e-06
 116    -3.2387476865062e-05
 117    0.00020412484578553
 118    -2.1548283233879e-06
 119    -1.2547926521895e-05
 120    1.3688198305783e-05
 121    -4.3413211846083e-05
 122    1.3818048901929e-05
 123    3.1516269002876e-05
 124    6.453343769255e-07
 125    -1.4348868777814e-06
 126    -4.5003761524604e-07
 127    -1.7867434022162e-06
 128    -5.3322045913672e-06
 129    -1.6686827971287e-05
 130    -1.4773066534924e-05
 131    0.00013311531432838
 132    4.6879676207854e-05
 133    5.2886145012394e-05
 134    -2.5802538709827e-06
 135    -0.00025980234330124
 136    6.6972057102638e-05
 137    -0.0003524858722254
 138    4.2359958097455e-06
 139    1.831732832806e-05
 140    8.9683205988546e-06
 141    1.058843700865e-05
 142    8.4303322434939e-06
 143    2.3640994876045e-06
 144    -3.4099811203735e-05
 145    2.4180748183063e-05
 146    -9.1503818183832e-06
 147    8.8641406000702e-06
 148    1.9181006576204e-05
 149    1.4998784825944e-06
 150    2.3802088635447e-05
 151    -8.2314427308951e-05
 152    -4.9004508255794e-06
 153    -5.7794793087642e-06
 154    -4.0267044149007e-06
 155    5.3234231918463e-06
 156    -1.8511241215161e-06
 157    2.9521690014574e-06
 158    9.8564509493731e-06
 159    -5.9043227659097e-05
 160    4.1433412510354e-06
 161    6.5497372339234e-06
 162    -1.9311215047141e-06
 163    -5.4433745698937e-05
 164    3.7126094557779e-05
 165    1.2463887204436e-05
 166    4.2528471808468e-06
 167    -1.5460712369691e-06
 168    -1.3087329658751e-07
 169    1.2660982532763e-06
 170    1.9313164486118e-06
 171    -2.1265652738151e-06
 172    -8.7225834688863e-06
 173    4.3130803581041e-05
 174    1.2143977414577e-05
 175    3.2117487695334e-06
 176    3.2716485618876e-05
 177    1.5792821834037e-05
 178    9.1707780196774e-07
 179    -4.4052703701758e-06
 180    1.0024896820209e-06
 181    4.0065611173368e-06
 182    8.854701863027e-07
 183    -2.1726849492363e-06
 184    1.3262418780753e-06
 185    -3.2721066942092e-06
 186    -2.8662318498093e-05
 187    0.00010002456011158
 188    -2.9703671490288e-06
 189    -5.9042161042901e-06
 190    7.3064793044235e-06
 191    -4.4346192740227e-06
 192    -3.1451237001107e-05
 193    -7.2710655014152e-05
 194    2.2102826937355e-06
 195    1.5819653356599e-06
 196    2.6161375850211e-06
 197    6.0188373026115e-07
 198    9.7989169464886e-08
 199    -1.0260901328139e-05
 200    3.6708004898639e-06
 201    -1.2358334218476e-06
 202    2.1861884470859e-05
 203    8.0491630575628e-06
 204    2.6540195397843e-05
 205    -1.9348946742432e-05
 206    -5.652965606857e-05
 207    8.0255549577102e-06
 208    -3.6966786036679e-05
 209    1.0108191219742e-05
 210    -2.8855298538158e-05
 211    8.3466730204672e-06
 212    2.0096699743178e-05
 213    5.3371507370328e-07
 214    -1.9950323374157e-05
 215    -1.4565098618337e-05
 216    -3.2657211000622e-05
 217    3.0846213268511e-06
 218    2.492126337733e-06
 219    7.820838402692e-06
 220    -3.9707944223853e-06
 221    1.3800649724524e-05
 222    -4.7048584225003e-05
 223    0.00083178591471839
 224    -0.00019073542400043
 225    -0.00011514425430099
 226    3.8528284211037e-05
 227    0.00053404442863019
 228    0.0002184714191628
 229    -0.0007603240928147
 230    8.3259245959168e-06
 231    -3.3798306003796e-05
 232    -1.3797970420238e-05
 233    2.5397438624085e-05
 234    1.831817132704e-05
 235    -0.0002095093498348
 236    0.00027830833752757
 237    0.00030077886909109
 238    -6.8475935724727e-05
 239    -1.7960737065555e-05
 240    -0.00052767495165662
 241    0.00022262287171581
 242    0.00032327621631775
 243    -0.0016814817930816
 244    2.5885580028496e-05
 245    6.8839020729441e-05
 246    -1.0216121281269e-07
 247    2.0362175596965e-05
 248    -3.6082185991308e-06
 249    7.7388263346823e-05
 250    0.00036212068628251
 251    0.00015505638534431
 252    -0.00027600238615172
 253     0.001549139417071
 254    0.00066757049782102
 255    4.8043635293298e-06
 256    0.00069119723217146
 257    -3.4597064211905e-05
 258    0.00015227981994364
 259    -0.0015433640026464
 260    -3.7853283014956e-05
 261    -7.0253770503841e-07
 262    -5.2612095017562e-06
 263    0.00012060588238447
 264    5.1122144688719e-05
 265    -5.8289882750766e-05
 266    0.00010751134517544
 267    -0.00051618136014998
 268    -0.00088500414695211
 269    -0.00011678259012659
 270    -0.0005767823261335
 271    0.0059063923996161
 272    -0.00026044339763541
 273     0.000285222318281
 274    0.00014478229130835
 275    -0.00099708578076573
 276    -0.0020647081618219
 277    0.0029771074410464
 278    9.9144335986706e-05
 279    -0.00013958173759261
 280    -0.00011296215888879