[Molden Format]
made by pyscf v[2.0.1]
[Atoms] (AU)
C   1   6     0.69100024066471     0.64692934207205    -3.48223131169301
H   2   1     2.68052439830868     1.13355088658700    -3.25784032593313
C   3   6    -0.36286361513219     0.85440132524594    -5.97030179418974
H   4   1    -2.35448549047279     0.36322488579172    -6.17995817793143
C   5   6     0.93697958957450     1.61209284601821    -8.05828437677121
H   6   1     2.04771873455416     3.34419409619576    -7.97445952172335
C   7   6     0.93181860145248     0.24539724069794   -10.40101785795171
H   8   1    -0.18866463604211    -1.48700602985521   -10.45595821195799
H   9   1     1.55630230933075    -1.92953025305990    12.99630010416247
C   10   6     0.75233899775814    -2.21270439606481    11.10705728102219
H   11   1    -0.43433408177274    -3.90944857546550    11.22216085340412
C   12   6     2.86362581178706    -2.63237380607947     9.17926416456045
H   13   1     4.39038949912609    -1.24955421540245     9.49899813497433
H   14   1     3.74629220191363    -4.48798724300892     9.47414880959024
C   15   6     2.02478325613682    -2.42177285709634     6.44560829588644
C   16   6     3.88048732735477    -3.58795445234514     4.61402886975252
C   17   6    -0.18412382258602    -1.30464291234259     5.76021113872346
C   18   6    -2.10044360464350    -0.26837831858460     7.71610340967100
C   19   6    -3.08956938670431     2.35282328359417     6.88693925039594
C   20   6    -4.37372924086464    -2.09766595989678     7.93610724222001
C   21   6    -0.83850430601230     0.06372213486173    10.33002307638377
H   22   1     0.38411922151109     1.74281358582432    10.27380136542181
H   23   1    -2.30980003007874     0.45460143924521    11.73986301809809
H   24   1     4.58527064644668    -5.38706904487420     5.36778158031719
H   25   1     5.54944938085014    -2.37631462192748     4.35398898413318
H   26   1     3.06633019150423    -3.94118377050688     2.75255466040884
H   27   1    -4.17727778763735     2.26573369139522     5.12914900961283
H   28   1    -1.52662344944051     3.68001877445626     6.59540397144508
H   29   1    -4.32916174397830     3.13643051467482     8.35225460090378
H   30   1    -5.32329548508442    -2.36691813602939     6.11583672749896
H   31   1    -5.77989366602257    -1.33896741843465     9.25748940450990
H   32   1    -3.79310905208926    -3.96389819310853     8.61386170102686
C   33   6    -1.01100794811226    -1.06331657314144     3.11929490449947
C   34   6     0.37686231036534    -0.33275864505552     1.09165013605873
H   35   1    -3.01671213906703    -1.40297922279997     2.77827895090944
C   36   6    -0.64382707979370    -0.11591880174385    -1.42063131251064
H   37   1     2.35569259782137     0.17174499283897     1.33641070251401
H   38   1    -2.63317482980319    -0.60229203511219    -1.66119700387645
C   39   6     2.19331151370285     0.92821726401642   -12.52684146370420
C   40   6     2.06658501336205    -0.59430170292716   -14.82312084011087
H   41   1     3.34297492540252     2.63137484242591   -12.59961951178576
O   42   8     3.14891962090165    -0.09254461622574   -16.79735885819125
H   43   1     0.86886987612456    -2.32059369084518   -14.66320417409860
[GTO]
1 0
 s    6 1.00
             3047.5249  0.0018347001629433
             457.36951    0.01403730124668
             103.94869   0.068842606114048
             29.210155    0.23218442062076
              9.286663    0.46794134155879
              3.163927    0.36231203217765
 s    3 1.00
             7.8682724   -0.11933240861517
             1.8812885   -0.16085421161283
             0.5442493     1.1434564825515
 s    1 1.00
             0.1687144                   1
 p    3 1.00
             7.8682724   0.068999095584993
             1.8812885    0.31642397975315
             0.5442493    0.74430825237435
 p    1 1.00
             0.1687144                   1
 d    1 1.00
                   0.8                   1

2 0
 s    3 1.00
             18.731137    0.03349459952309
             2.8253937    0.23472694665786
             0.6401217    0.81375731841339
 s    1 1.00
             0.1612778                   1

3 0
 s    6 1.00
             3047.5249  0.0018347001629433
             457.36951    0.01403730124668
             103.94869   0.068842606114048
             29.210155    0.23218442062076
              9.286663    0.46794134155879
              3.163927    0.36231203217765
 s    3 1.00
             7.8682724   -0.11933240861517
             1.8812885   -0.16085421161283
             0.5442493     1.1434564825515
 s    1 1.00
             0.1687144                   1
 p    3 1.00
             7.8682724   0.068999095584993
             1.8812885    0.31642397975315
             0.5442493    0.74430825237435
 p    1 1.00
             0.1687144                   1
 d    1 1.00
                   0.8                   1

4 0
 s    3 1.00
             18.731137    0.03349459952309
             2.8253937    0.23472694665786
             0.6401217    0.81375731841339
 s    1 1.00
             0.1612778                   1

5 0
 s    6 1.00
             3047.5249  0.0018347001629433
             457.36951    0.01403730124668
             103.94869   0.068842606114048
             29.210155    0.23218442062076
              9.286663    0.46794134155879
              3.163927    0.36231203217765
 s    3 1.00
             7.8682724   -0.11933240861517
             1.8812885   -0.16085421161283
             0.5442493     1.1434564825515
 s    1 1.00
             0.1687144                   1
 p    3 1.00
             7.8682724   0.068999095584993
             1.8812885    0.31642397975315
             0.5442493    0.74430825237435
 p    1 1.00
             0.1687144                   1
 d    1 1.00
                   0.8                   1

6 0
 s    3 1.00
             18.731137    0.03349459952309
             2.8253937    0.23472694665786
             0.6401217    0.81375731841339
 s    1 1.00
             0.1612778                   1

7 0
 s    6 1.00
             3047.5249  0.0018347001629433
             457.36951    0.01403730124668
             103.94869   0.068842606114048
             29.210155    0.23218442062076
              9.286663    0.46794134155879
              3.163927    0.36231203217765
 s    3 1.00
             7.8682724   -0.11933240861517
             1.8812885   -0.16085421161283
             0.5442493     1.1434564825515
 s    1 1.00
             0.1687144                   1
 p    3 1.00
             7.8682724   0.068999095584993
             1.8812885    0.31642397975315
             0.5442493    0.74430825237435
 p    1 1.00
             0.1687144                   1
 d    1 1.00
                   0.8                   1

8 0
 s    3 1.00
             18.731137    0.03349459952309
             2.8253937    0.23472694665786
             0.6401217    0.81375731841339
 s    1 1.00
             0.1612778                   1

9 0
 s    3 1.00
             18.731137    0.03349459952309
             2.8253937    0.23472694665786
             0.6401217    0.81375731841339
 s    1 1.00
             0.1612778                   1

10 0
 s    6 1.00
             3047.5249  0.0018347001629433
             457.36951    0.01403730124668
             103.94869   0.068842606114048
             29.210155    0.23218442062076
              9.286663    0.46794134155879
              3.163927    0.36231203217765
 s    3 1.00
             7.8682724   -0.11933240861517
             1.8812885   -0.16085421161283
             0.5442493     1.1434564825515
 s    1 1.00
             0.1687144                   1
 p    3 1.00
             7.8682724   0.068999095584993
             1.8812885    0.31642397975315
             0.5442493    0.74430825237435
 p    1 1.00
             0.1687144                   1
 d    1 1.00
                   0.8                   1

11 0
 s    3 1.00
             18.731137    0.03349459952309
             2.8253937    0.23472694665786
             0.6401217    0.81375731841339
 s    1 1.00
             0.1612778                   1

12 0
 s    6 1.00
             3047.5249  0.0018347001629433
             457.36951    0.01403730124668
             103.94869   0.068842606114048
             29.210155    0.23218442062076
              9.286663    0.46794134155879
              3.163927    0.36231203217765
 s    3 1.00
             7.8682724   -0.11933240861517
             1.8812885   -0.16085421161283
             0.5442493     1.1434564825515
 s    1 1.00
             0.1687144                   1
 p    3 1.00
             7.8682724   0.068999095584993
             1.8812885    0.31642397975315
             0.5442493    0.74430825237435
 p    1 1.00
             0.1687144                   1
 d    1 1.00
                   0.8                   1

13 0
 s    3 1.00
             18.731137    0.03349459952309
             2.8253937    0.23472694665786
             0.6401217    0.81375731841339
 s    1 1.00
             0.1612778                   1

14 0
 s    3 1.00
             18.731137    0.03349459952309
             2.8253937    0.23472694665786
             0.6401217    0.81375731841339
 s    1 1.00
             0.1612778                   1

15 0
 s    6 1.00
             3047.5249  0.0018347001629433
             457.36951    0.01403730124668
             103.94869   0.068842606114048
             29.210155    0.23218442062076
              9.286663    0.46794134155879
              3.163927    0.36231203217765
 s    3 1.00
             7.8682724   -0.11933240861517
             1.8812885   -0.16085421161283
             0.5442493     1.1434564825515
 s    1 1.00
             0.1687144                   1
 p    3 1.00
             7.8682724   0.068999095584993
             1.8812885    0.31642397975315
             0.5442493    0.74430825237435
 p    1 1.00
             0.1687144                   1
 d    1 1.00
                   0.8                   1

16 0
 s    6 1.00
             3047.5249  0.0018347001629433
             457.36951    0.01403730124668
             103.94869   0.068842606114048
             29.210155    0.23218442062076
              9.286663    0.46794134155879
              3.163927    0.36231203217765
 s    3 1.00
             7.8682724   -0.11933240861517
             1.8812885   -0.16085421161283
             0.5442493     1.1434564825515
 s    1 1.00
             0.1687144                   1
 p    3 1.00
             7.8682724   0.068999095584993
             1.8812885    0.31642397975315
             0.5442493    0.74430825237435
 p    1 1.00
             0.1687144                   1
 d    1 1.00
                   0.8                   1

17 0
 s    6 1.00
             3047.5249  0.0018347001629433
             457.36951    0.01403730124668
             103.94869   0.068842606114048
             29.210155    0.23218442062076
              9.286663    0.46794134155879
              3.163927    0.36231203217765
 s    3 1.00
             7.8682724   -0.11933240861517
             1.8812885   -0.16085421161283
             0.5442493     1.1434564825515
 s    1 1.00
             0.1687144                   1
 p    3 1.00
             7.8682724   0.068999095584993
             1.8812885    0.31642397975315
             0.5442493    0.74430825237435
 p    1 1.00
             0.1687144                   1
 d    1 1.00
                   0.8                   1

18 0
 s    6 1.00
             3047.5249  0.0018347001629433
             457.36951    0.01403730124668
             103.94869   0.068842606114048
             29.210155    0.23218442062076
              9.286663    0.46794134155879
              3.163927    0.36231203217765
 s    3 1.00
             7.8682724   -0.11933240861517
             1.8812885   -0.16085421161283
             0.5442493     1.1434564825515
 s    1 1.00
             0.1687144                   1
 p    3 1.00
             7.8682724   0.068999095584993
             1.8812885    0.31642397975315
             0.5442493    0.74430825237435
 p    1 1.00
             0.1687144                   1
 d    1 1.00
                   0.8                   1

19 0
 s    6 1.00
             3047.5249  0.0018347001629433
             457.36951    0.01403730124668
             103.94869   0.068842606114048
             29.210155    0.23218442062076
              9.286663    0.46794134155879
              3.163927    0.36231203217765
 s    3 1.00
             7.8682724   -0.11933240861517
             1.8812885   -0.16085421161283
             0.5442493     1.1434564825515
 s    1 1.00
             0.1687144                   1
 p    3 1.00
             7.8682724   0.068999095584993
             1.8812885    0.31642397975315
             0.5442493    0.74430825237435
 p    1 1.00
             0.1687144                   1
 d    1 1.00
                   0.8                   1

20 0
 s    6 1.00
             3047.5249  0.0018347001629433
             457.36951    0.01403730124668
             103.94869   0.068842606114048
             29.210155    0.23218442062076
              9.286663    0.46794134155879
              3.163927    0.36231203217765
 s    3 1.00
             7.8682724   -0.11933240861517
             1.8812885   -0.16085421161283
             0.5442493     1.1434564825515
 s    1 1.00
             0.1687144                   1
 p    3 1.00
             7.8682724   0.068999095584993
             1.8812885    0.31642397975315
             0.5442493    0.74430825237435
 p    1 1.00
             0.1687144                   1
 d    1 1.00
                   0.8                   1

21 0
 s    6 1.00
             3047.5249  0.0018347001629433
             457.36951    0.01403730124668
             103.94869   0.068842606114048
             29.210155    0.23218442062076
              9.286663    0.46794134155879
              3.163927    0.36231203217765
 s    3 1.00
             7.8682724   -0.11933240861517
             1.8812885   -0.16085421161283
             0.5442493     1.1434564825515
 s    1 1.00
             0.1687144                   1
 p    3 1.00
             7.8682724   0.068999095584993
             1.8812885    0.31642397975315
             0.5442493    0.74430825237435
 p    1 1.00
             0.1687144                   1
 d    1 1.00
                   0.8                   1

22 0
 s    3 1.00
             18.731137    0.03349459952309
             2.8253937    0.23472694665786
             0.6401217    0.81375731841339
 s    1 1.00
             0.1612778                   1

23 0
 s    3 1.00
             18.731137    0.03349459952309
             2.8253937    0.23472694665786
             0.6401217    0.81375731841339
 s    1 1.00
             0.1612778                   1

24 0
 s    3 1.00
             18.731137    0.03349459952309
             2.8253937    0.23472694665786
             0.6401217    0.81375731841339
 s    1 1.00
             0.1612778                   1

25 0
 s    3 1.00
             18.731137    0.03349459952309
             2.8253937    0.23472694665786
             0.6401217    0.81375731841339
 s    1 1.00
             0.1612778                   1

26 0
 s    3 1.00
             18.731137    0.03349459952309
             2.8253937    0.23472694665786
             0.6401217    0.81375731841339
 s    1 1.00
             0.1612778                   1

27 0
 s    3 1.00
             18.731137    0.03349459952309
             2.8253937    0.23472694665786
             0.6401217    0.81375731841339
 s    1 1.00
             0.1612778                   1

28 0
 s    3 1.00
             18.731137    0.03349459952309
             2.8253937    0.23472694665786
             0.6401217    0.81375731841339
 s    1 1.00
             0.1612778                   1

29 0
 s    3 1.00
             18.731137    0.03349459952309
             2.8253937    0.23472694665786
             0.6401217    0.81375731841339
 s    1 1.00
             0.1612778                   1

30 0
 s    3 1.00
             18.731137    0.03349459952309
             2.8253937    0.23472694665786
             0.6401217    0.81375731841339
 s    1 1.00
             0.1612778                   1

31 0
 s    3 1.00
             18.731137    0.03349459952309
             2.8253937    0.23472694665786
             0.6401217    0.81375731841339
 s    1 1.00
             0.1612778                   1

32 0
 s    3 1.00
             18.731137    0.03349459952309
             2.8253937    0.23472694665786
             0.6401217    0.81375731841339
 s    1 1.00
             0.1612778                   1

33 0
 s    6 1.00
             3047.5249  0.0018347001629433
             457.36951    0.01403730124668
             103.94869   0.068842606114048
             29.210155    0.23218442062076
              9.286663    0.46794134155879
              3.163927    0.36231203217765
 s    3 1.00
             7.8682724   -0.11933240861517
             1.8812885   -0.16085421161283
             0.5442493     1.1434564825515
 s    1 1.00
             0.1687144                   1
 p    3 1.00
             7.8682724   0.068999095584993
             1.8812885    0.31642397975315
             0.5442493    0.74430825237435
 p    1 1.00
             0.1687144                   1
 d    1 1.00
                   0.8                   1

34 0
 s    6 1.00
             3047.5249  0.0018347001629433
             457.36951    0.01403730124668
             103.94869   0.068842606114048
             29.210155    0.23218442062076
              9.286663    0.46794134155879
              3.163927    0.36231203217765
 s    3 1.00
             7.8682724   -0.11933240861517
             1.8812885   -0.16085421161283
             0.5442493     1.1434564825515
 s    1 1.00
             0.1687144                   1
 p    3 1.00
             7.8682724   0.068999095584993
             1.8812885    0.31642397975315
             0.5442493    0.74430825237435
 p    1 1.00
             0.1687144                   1
 d    1 1.00
                   0.8                   1

35 0
 s    3 1.00
             18.731137    0.03349459952309
             2.8253937    0.23472694665786
             0.6401217    0.81375731841339
 s    1 1.00
             0.1612778                   1

36 0
 s    6 1.00
             3047.5249  0.0018347001629433
             457.36951    0.01403730124668
             103.94869   0.068842606114048
             29.210155    0.23218442062076
              9.286663    0.46794134155879
              3.163927    0.36231203217765
 s    3 1.00
             7.8682724   -0.11933240861517
             1.8812885   -0.16085421161283
             0.5442493     1.1434564825515
 s    1 1.00
             0.1687144                   1
 p    3 1.00
             7.8682724   0.068999095584993
             1.8812885    0.31642397975315
             0.5442493    0.74430825237435
 p    1 1.00
             0.1687144                   1
 d    1 1.00
                   0.8                   1

37 0
 s    3 1.00
             18.731137    0.03349459952309
             2.8253937    0.23472694665786
             0.6401217    0.81375731841339
 s    1 1.00
             0.1612778                   1

38 0
 s    3 1.00
             18.731137    0.03349459952309
             2.8253937    0.23472694665786
             0.6401217    0.81375731841339
 s    1 1.00
             0.1612778                   1

39 0
 s    6 1.00
             3047.5249  0.0018347001629433
             457.36951    0.01403730124668
             103.94869   0.068842606114048
             29.210155    0.23218442062076
              9.286663    0.46794134155879
              3.163927    0.36231203217765
 s    3 1.00
             7.8682724   -0.11933240861517
             1.8812885   -0.16085421161283
             0.5442493     1.1434564825515
 s    1 1.00
             0.1687144                   1
 p    3 1.00
             7.8682724   0.068999095584993
             1.8812885    0.31642397975315
             0.5442493    0.74430825237435
 p    1 1.00
             0.1687144                   1
 d    1 1.00
                   0.8                   1

40 0
 s    6 1.00
             3047.5249  0.0018347001629433
             457.36951    0.01403730124668
             103.94869   0.068842606114048
             29.210155    0.23218442062076
              9.286663    0.46794134155879
              3.163927    0.36231203217765
 s    3 1.00
             7.8682724   -0.11933240861517
             1.8812885   -0.16085421161283
             0.5442493     1.1434564825515
 s    1 1.00
             0.1687144                   1
 p    3 1.00
             7.8682724   0.068999095584993
             1.8812885    0.31642397975315
             0.5442493    0.74430825237435
 p    1 1.00
             0.1687144                   1
 d    1 1.00
                   0.8                   1

41 0
 s    3 1.00
             18.731137    0.03349459952309
             2.8253937    0.23472694665786
             0.6401217    0.81375731841339
 s    1 1.00
             0.1612778                   1

42 0
 s    6 1.00
             5484.6717   0.001831099805527
             825.23495   0.013950098518422
             188.04696    0.06844509273075
               52.9645    0.23271427528445
              16.89757    0.47019295006289
             5.7996353    0.35852086192309
 s    3 1.00
             15.539616   -0.11077750382508
             3.5999336   -0.14802630511126
             1.0137618     1.1307670390447
 s    1 1.00
             0.2700058                   1
 p    3 1.00
             15.539616   0.070874299543311
             3.5999336    0.33975279781076
             1.0137618    0.72715859531445
 p    1 1.00
             0.2700058                   1
 d    1 1.00
                   0.8                   1

43 0
 s    3 1.00
             18.731137    0.03349459952309
             2.8253937    0.23472694665786
             0.6401217    0.81375731841339
 s    1 1.00
             0.1612778                   1

[5d]
[7f]
[9g]

[MO]
 Sym= A
 Ene=               0
 Spin= Alpha
 Occup=    1.00000
   1     0.016984895196884
   2    -0.00089697730976954
   3    0.0064214837275786
   4    0.0004287428026336
   5    -5.8351239274138e-05
   6    0.0011903959528755
   7    0.00069928982561282
   8    0.00072498211627643
   9    -0.0037868586639407
  10    -0.00093015239039781
  11    -0.00089543577340958
  12    0.00013432593188167
  13    -0.00024218013629879
  14    3.6392465651857e-05
  15    -0.00046837499433332
  16    -0.00095434522569635
  17      0.99458516386132
  18     0.036281163025626
  19    -0.026753754081142
  20    0.00074240947618616
  21    0.00015824013994271
  22    -0.0002848039899855
  23    -0.002882955188419
  24    -0.00087681673979427
  25    -0.00020356086773652
  26    0.00080428681168002
  27    -0.0002409187145181
  28    -0.00038135639619464
  29    0.0002658713004906
  30    0.0001360644358587
  31    -0.0010577879807995
  32    0.0038435398665222
  33      0.02664060072849
  34    -0.00036482557216674
  35    0.0034923042776062
  36    0.00082768656765447
  37    0.00035867913849955
  38    -0.0012420360151727
  39    -0.00043093050905313
  40    0.0016621600539283
  41    0.0046064057189087
  42    -0.00065975450797136
  43    0.0010065634485897
  44    0.00047759584395863
  45    -0.00035009214204664
  46    -0.00043383733917684
  47    -0.00048865641220797
  48    -0.00055956540867471
  49    0.0036340745096691
  50    -0.00030805430698325
  51    0.00037281572114143
  52    3.403853340036e-05
  53    0.00010735066747628
  54    -0.00035773604390826
  55    -0.0014406302993545
  56    1.9149154983332e-05
  57    0.0051095806169916
  58    -4.0298521632699e-05
  59    6.8327122796576e-05
  60    0.00015278458986511
  61    -0.0001067228359708
  62    0.00010585983737707
  63    -0.00030321653464322
  64    2.9071801573479e-06
  65    -3.1302765524317e-06
  66    -6.7805453665687e-06
  67    -7.1406914322292e-07
  68    9.5352704501445e-07
  69    4.6564089047637e-06
  70    -1.8792153940362e-06
  71    1.0720779401106e-06
  72    -1.0821173192298e-06
  73    7.8971147850533e-06
  74    2.2554857495255e-05
  75    1.0742316732764e-05
  76    -7.5881496974159e-07
  77    -1.2698871368185e-07
  78    -4.7676348796724e-08
  79    5.6758974418021e-07
  80    -2.8025381667412e-07
  81    1.3722606132687e-06
  82    9.9504207232787e-06
  83    2.3779425182932e-06
  84    -2.5661525437513e-06
  85    -4.9013101474467e-05
  86    1.3252998853158e-05
  87    -1.4343289440088e-06
  88    1.7350169055181e-05
  89    2.1783888176889e-05
  90    -4.8648167243939e-05
  91    1.253883542038e-05
  92    3.4562084076771e-07
  93    -1.6401363082998e-06
  94    1.7920163936068e-06
  95    -7.1562497737367e-07
  96    -1.3804998069749e-06
  97    7.3865718239483e-06
  98    1.0250754652313e-05
  99    5.4920939722221e-06
 100    -3.2715681066869e-06
 101    -1.2706081044692e-05
 102    9.0833115790512e-06
 103    0.00020069952748097
 104    -3.0175324819302e-05
 105    2.0850755365825e-05
 106    -2.6608249005155e-05
 107    -0.00014066171695474
 108    0.00014331091749235
 109    8.3316924279401e-05
 110    -5.769588309854e-06
 111    4.3719201819725e-07
 112    -8.5854049813608e-08
 113    1.9620608224382e-06
 114    -4.2202559225077e-06
 115    -4.1142185617168e-06
 116    -2.3904443553274e-05
 117    0.00019285075656943
 118    -2.0471698547524e-06
 119    1.3951481802697e-06
 120    -9.330658346103e-06
 121    -3.1117742884101e-05
 122    -3.3233911803139e-06
 123    -4.5074518882093e-06
 124    6.9758844097501e-07
 125    -1.6195055955091e-06
 126    -8.6370902038122e-07
 127    4.7059097197305e-07
 128    -1.5292261316324e-06
 129    -1.5586595880688e-05
 130    -1.4872014818518e-05
 131    9.9595421042712e-05
 132    2.7177134230574e-05
 133    -1.805295829536e-05
 134    -6.745142877256e-06
 135    -0.00023590445914853
 136    4.4536161216896e-05
 137    -0.00029192914146209
 138     3.42194286931e-06
 139    1.642629045259e-05
 140    2.7897995704756e-06
 141    5.7896151526949e-06
 142    3.240094998702e-06
 143    5.8109445304487e-06
 144    -2.7414942726241e-05
 145    -1.9878206921236e-05
 146    -1.8000749153491e-05
 147    2.2750205816738e-05
 148    3.4258820714387e-05
 149    -1.1650581515473e-05
 150    -9.3004089646707e-06
 151    -1.4651539835667e-05
 152    -4.4565823352615e-06
 153     -2.4557576296e-06
 154    -1.6952913388187e-06
 155    3.3017800904113e-06
 156    -1.7162200619685e-06
 157    1.7954359162175e-06
 158    3.837272905205e-06
 159    -1.1620245093905e-05
 160    1.1393704015109e-05
 161    -3.2065247558781e-06
 162    1.3580675194277e-05
 163    -2.3167752489321e-05
 164    6.9669229254561e-06
 165    1.0881042216215e-05
 166    2.8891754040689e-06
 167    -5.6874770379481e-07
 168    -4.4014326877275e-07
 169    -8.3317273261296e-08
 170    1.3738313232975e-06
 171    4.3714971989191e-07
 172    -1.0652735612017e-05
 173    1.8527881653666e-05
 174    3.4293299504085e-06
 175    7.6469841338374e-07
 176    2.7504897230014e-05
 177    -7.1102244525427e-06
 178    -3.3167062460016e-06
 179    -1.3611351364063e-05
 180    1.3357639945475e-06
 181    2.6750463360542e-06
 182    6.2204555456509e-07
 183    -2.6092338192557e-06
 184    1.0992983276091e-07
 185    -3.9789596563195e-06
 186    -1.8080909579902e-05
 187    6.707113534228e-05
 188    -1.213989008096e-06
 189    -6.5678886018105e-06
 190    -7.8927246813827e-06
 191    -2.4243201601672e-06
 192    -1.2407305371546e-05
 193    -6.347104997491e-05
 194    1.9008829448769e-06
 195    2.1368839083593e-06
 196    3.1852380675038e-07
 197    1.0457083737072e-07
 198    6.8217239452893e-08
 199    -6.6781852014692e-06
 200    -6.5309724135135e-07
 201    -9.931944448108e-06
 202    2.971954617991e-06
 203    -1.0351483241757e-05
 204    -1.045398962546e-05
 205    -4.7251700453453e-07
 206    -2.0703133490444e-05
 207    1.3720441477073e-05
 208    -7.5636626706491e-05
 209    -5.6993773319282e-07
 210    -2.2908965843288e-05
 211    4.3025034335667e-06
 212    1.4496112165888e-05
 213    7.555149862573e-07
 214    -1.218338978923e-05
 215    -8.6662905706831e-06
 216    -4.4262915988648e-05
 217    3.4370106154712e-06
 218    2.6232380571102e-06
 219    5.7338705106208e-06
 220    6.0640505894933e-06
 221    1.6464072739204e-05
 222     -1.6816529178e-05
 223    0.00053598540552881
 224    -0.00021145580745167
 225    6.1236104410453e-06
 226    5.621428511639e-05
 227    0.00042764917618019
 228    0.00021935143939308
 229    -0.0005013295773411
 230    1.2033521136307e-06
 231    -2.1485082112663e-05
 232    -1.6310690599597e-05
 233    1.5680029740415e-05
 234    1.5973385215379e-05
 235    -0.00021221703209506
 236    0.00026494435854441
 237    0.00076497233379371
 238    -0.00010803203831266
 239    0.00013691987205477
 240    -0.00050442843827964
 241    5.1564548429896e-05
 242    0.00030102736804079
 243    -0.0015236531501498
 244    3.9169177722308e-05
 245    5.2389388337224e-05
 246    4.6694335095494e-06
 247    1.7281052583805e-05
 248    2.1301734956734e-06
 249    7.7268654023836e-05
 250    0.0003399479791028
 251    0.00016290081651261
 252    -0.00022684856175597
 253    0.00082481902911178
 254    0.0006739851269922
 255    4.1072579564398e-05
 256    0.00068736908016924
 257    -0.00045878179997298
 258    0.00029287616320512
 259    -0.0013898326968964
 260    -4.4599686319357e-05
 261    8.8271478538713e-06
 262    -1.348203807824e-05
 263    9.9251934453839e-05
 264    6.9079784870432e-05
 265    -4.5379616276119e-05
 266    8.1705643658673e-05
 267    -0.00052588482986652
 268    -0.00098499592230693
 269    -0.0001092077773451
 270    -0.00035548755249497
 271    0.0038335927556902
 272    8.6673623752959e-05
 273    0.00015521094193469
 274    0.00019770555209653
 275    -0.0016749911975005
 276    -0.0011258150275397
 277    0.0016032197678512
 278    3.7108336887323e-05
 279    -0.00010416798122069
 280    -2.3834420178715e-05
 281    1.9495665363176e-05