[Molden Format]
made by pyscf v[2.0.1]
[Atoms] (AU)
C   1   6     0.69100024066471     0.64692934207205    -3.48223131169301
H   2   1     2.68052439830868     1.13355088658700    -3.25784032593313
C   3   6    -0.36286361513219     0.85440132524594    -5.97030179418974
H   4   1    -2.35448549047279     0.36322488579172    -6.17995817793143
C   5   6     0.93697958957450     1.61209284601821    -8.05828437677121
H   6   1     1.09182490265505     3.62435627880799    -8.46787148771875
C   7   6     2.13423629966321    -0.10744231105711    -9.78050935942977
H   8   1     1.96390963868834    -2.11762116447114    -9.34474333768613
H   9   1     1.55630230933075    -1.92953025305990    12.99630010416247
C   10   6     0.75233899775814    -2.21270439606481    11.10705728102219
H   11   1    -0.43433408177274    -3.90944857546550    11.22216085340412
C   12   6     2.86362581178706    -2.63237380607947     9.17926416456045
H   13   1     4.39038949912609    -1.24955421540245     9.49899813497433
H   14   1     3.74629220191363    -4.48798724300892     9.47414880959024
C   15   6     2.02478325613682    -2.42177285709634     6.44560829588644
C   16   6     3.88048732735477    -3.58795445234514     4.61402886975252
C   17   6    -0.18412382258602    -1.30464291234259     5.76021113872346
C   18   6    -2.10044360464350    -0.26837831858460     7.71610340967100
C   19   6    -3.08956938670431     2.35282328359417     6.88693925039594
C   20   6    -4.37372924086464    -2.09766595989678     7.93610724222001
C   21   6    -0.83850430601230     0.06372213486173    10.33002307638377
H   22   1     0.38411922151109     1.74281358582432    10.27380136542181
H   23   1    -2.30980003007874     0.45460143924521    11.73986301809809
H   24   1     4.58527064644668    -5.38706904487420     5.36778158031719
H   25   1     5.54944938085014    -2.37631462192748     4.35398898413318
H   26   1     3.06633019150423    -3.94118377050688     2.75255466040884
H   27   1    -4.17727778763735     2.26573369139522     5.12914900961283
H   28   1    -1.52662344944051     3.68001877445626     6.59540397144508
H   29   1    -4.32916174397830     3.13643051467482     8.35225460090378
H   30   1    -5.32329548508442    -2.36691813602939     6.11583672749896
H   31   1    -5.77989366602257    -1.33896741843465     9.25748940450990
H   32   1    -3.79310905208926    -3.96389819310853     8.61386170102686
C   33   6    -1.01100794811226    -1.06331657314144     3.11929490449947
C   34   6     0.37686231036534    -0.33275864505552     1.09165013605873
H   35   1    -3.01671213906703    -1.40297922279997     2.77827895090944
C   36   6    -0.64382707979370    -0.11591880174385    -1.42063131251064
H   37   1     2.35569259782137     0.17174499283897     1.33641070251401
H   38   1    -2.63317482980319    -0.60229203511219    -1.66119700387645
C   39   6     3.44427310754987     0.55955226130243   -11.88185544133447
C   40   6     4.59546774580895    -1.33837842065929   -13.51881378425706
H   41   1     3.68484150802705     2.52824088205540   -12.42422090941845
O   42   8     5.79494197127018    -0.87330187518197   -15.43343894779829
H   43   1     4.30216020100717    -3.32855150553013   -12.89162904717628
[GTO]
1 0
 s    6 1.00
             3047.5249  0.0018347001629433
             457.36951    0.01403730124668
             103.94869   0.068842606114048
             29.210155    0.23218442062076
              9.286663    0.46794134155879
              3.163927    0.36231203217765
 s    3 1.00
             7.8682724   -0.11933240861517
             1.8812885   -0.16085421161283
             0.5442493     1.1434564825515
 s    1 1.00
             0.1687144                   1
 p    3 1.00
             7.8682724   0.068999095584993
             1.8812885    0.31642397975315
             0.5442493    0.74430825237435
 p    1 1.00
             0.1687144                   1
 d    1 1.00
                   0.8                   1

2 0
 s    3 1.00
             18.731137    0.03349459952309
             2.8253937    0.23472694665786
             0.6401217    0.81375731841339
 s    1 1.00
             0.1612778                   1

3 0
 s    6 1.00
             3047.5249  0.0018347001629433
             457.36951    0.01403730124668
             103.94869   0.068842606114048
             29.210155    0.23218442062076
              9.286663    0.46794134155879
              3.163927    0.36231203217765
 s    3 1.00
             7.8682724   -0.11933240861517
             1.8812885   -0.16085421161283
             0.5442493     1.1434564825515
 s    1 1.00
             0.1687144                   1
 p    3 1.00
             7.8682724   0.068999095584993
             1.8812885    0.31642397975315
             0.5442493    0.74430825237435
 p    1 1.00
             0.1687144                   1
 d    1 1.00
                   0.8                   1

4 0
 s    3 1.00
             18.731137    0.03349459952309
             2.8253937    0.23472694665786
             0.6401217    0.81375731841339
 s    1 1.00
             0.1612778                   1

5 0
 s    6 1.00
             3047.5249  0.0018347001629433
             457.36951    0.01403730124668
             103.94869   0.068842606114048
             29.210155    0.23218442062076
              9.286663    0.46794134155879
              3.163927    0.36231203217765
 s    3 1.00
             7.8682724   -0.11933240861517
             1.8812885   -0.16085421161283
             0.5442493     1.1434564825515
 s    1 1.00
             0.1687144                   1
 p    3 1.00
             7.8682724   0.068999095584993
             1.8812885    0.31642397975315
             0.5442493    0.74430825237435
 p    1 1.00
             0.1687144                   1
 d    1 1.00
                   0.8                   1

6 0
 s    3 1.00
             18.731137    0.03349459952309
             2.8253937    0.23472694665786
             0.6401217    0.81375731841339
 s    1 1.00
             0.1612778                   1

7 0
 s    6 1.00
             3047.5249  0.0018347001629433
             457.36951    0.01403730124668
             103.94869   0.068842606114048
             29.210155    0.23218442062076
              9.286663    0.46794134155879
              3.163927    0.36231203217765
 s    3 1.00
             7.8682724   -0.11933240861517
             1.8812885   -0.16085421161283
             0.5442493     1.1434564825515
 s    1 1.00
             0.1687144                   1
 p    3 1.00
             7.8682724   0.068999095584993
             1.8812885    0.31642397975315
             0.5442493    0.74430825237435
 p    1 1.00
             0.1687144                   1
 d    1 1.00
                   0.8                   1

8 0
 s    3 1.00
             18.731137    0.03349459952309
             2.8253937    0.23472694665786
             0.6401217    0.81375731841339
 s    1 1.00
             0.1612778                   1

9 0
 s    3 1.00
             18.731137    0.03349459952309
             2.8253937    0.23472694665786
             0.6401217    0.81375731841339
 s    1 1.00
             0.1612778                   1

10 0
 s    6 1.00
             3047.5249  0.0018347001629433
             457.36951    0.01403730124668
             103.94869   0.068842606114048
             29.210155    0.23218442062076
              9.286663    0.46794134155879
              3.163927    0.36231203217765
 s    3 1.00
             7.8682724   -0.11933240861517
             1.8812885   -0.16085421161283
             0.5442493     1.1434564825515
 s    1 1.00
             0.1687144                   1
 p    3 1.00
             7.8682724   0.068999095584993
             1.8812885    0.31642397975315
             0.5442493    0.74430825237435
 p    1 1.00
             0.1687144                   1
 d    1 1.00
                   0.8                   1

11 0
 s    3 1.00
             18.731137    0.03349459952309
             2.8253937    0.23472694665786
             0.6401217    0.81375731841339
 s    1 1.00
             0.1612778                   1

12 0
 s    6 1.00
             3047.5249  0.0018347001629433
             457.36951    0.01403730124668
             103.94869   0.068842606114048
             29.210155    0.23218442062076
              9.286663    0.46794134155879
              3.163927    0.36231203217765
 s    3 1.00
             7.8682724   -0.11933240861517
             1.8812885   -0.16085421161283
             0.5442493     1.1434564825515
 s    1 1.00
             0.1687144                   1
 p    3 1.00
             7.8682724   0.068999095584993
             1.8812885    0.31642397975315
             0.5442493    0.74430825237435
 p    1 1.00
             0.1687144                   1
 d    1 1.00
                   0.8                   1

13 0
 s    3 1.00
             18.731137    0.03349459952309
             2.8253937    0.23472694665786
             0.6401217    0.81375731841339
 s    1 1.00
             0.1612778                   1

14 0
 s    3 1.00
             18.731137    0.03349459952309
             2.8253937    0.23472694665786
             0.6401217    0.81375731841339
 s    1 1.00
             0.1612778                   1

15 0
 s    6 1.00
             3047.5249  0.0018347001629433
             457.36951    0.01403730124668
             103.94869   0.068842606114048
             29.210155    0.23218442062076
              9.286663    0.46794134155879
              3.163927    0.36231203217765
 s    3 1.00
             7.8682724   -0.11933240861517
             1.8812885   -0.16085421161283
             0.5442493     1.1434564825515
 s    1 1.00
             0.1687144                   1
 p    3 1.00
             7.8682724   0.068999095584993
             1.8812885    0.31642397975315
             0.5442493    0.74430825237435
 p    1 1.00
             0.1687144                   1
 d    1 1.00
                   0.8                   1

16 0
 s    6 1.00
             3047.5249  0.0018347001629433
             457.36951    0.01403730124668
             103.94869   0.068842606114048
             29.210155    0.23218442062076
              9.286663    0.46794134155879
              3.163927    0.36231203217765
 s    3 1.00
             7.8682724   -0.11933240861517
             1.8812885   -0.16085421161283
             0.5442493     1.1434564825515
 s    1 1.00
             0.1687144                   1
 p    3 1.00
             7.8682724   0.068999095584993
             1.8812885    0.31642397975315
             0.5442493    0.74430825237435
 p    1 1.00
             0.1687144                   1
 d    1 1.00
                   0.8                   1

17 0
 s    6 1.00
             3047.5249  0.0018347001629433
             457.36951    0.01403730124668
             103.94869   0.068842606114048
             29.210155    0.23218442062076
              9.286663    0.46794134155879
              3.163927    0.36231203217765
 s    3 1.00
             7.8682724   -0.11933240861517
             1.8812885   -0.16085421161283
             0.5442493     1.1434564825515
 s    1 1.00
             0.1687144                   1
 p    3 1.00
             7.8682724   0.068999095584993
             1.8812885    0.31642397975315
             0.5442493    0.74430825237435
 p    1 1.00
             0.1687144                   1
 d    1 1.00
                   0.8                   1

18 0
 s    6 1.00
             3047.5249  0.0018347001629433
             457.36951    0.01403730124668
             103.94869   0.068842606114048
             29.210155    0.23218442062076
              9.286663    0.46794134155879
              3.163927    0.36231203217765
 s    3 1.00
             7.8682724   -0.11933240861517
             1.8812885   -0.16085421161283
             0.5442493     1.1434564825515
 s    1 1.00
             0.1687144                   1
 p    3 1.00
             7.8682724   0.068999095584993
             1.8812885    0.31642397975315
             0.5442493    0.74430825237435
 p    1 1.00
             0.1687144                   1
 d    1 1.00
                   0.8                   1

19 0
 s    6 1.00
             3047.5249  0.0018347001629433
             457.36951    0.01403730124668
             103.94869   0.068842606114048
             29.210155    0.23218442062076
              9.286663    0.46794134155879
              3.163927    0.36231203217765
 s    3 1.00
             7.8682724   -0.11933240861517
             1.8812885   -0.16085421161283
             0.5442493     1.1434564825515
 s    1 1.00
             0.1687144                   1
 p    3 1.00
             7.8682724   0.068999095584993
             1.8812885    0.31642397975315
             0.5442493    0.74430825237435
 p    1 1.00
             0.1687144                   1
 d    1 1.00
                   0.8                   1

20 0
 s    6 1.00
             3047.5249  0.0018347001629433
             457.36951    0.01403730124668
             103.94869   0.068842606114048
             29.210155    0.23218442062076
              9.286663    0.46794134155879
              3.163927    0.36231203217765
 s    3 1.00
             7.8682724   -0.11933240861517
             1.8812885   -0.16085421161283
             0.5442493     1.1434564825515
 s    1 1.00
             0.1687144                   1
 p    3 1.00
             7.8682724   0.068999095584993
             1.8812885    0.31642397975315
             0.5442493    0.74430825237435
 p    1 1.00
             0.1687144                   1
 d    1 1.00
                   0.8                   1

21 0
 s    6 1.00
             3047.5249  0.0018347001629433
             457.36951    0.01403730124668
             103.94869   0.068842606114048
             29.210155    0.23218442062076
              9.286663    0.46794134155879
              3.163927    0.36231203217765
 s    3 1.00
             7.8682724   -0.11933240861517
             1.8812885   -0.16085421161283
             0.5442493     1.1434564825515
 s    1 1.00
             0.1687144                   1
 p    3 1.00
             7.8682724   0.068999095584993
             1.8812885    0.31642397975315
             0.5442493    0.74430825237435
 p    1 1.00
             0.1687144                   1
 d    1 1.00
                   0.8                   1

22 0
 s    3 1.00
             18.731137    0.03349459952309
             2.8253937    0.23472694665786
             0.6401217    0.81375731841339
 s    1 1.00
             0.1612778                   1

23 0
 s    3 1.00
             18.731137    0.03349459952309
             2.8253937    0.23472694665786
             0.6401217    0.81375731841339
 s    1 1.00
             0.1612778                   1

24 0
 s    3 1.00
             18.731137    0.03349459952309
             2.8253937    0.23472694665786
             0.6401217    0.81375731841339
 s    1 1.00
             0.1612778                   1

25 0
 s    3 1.00
             18.731137    0.03349459952309
             2.8253937    0.23472694665786
             0.6401217    0.81375731841339
 s    1 1.00
             0.1612778                   1

26 0
 s    3 1.00
             18.731137    0.03349459952309
             2.8253937    0.23472694665786
             0.6401217    0.81375731841339
 s    1 1.00
             0.1612778                   1

27 0
 s    3 1.00
             18.731137    0.03349459952309
             2.8253937    0.23472694665786
             0.6401217    0.81375731841339
 s    1 1.00
             0.1612778                   1

28 0
 s    3 1.00
             18.731137    0.03349459952309
             2.8253937    0.23472694665786
             0.6401217    0.81375731841339
 s    1 1.00
             0.1612778                   1

29 0
 s    3 1.00
             18.731137    0.03349459952309
             2.8253937    0.23472694665786
             0.6401217    0.81375731841339
 s    1 1.00
             0.1612778                   1

30 0
 s    3 1.00
             18.731137    0.03349459952309
             2.8253937    0.23472694665786
             0.6401217    0.81375731841339
 s    1 1.00
             0.1612778                   1

31 0
 s    3 1.00
             18.731137    0.03349459952309
             2.8253937    0.23472694665786
             0.6401217    0.81375731841339
 s    1 1.00
             0.1612778                   1

32 0
 s    3 1.00
             18.731137    0.03349459952309
             2.8253937    0.23472694665786
             0.6401217    0.81375731841339
 s    1 1.00
             0.1612778                   1

33 0
 s    6 1.00
             3047.5249  0.0018347001629433
             457.36951    0.01403730124668
             103.94869   0.068842606114048
             29.210155    0.23218442062076
              9.286663    0.46794134155879
              3.163927    0.36231203217765
 s    3 1.00
             7.8682724   -0.11933240861517
             1.8812885   -0.16085421161283
             0.5442493     1.1434564825515
 s    1 1.00
             0.1687144                   1
 p    3 1.00
             7.8682724   0.068999095584993
             1.8812885    0.31642397975315
             0.5442493    0.74430825237435
 p    1 1.00
             0.1687144                   1
 d    1 1.00
                   0.8                   1

34 0
 s    6 1.00
             3047.5249  0.0018347001629433
             457.36951    0.01403730124668
             103.94869   0.068842606114048
             29.210155    0.23218442062076
              9.286663    0.46794134155879
              3.163927    0.36231203217765
 s    3 1.00
             7.8682724   -0.11933240861517
             1.8812885   -0.16085421161283
             0.5442493     1.1434564825515
 s    1 1.00
             0.1687144                   1
 p    3 1.00
             7.8682724   0.068999095584993
             1.8812885    0.31642397975315
             0.5442493    0.74430825237435
 p    1 1.00
             0.1687144                   1
 d    1 1.00
                   0.8                   1

35 0
 s    3 1.00
             18.731137    0.03349459952309
             2.8253937    0.23472694665786
             0.6401217    0.81375731841339
 s    1 1.00
             0.1612778                   1

36 0
 s    6 1.00
             3047.5249  0.0018347001629433
             457.36951    0.01403730124668
             103.94869   0.068842606114048
             29.210155    0.23218442062076
              9.286663    0.46794134155879
              3.163927    0.36231203217765
 s    3 1.00
             7.8682724   -0.11933240861517
             1.8812885   -0.16085421161283
             0.5442493     1.1434564825515
 s    1 1.00
             0.1687144                   1
 p    3 1.00
             7.8682724   0.068999095584993
             1.8812885    0.31642397975315
             0.5442493    0.74430825237435
 p    1 1.00
             0.1687144                   1
 d    1 1.00
                   0.8                   1

37 0
 s    3 1.00
             18.731137    0.03349459952309
             2.8253937    0.23472694665786
             0.6401217    0.81375731841339
 s    1 1.00
             0.1612778                   1

38 0
 s    3 1.00
             18.731137    0.03349459952309
             2.8253937    0.23472694665786
             0.6401217    0.81375731841339
 s    1 1.00
             0.1612778                   1

39 0
 s    6 1.00
             3047.5249  0.0018347001629433
             457.36951    0.01403730124668
             103.94869   0.068842606114048
             29.210155    0.23218442062076
              9.286663    0.46794134155879
              3.163927    0.36231203217765
 s    3 1.00
             7.8682724   -0.11933240861517
             1.8812885   -0.16085421161283
             0.5442493     1.1434564825515
 s    1 1.00
             0.1687144                   1
 p    3 1.00
             7.8682724   0.068999095584993
             1.8812885    0.31642397975315
             0.5442493    0.74430825237435
 p    1 1.00
             0.1687144                   1
 d    1 1.00
                   0.8                   1

40 0
 s    6 1.00
             3047.5249  0.0018347001629433
             457.36951    0.01403730124668
             103.94869   0.068842606114048
             29.210155    0.23218442062076
              9.286663    0.46794134155879
              3.163927    0.36231203217765
 s    3 1.00
             7.8682724   -0.11933240861517
             1.8812885   -0.16085421161283
             0.5442493     1.1434564825515
 s    1 1.00
             0.1687144                   1
 p    3 1.00
             7.8682724   0.068999095584993
             1.8812885    0.31642397975315
             0.5442493    0.74430825237435
 p    1 1.00
             0.1687144                   1
 d    1 1.00
                   0.8                   1

41 0
 s    3 1.00
             18.731137    0.03349459952309
             2.8253937    0.23472694665786
             0.6401217    0.81375731841339
 s    1 1.00
             0.1612778                   1

42 0
 s    6 1.00
             5484.6717   0.001831099805527
             825.23495   0.013950098518422
             188.04696    0.06844509273075
               52.9645    0.23271427528445
              16.89757    0.47019295006289
             5.7996353    0.35852086192309
 s    3 1.00
             15.539616   -0.11077750382508
             3.5999336   -0.14802630511126
             1.0137618     1.1307670390447
 s    1 1.00
             0.2700058                   1
 p    3 1.00
             15.539616   0.070874299543311
             3.5999336    0.33975279781076
             1.0137618    0.72715859531445
 p    1 1.00
             0.2700058                   1
 d    1 1.00
                   0.8                   1

43 0
 s    3 1.00
             18.731137    0.03349459952309
             2.8253937    0.23472694665786
             0.6401217    0.81375731841339
 s    1 1.00
             0.1612778                   1

[5d]
[7f]
[9g]

[MO]
 Sym= A
 Ene=               0
 Spin= Alpha
 Occup=    1.00000
   1     0.018260112346028
   2    -0.00092973728353115
   3    0.0069416861640905
   4    0.00040712040294657
   5    -0.00011741161360453
   6    0.0011966089048321
   7    0.00081904634965854
   8    0.0011850028899777
   9    -0.0053730347000084
  10    -0.0008727025652903
  11    -0.0008467982946195
  12    0.00014165016863014
  13    -0.00021534410789321
  14    3.0919670448578e-05
  15    -0.0005257469787827
  16    -0.00097156602702789
  17      0.99488069576776
  18     0.036858378649235
  19    -0.028272001827171
  20    0.00092607698709908
  21    0.00015863829859393
  22    -0.00053980178022662
  23    -0.0034727937770843
  24    -0.0010249886461988
  25    -0.000799209551878
  26    0.00077210241557085
  27    -0.00029445848655953
  28    -0.00034347840063552
  29    0.00029938737474355
  30    0.00019570031314393
  31    -0.0011120953488335
  32    0.0038640911299437
  33     0.013305513488881
  34    -0.00025935040046822
  35    0.00084879022947009
  36    0.00083130770227858
  37    0.00032518533562958
  38    -0.0011232051754346
  39    -0.0021688072780447
  40    0.0035433885822605
  41    0.0041456576382683
  42    -0.00060980237038701
  43     0.001169085034035
  44    0.00044632598721151
  45    -0.00033308744317039
  46    -0.00038718202469547
  47    -0.000548278225584
  48    -0.00060238046059624
  49    8.821927370315e-05
  50    -0.00053663713810071
  51    0.00039084974385103
  52    0.00023000837403123
  53    3.9250991651348e-05
  54    -0.00040968606929296
  55    -0.0045789470285475
  56    0.0011666202317663
  57    0.0070505304605201
  58    -0.00014113905253849
  59    -1.3301604168552e-05
  60    0.00017149839633646
  61    -0.00024773804642701
  62    -0.00015947131062327
  63    -0.00046016168276963
  64    0.00029736183999289
  65    -2.3991835169747e-06
  66    -2.0920467172956e-06
  67    -4.0804553988108e-07
  68    -2.1369934312125e-06
  69    6.7786904269506e-06
  70    -4.8750005688133e-06
  71    1.4777711412858e-06
  72    2.4327164763255e-06
  73    8.3365226819128e-06
  74    3.1098168274029e-05
  75    7.9171208077024e-06
  76    -4.4387696012259e-07
  77    1.7131296045105e-07
  78    -4.9188408083805e-08
  79    7.9004608781769e-07
  80    3.2427153931105e-08
  81    2.5785504826706e-06
  82    1.4967526289488e-05
  83    2.6703878175431e-06
  84    -1.0075501830284e-06
  85    -7.3133593739648e-05
  86    1.9486419648489e-05
  87    3.9232357975169e-06
  88    1.6846112065656e-05
  89    3.2772030101168e-05
  90    -6.546638874431e-05
  91    1.5623764446234e-05
  92    1.7317454736944e-07
  93    -1.5126120160084e-06
  94    4.0782194990336e-06
  95    -5.9908403786155e-07
  96    -5.8582880484391e-07
  97    1.7558355324824e-05
  98    2.5058207714956e-05
  99    6.4165876573869e-07
 100    -1.5363697311822e-05
 101    -1.4118507557013e-05
 102    8.2017083668885e-06
 103    0.00028695745575938
 104    -5.0287200639177e-05
 105    -8.8266079926725e-06
 106    -2.7152605698219e-05
 107    -0.00020262495397648
 108    0.00017518400481587
 109    0.00011366130964439
 110    -6.2820738190568e-06
 111    1.3608470717573e-06
 112    -6.7660014432747e-08
 113    2.6455995053386e-06
 114    -5.1077693088921e-06
 115    -5.2096365935627e-06
 116    -2.5812218283771e-05
 117    0.0002353924990322
 118    -1.9185316744035e-06
 119    7.1304599175656e-06
 120    -1.6246106780166e-05
 121    -3.9018894495134e-05
 122    -7.5988680799056e-06
 123    5.3700259345412e-06
 124    1.249593751749e-06
 125    -3.2006118444055e-06
 126    -1.8108110388704e-06
 127    1.8952584337428e-06
 128    -1.0008247616934e-06
 129    -1.6190191670907e-05
 130    -2.1832395879242e-05
 131    0.00017227404052886
 132    2.2567552304146e-05
 133    -4.3089587879028e-05
 134    -9.0487287974528e-06
 135    -0.00036886435660099
 136    2.7537953982686e-05
 137    -0.0003913486238696
 138    5.1784909930864e-06
 139    2.0052888350554e-05
 140    4.0685292922983e-06
 141    4.996255835225e-06
 142    4.3864048744101e-06
 143    6.1413149184727e-06
 144    -3.7151614502478e-05
 145    -3.1391168326391e-05
 146    -1.9813585529862e-05
 147    2.8201261539119e-05
 148    4.7193205397112e-05
 149    -1.6911541597825e-05
 150    2.1290448817283e-05
 151    -4.3457410249379e-05
 152    -5.8945853375066e-06
 153    -2.649011787245e-06
 154    -3.4044968586716e-06
 155    3.1581548631822e-06
 156    -3.9370057060738e-06
 157    2.3295644121554e-06
 158    1.1327719610025e-05
 159    -4.5841030988713e-05
 160    1.5520643510726e-05
 161    -6.2936210972943e-06
 162    1.5748644354513e-05
 163    -3.6577952521622e-05
 164    1.8808214848876e-05
 165    1.8773812861385e-05
 166    4.7916549090817e-06
 167    -1.2303789501421e-06
 168    -5.6546982520254e-07
 169    4.4707438428891e-07
 170    2.3407288167559e-06
 171    1.5091171962423e-06
 172    -1.4143718710409e-05
 173    1.2545408636607e-05
 174    -3.2008934644456e-06
 175    -1.367426368687e-06
 176    2.9664416198413e-05
 177    3.9370531652484e-06
 178    -1.0427843699696e-06
 179    -1.2875814270494e-05
 180    1.274089595061e-06
 181    4.6035354062271e-06
 182    1.050106526054e-06
 183    -2.1541763212227e-06
 184    1.2154771146055e-06
 185    -5.6089698053832e-06
 186    -2.5170518086912e-05
 187    0.00010271587386502
 188    -2.1185277315812e-06
 189    -7.0331562844779e-06
 190    -1.2789954918389e-05
 191    -6.7462176465857e-06
 192    -1.9267127434765e-05
 193    -8.6822320090897e-05
 194    2.7067366372394e-06
 195    3.5568877734528e-06
 196    1.7374009653379e-06
 197    -3.5539069365418e-07
 198    4.6989104019151e-07
 199    -8.3256961008001e-06
 200    -2.7555014221885e-07
 201    -1.4123619076947e-05
 202    6.374698032568e-07
 203    -1.9324033493719e-05
 204    -2.5685546065863e-05
 205    8.3190236276698e-06
 206    -1.487251965318e-05
 207    1.5559156335317e-05
 208    -7.9331843639672e-05
 209    1.847449457386e-06
 210    -2.3698635371513e-05
 211    6.5976323635126e-06
 212    1.9674347504723e-05
 213    4.2669308501781e-07
 214    -1.9879700380676e-05
 215    -1.1088876613332e-05
 216    -2.4091067504651e-05
 217    5.2757517263561e-06
 218    8.1305674867797e-06
 219    5.8156611891737e-06
 220    5.816050365537e-06
 221    1.1966508522139e-05
 222    -5.6764941269976e-05
 223    0.00089472806133275
 224    -0.00021512074816599
 225    3.5671137694692e-05
 226    6.9434035033619e-05
 227    0.00053713993534412
 228    0.00033555306888928
 229    -0.00086552198714094
 230    6.989505035488e-06
 231    -3.5733361792936e-05
 232    -2.7376686095199e-05
 233    2.1096305295538e-05
 234    2.2311120914386e-05
 235    -0.00020943079408976
 236    0.00028633177025241
 237    9.7745931528963e-05
 238    -0.00012614762513839
 239    0.00017707054858446
 240    -0.00047395805363451
 241    0.00025379055331204
 242    0.00042701203451583
 243    -0.0016552483292477
 244    2.4128560073217e-05
 245    6.8539036505546e-05
 246    1.1129315147358e-05
 247    2.1682888311892e-05
 248    -2.5064283549323e-06
 249    6.2812959782221e-05
 250    0.0003394029538604
 251    0.00015335405270741
 252    -0.00030781678554369
 253     0.001970760226522
 254    0.00065734234938177
 255    6.6791315190509e-05
 256    0.00068607511406509
 257    0.00010839778134357
 258    0.00043044623365224
 259    -0.0015680512303623
 260    -3.0124806229816e-05
 261    -9.1282697158279e-06
 262    -1.7611002514379e-05
 263    0.00011639788369976
 264    7.3266986892016e-05
 265    -6.4044175546532e-05
 266    0.00011482016077375
 267    -0.00051351075984827
 268    -0.00085156155253136
 269    -0.00012651541836082
 270    -0.00057342773645494
 271    0.0063581697568025
 272    -0.0001110188510234
 273    0.00027268994864395
 274    0.00021394900412325
 275    -0.0016025014984277
 276    -0.0026265789117473
 277    0.0025901497272409
 278    7.2592188922446e-05
 279    -0.00017078793070507
 280    -8.9981329104544e-05