[Molden Format]
made by pyscf v[2.0.1]
[Atoms] (AU)
C   1   6     0.69100024069495     0.64692934212497    -3.48223131168734
H   2   1     2.68052439835215     1.13355088667581    -3.25784032595959
C   3   6    -0.36286361514353     0.85440132525350    -5.97030179416329
H   4   1    -2.35448549056350     0.36322488588432    -6.17995817799568
C   5   6     0.93697958950647     1.61209284601065    -8.05828437675987
H   6   1     2.92721069186250     2.10853558287052    -7.87534295441726
C   7   6    -0.17413039189613     1.80008207487984   -10.52534301739428
H   8   1    -2.16943049770440     1.29533627648343   -10.67939296478009
H   9   1     1.55630230933264    -1.92953025311848    12.99630010417381
C   10   6     0.75233899783373    -2.21270439606859    11.10705728099195
H   11   1    -0.43433408176896    -3.90944857543337    11.22216085348160
C   12   6     2.86362581169447    -2.63237380608325     9.17926416459635
H   13   1     4.39038949906562    -1.24955421532309     9.49899813488174
H   14   1     3.74629220184371    -4.48798724298246     9.47414880962803
C   15   6     2.02478325622942    -2.42177285713224     6.44560829586187
C   16   6     3.88048732732831    -3.58795445236593     4.61402886975252
C   17   6    -0.18412382264649    -1.30464291231236     5.76021113881606
C   18   6    -2.10044360460382    -0.26837831862807     7.71610340970501
C   19   6    -3.08956938678556     2.35282328352614     6.88693925042618
C   20   6    -4.37372924094212    -2.09766595985142     7.93610724215954
C   21   6    -0.83850430593104     0.06372213486551    10.33002307643668
H   22   1     0.38411922142983     1.74281358590180    10.27380136539346
H   23   1    -2.30980003011276     0.45460143923765    11.73986301804329
H   24   1     4.58527064636731    -5.38706904479673     5.36778158023404
H   25   1     5.54944938091628    -2.37631462201630     4.35398898404058
H   26   1     3.06633019144754    -3.94118377051822     2.75255466032570
H   27   1    -4.17727778763546     2.26573369145191     5.12914900957504
H   28   1    -1.52662344935358     3.68001877441469     6.59540397151878
H   29   1    -4.32916174393862     3.13643051473529     8.35225460094913
H   30   1    -5.32329548507875    -2.36691813603695     6.11583672741581
H   31   1    -5.77989366598289    -1.33896741838552     9.25748940451935
H   32   1    -3.79310905209871    -3.96389819308585     8.61386170106276
C   33   6    -1.01100794815762    -1.06331657313199     3.11929490450892
C   34   6     0.37686231029920    -0.33275864510088     1.09165013596992
H   35   1    -3.01671213911428    -1.40297922289257     2.77827895090755
C   36   6    -0.64382707979748    -0.11591880174763    -1.42063131255788
H   37   1     2.35569259790262     0.17174499287298     1.33641070253857
H   38   1    -2.63317482972383    -0.60229203504227    -1.66119700396716
C   39   6     1.04406642127022     2.54697835791677   -12.65486785204246
C   40   6    -0.25769856063703     2.67711278008941   -15.08293200861523
H   41   1     3.03094671002655     3.07573165426063   -12.63261900496242
O   42   8     0.71886931482866     3.33224024015006   -17.06735820381613
H   43   1    -2.28855418566595     2.11893682007881   -15.01778643592878
[GTO]
1 0
 s    6 1.00
             3047.5249  0.0018347001629433
             457.36951    0.01403730124668
             103.94869   0.068842606114048
             29.210155    0.23218442062076
              9.286663    0.46794134155879
              3.163927    0.36231203217765
 s    3 1.00
             7.8682724   -0.11933240861517
             1.8812885   -0.16085421161283
             0.5442493     1.1434564825515
 s    1 1.00
             0.1687144                   1
 p    3 1.00
             7.8682724   0.068999095584993
             1.8812885    0.31642397975315
             0.5442493    0.74430825237435
 p    1 1.00
             0.1687144                   1
 d    1 1.00
                   0.8                   1

2 0
 s    3 1.00
             18.731137    0.03349459952309
             2.8253937    0.23472694665786
             0.6401217    0.81375731841339
 s    1 1.00
             0.1612778                   1

3 0
 s    6 1.00
             3047.5249  0.0018347001629433
             457.36951    0.01403730124668
             103.94869   0.068842606114048
             29.210155    0.23218442062076
              9.286663    0.46794134155879
              3.163927    0.36231203217765
 s    3 1.00
             7.8682724   -0.11933240861517
             1.8812885   -0.16085421161283
             0.5442493     1.1434564825515
 s    1 1.00
             0.1687144                   1
 p    3 1.00
             7.8682724   0.068999095584993
             1.8812885    0.31642397975315
             0.5442493    0.74430825237435
 p    1 1.00
             0.1687144                   1
 d    1 1.00
                   0.8                   1

4 0
 s    3 1.00
             18.731137    0.03349459952309
             2.8253937    0.23472694665786
             0.6401217    0.81375731841339
 s    1 1.00
             0.1612778                   1

5 0
 s    6 1.00
             3047.5249  0.0018347001629433
             457.36951    0.01403730124668
             103.94869   0.068842606114048
             29.210155    0.23218442062076
              9.286663    0.46794134155879
              3.163927    0.36231203217765
 s    3 1.00
             7.8682724   -0.11933240861517
             1.8812885   -0.16085421161283
             0.5442493     1.1434564825515
 s    1 1.00
             0.1687144                   1
 p    3 1.00
             7.8682724   0.068999095584993
             1.8812885    0.31642397975315
             0.5442493    0.74430825237435
 p    1 1.00
             0.1687144                   1
 d    1 1.00
                   0.8                   1

6 0
 s    3 1.00
             18.731137    0.03349459952309
             2.8253937    0.23472694665786
             0.6401217    0.81375731841339
 s    1 1.00
             0.1612778                   1

7 0
 s    6 1.00
             3047.5249  0.0018347001629433
             457.36951    0.01403730124668
             103.94869   0.068842606114048
             29.210155    0.23218442062076
              9.286663    0.46794134155879
              3.163927    0.36231203217765
 s    3 1.00
             7.8682724   -0.11933240861517
             1.8812885   -0.16085421161283
             0.5442493     1.1434564825515
 s    1 1.00
             0.1687144                   1
 p    3 1.00
             7.8682724   0.068999095584993
             1.8812885    0.31642397975315
             0.5442493    0.74430825237435
 p    1 1.00
             0.1687144                   1
 d    1 1.00
                   0.8                   1

8 0
 s    3 1.00
             18.731137    0.03349459952309
             2.8253937    0.23472694665786
             0.6401217    0.81375731841339
 s    1 1.00
             0.1612778                   1

9 0
 s    3 1.00
             18.731137    0.03349459952309
             2.8253937    0.23472694665786
             0.6401217    0.81375731841339
 s    1 1.00
             0.1612778                   1

10 0
 s    6 1.00
             3047.5249  0.0018347001629433
             457.36951    0.01403730124668
             103.94869   0.068842606114048
             29.210155    0.23218442062076
              9.286663    0.46794134155879
              3.163927    0.36231203217765
 s    3 1.00
             7.8682724   -0.11933240861517
             1.8812885   -0.16085421161283
             0.5442493     1.1434564825515
 s    1 1.00
             0.1687144                   1
 p    3 1.00
             7.8682724   0.068999095584993
             1.8812885    0.31642397975315
             0.5442493    0.74430825237435
 p    1 1.00
             0.1687144                   1
 d    1 1.00
                   0.8                   1

11 0
 s    3 1.00
             18.731137    0.03349459952309
             2.8253937    0.23472694665786
             0.6401217    0.81375731841339
 s    1 1.00
             0.1612778                   1

12 0
 s    6 1.00
             3047.5249  0.0018347001629433
             457.36951    0.01403730124668
             103.94869   0.068842606114048
             29.210155    0.23218442062076
              9.286663    0.46794134155879
              3.163927    0.36231203217765
 s    3 1.00
             7.8682724   -0.11933240861517
             1.8812885   -0.16085421161283
             0.5442493     1.1434564825515
 s    1 1.00
             0.1687144                   1
 p    3 1.00
             7.8682724   0.068999095584993
             1.8812885    0.31642397975315
             0.5442493    0.74430825237435
 p    1 1.00
             0.1687144                   1
 d    1 1.00
                   0.8                   1

13 0
 s    3 1.00
             18.731137    0.03349459952309
             2.8253937    0.23472694665786
             0.6401217    0.81375731841339
 s    1 1.00
             0.1612778                   1

14 0
 s    3 1.00
             18.731137    0.03349459952309
             2.8253937    0.23472694665786
             0.6401217    0.81375731841339
 s    1 1.00
             0.1612778                   1

15 0
 s    6 1.00
             3047.5249  0.0018347001629433
             457.36951    0.01403730124668
             103.94869   0.068842606114048
             29.210155    0.23218442062076
              9.286663    0.46794134155879
              3.163927    0.36231203217765
 s    3 1.00
             7.8682724   -0.11933240861517
             1.8812885   -0.16085421161283
             0.5442493     1.1434564825515
 s    1 1.00
             0.1687144                   1
 p    3 1.00
             7.8682724   0.068999095584993
             1.8812885    0.31642397975315
             0.5442493    0.74430825237435
 p    1 1.00
             0.1687144                   1
 d    1 1.00
                   0.8                   1

16 0
 s    6 1.00
             3047.5249  0.0018347001629433
             457.36951    0.01403730124668
             103.94869   0.068842606114048
             29.210155    0.23218442062076
              9.286663    0.46794134155879
              3.163927    0.36231203217765
 s    3 1.00
             7.8682724   -0.11933240861517
             1.8812885   -0.16085421161283
             0.5442493     1.1434564825515
 s    1 1.00
             0.1687144                   1
 p    3 1.00
             7.8682724   0.068999095584993
             1.8812885    0.31642397975315
             0.5442493    0.74430825237435
 p    1 1.00
             0.1687144                   1
 d    1 1.00
                   0.8                   1

17 0
 s    6 1.00
             3047.5249  0.0018347001629433
             457.36951    0.01403730124668
             103.94869   0.068842606114048
             29.210155    0.23218442062076
              9.286663    0.46794134155879
              3.163927    0.36231203217765
 s    3 1.00
             7.8682724   -0.11933240861517
             1.8812885   -0.16085421161283
             0.5442493     1.1434564825515
 s    1 1.00
             0.1687144                   1
 p    3 1.00
             7.8682724   0.068999095584993
             1.8812885    0.31642397975315
             0.5442493    0.74430825237435
 p    1 1.00
             0.1687144                   1
 d    1 1.00
                   0.8                   1

18 0
 s    6 1.00
             3047.5249  0.0018347001629433
             457.36951    0.01403730124668
             103.94869   0.068842606114048
             29.210155    0.23218442062076
              9.286663    0.46794134155879
              3.163927    0.36231203217765
 s    3 1.00
             7.8682724   -0.11933240861517
             1.8812885   -0.16085421161283
             0.5442493     1.1434564825515
 s    1 1.00
             0.1687144                   1
 p    3 1.00
             7.8682724   0.068999095584993
             1.8812885    0.31642397975315
             0.5442493    0.74430825237435
 p    1 1.00
             0.1687144                   1
 d    1 1.00
                   0.8                   1

19 0
 s    6 1.00
             3047.5249  0.0018347001629433
             457.36951    0.01403730124668
             103.94869   0.068842606114048
             29.210155    0.23218442062076
              9.286663    0.46794134155879
              3.163927    0.36231203217765
 s    3 1.00
             7.8682724   -0.11933240861517
             1.8812885   -0.16085421161283
             0.5442493     1.1434564825515
 s    1 1.00
             0.1687144                   1
 p    3 1.00
             7.8682724   0.068999095584993
             1.8812885    0.31642397975315
             0.5442493    0.74430825237435
 p    1 1.00
             0.1687144                   1
 d    1 1.00
                   0.8                   1

20 0
 s    6 1.00
             3047.5249  0.0018347001629433
             457.36951    0.01403730124668
             103.94869   0.068842606114048
             29.210155    0.23218442062076
              9.286663    0.46794134155879
              3.163927    0.36231203217765
 s    3 1.00
             7.8682724   -0.11933240861517
             1.8812885   -0.16085421161283
             0.5442493     1.1434564825515
 s    1 1.00
             0.1687144                   1
 p    3 1.00
             7.8682724   0.068999095584993
             1.8812885    0.31642397975315
             0.5442493    0.74430825237435
 p    1 1.00
             0.1687144                   1
 d    1 1.00
                   0.8                   1

21 0
 s    6 1.00
             3047.5249  0.0018347001629433
             457.36951    0.01403730124668
             103.94869   0.068842606114048
             29.210155    0.23218442062076
              9.286663    0.46794134155879
              3.163927    0.36231203217765
 s    3 1.00
             7.8682724   -0.11933240861517
             1.8812885   -0.16085421161283
             0.5442493     1.1434564825515
 s    1 1.00
             0.1687144                   1
 p    3 1.00
             7.8682724   0.068999095584993
             1.8812885    0.31642397975315
             0.5442493    0.74430825237435
 p    1 1.00
             0.1687144                   1
 d    1 1.00
                   0.8                   1

22 0
 s    3 1.00
             18.731137    0.03349459952309
             2.8253937    0.23472694665786
             0.6401217    0.81375731841339
 s    1 1.00
             0.1612778                   1

23 0
 s    3 1.00
             18.731137    0.03349459952309
             2.8253937    0.23472694665786
             0.6401217    0.81375731841339
 s    1 1.00
             0.1612778                   1

24 0
 s    3 1.00
             18.731137    0.03349459952309
             2.8253937    0.23472694665786
             0.6401217    0.81375731841339
 s    1 1.00
             0.1612778                   1

25 0
 s    3 1.00
             18.731137    0.03349459952309
             2.8253937    0.23472694665786
             0.6401217    0.81375731841339
 s    1 1.00
             0.1612778                   1

26 0
 s    3 1.00
             18.731137    0.03349459952309
             2.8253937    0.23472694665786
             0.6401217    0.81375731841339
 s    1 1.00
             0.1612778                   1

27 0
 s    3 1.00
             18.731137    0.03349459952309
             2.8253937    0.23472694665786
             0.6401217    0.81375731841339
 s    1 1.00
             0.1612778                   1

28 0
 s    3 1.00
             18.731137    0.03349459952309
             2.8253937    0.23472694665786
             0.6401217    0.81375731841339
 s    1 1.00
             0.1612778                   1

29 0
 s    3 1.00
             18.731137    0.03349459952309
             2.8253937    0.23472694665786
             0.6401217    0.81375731841339
 s    1 1.00
             0.1612778                   1

30 0
 s    3 1.00
             18.731137    0.03349459952309
             2.8253937    0.23472694665786
             0.6401217    0.81375731841339
 s    1 1.00
             0.1612778                   1

31 0
 s    3 1.00
             18.731137    0.03349459952309
             2.8253937    0.23472694665786
             0.6401217    0.81375731841339
 s    1 1.00
             0.1612778                   1

32 0
 s    3 1.00
             18.731137    0.03349459952309
             2.8253937    0.23472694665786
             0.6401217    0.81375731841339
 s    1 1.00
             0.1612778                   1

33 0
 s    6 1.00
             3047.5249  0.0018347001629433
             457.36951    0.01403730124668
             103.94869   0.068842606114048
             29.210155    0.23218442062076
              9.286663    0.46794134155879
              3.163927    0.36231203217765
 s    3 1.00
             7.8682724   -0.11933240861517
             1.8812885   -0.16085421161283
             0.5442493     1.1434564825515
 s    1 1.00
             0.1687144                   1
 p    3 1.00
             7.8682724   0.068999095584993
             1.8812885    0.31642397975315
             0.5442493    0.74430825237435
 p    1 1.00
             0.1687144                   1
 d    1 1.00
                   0.8                   1

34 0
 s    6 1.00
             3047.5249  0.0018347001629433
             457.36951    0.01403730124668
             103.94869   0.068842606114048
             29.210155    0.23218442062076
              9.286663    0.46794134155879
              3.163927    0.36231203217765
 s    3 1.00
             7.8682724   -0.11933240861517
             1.8812885   -0.16085421161283
             0.5442493     1.1434564825515
 s    1 1.00
             0.1687144                   1
 p    3 1.00
             7.8682724   0.068999095584993
             1.8812885    0.31642397975315
             0.5442493    0.74430825237435
 p    1 1.00
             0.1687144                   1
 d    1 1.00
                   0.8                   1

35 0
 s    3 1.00
             18.731137    0.03349459952309
             2.8253937    0.23472694665786
             0.6401217    0.81375731841339
 s    1 1.00
             0.1612778                   1

36 0
 s    6 1.00
             3047.5249  0.0018347001629433
             457.36951    0.01403730124668
             103.94869   0.068842606114048
             29.210155    0.23218442062076
              9.286663    0.46794134155879
              3.163927    0.36231203217765
 s    3 1.00
             7.8682724   -0.11933240861517
             1.8812885   -0.16085421161283
             0.5442493     1.1434564825515
 s    1 1.00
             0.1687144                   1
 p    3 1.00
             7.8682724   0.068999095584993
             1.8812885    0.31642397975315
             0.5442493    0.74430825237435
 p    1 1.00
             0.1687144                   1
 d    1 1.00
                   0.8                   1

37 0
 s    3 1.00
             18.731137    0.03349459952309
             2.8253937    0.23472694665786
             0.6401217    0.81375731841339
 s    1 1.00
             0.1612778                   1

38 0
 s    3 1.00
             18.731137    0.03349459952309
             2.8253937    0.23472694665786
             0.6401217    0.81375731841339
 s    1 1.00
             0.1612778                   1

39 0
 s    6 1.00
             3047.5249  0.0018347001629433
             457.36951    0.01403730124668
             103.94869   0.068842606114048
             29.210155    0.23218442062076
              9.286663    0.46794134155879
              3.163927    0.36231203217765
 s    3 1.00
             7.8682724   -0.11933240861517
             1.8812885   -0.16085421161283
             0.5442493     1.1434564825515
 s    1 1.00
             0.1687144                   1
 p    3 1.00
             7.8682724   0.068999095584993
             1.8812885    0.31642397975315
             0.5442493    0.74430825237435
 p    1 1.00
             0.1687144                   1
 d    1 1.00
                   0.8                   1

40 0
 s    6 1.00
             3047.5249  0.0018347001629433
             457.36951    0.01403730124668
             103.94869   0.068842606114048
             29.210155    0.23218442062076
              9.286663    0.46794134155879
              3.163927    0.36231203217765
 s    3 1.00
             7.8682724   -0.11933240861517
             1.8812885   -0.16085421161283
             0.5442493     1.1434564825515
 s    1 1.00
             0.1687144                   1
 p    3 1.00
             7.8682724   0.068999095584993
             1.8812885    0.31642397975315
             0.5442493    0.74430825237435
 p    1 1.00
             0.1687144                   1
 d    1 1.00
                   0.8                   1

41 0
 s    3 1.00
             18.731137    0.03349459952309
             2.8253937    0.23472694665786
             0.6401217    0.81375731841339
 s    1 1.00
             0.1612778                   1

42 0
 s    6 1.00
             5484.6717   0.001831099805527
             825.23495   0.013950098518422
             188.04696    0.06844509273075
               52.9645    0.23271427528445
              16.89757    0.47019295006289
             5.7996353    0.35852086192309
 s    3 1.00
             15.539616   -0.11077750382508
             3.5999336   -0.14802630511126
             1.0137618     1.1307670390447
 s    1 1.00
             0.2700058                   1
 p    3 1.00
             15.539616   0.070874299543311
             3.5999336    0.33975279781076
             1.0137618    0.72715859531445
 p    1 1.00
             0.2700058                   1
 d    1 1.00
                   0.8                   1

43 0
 s    3 1.00
             18.731137    0.03349459952309
             2.8253937    0.23472694665786
             0.6401217    0.81375731841339
 s    1 1.00
             0.1612778                   1

[5d]
[7f]
[9g]

[MO]
 Sym= A
 Ene=               0
 Spin= Alpha
 Occup=    1.00000
   1    0.0021455367083889
   2    1.0177323463849e-06
   3    0.0004525371221231
   4    -1.3022877406838e-05
   5    -7.7073653839304e-06
   6    2.1745867572075e-05
   7    9.898386205536e-05
   8    0.00031284021404947
   9    -0.001458371731416
  10    2.030988750573e-05
  11    4.5854581999898e-05
  12    2.703220506923e-06
  13    1.4607910071693e-05
  14    -1.4059620883367e-06
  15    -6.8602989478639e-05
  16    0.0001256002554894
  17    0.0051423454812069
  18    -0.00010655871037393
  19    0.00022223636456499
  20    7.5452173531247e-05
  21    -2.0233498630976e-05
  22    0.00020396408926491
  23    -0.000786771184846
  24    4.9220291021265e-05
  25    -0.0013165234465702
  26    -7.5140506558328e-05
  27    -1.6296541769662e-06
  28    -2.2382536214974e-06
  29    0.00012027402743838
  30    6.9669575845459e-05
  31    -0.00014750133125673
  32    -0.00062165657572505
  33     0.014152182747193
  34    -0.0010089857560065
  35    0.0072648981425427
  36    0.00046076396880089
  37    -9.3568356411043e-05
  38    0.0011032431358468
  39    0.00018809220075141
  40    0.00078850579103625
  41    -0.0037527721479106
  42    -0.0008948478368608
  43    -0.00094150050040959
  44    0.00010702519785539
  45    -0.00026522762113035
  46    4.0214460953907e-05
  47    -0.00043245647195246
  48    -0.00078015436222558
  49      0.99497520564135
  50     0.036083832679928
  51    -0.027327575270849
  52    0.00066143525796152
  53    0.00020983179332349
  54    -0.00016217161554629
  55    -0.0031012328737641
  56    -0.00072839422850281
  57    -0.00053173985735211
  58    0.0008383946188258
  59    -0.00023762285170372
  60    -0.00041568983875176
  61    0.00020016551295684
  62    0.00018994153813788
  63    -0.0011579832973182
  64    0.0037526512558099
  65    7.6257503979669e-08
  66    3.2714193406976e-07
  67    -3.7811130663283e-07
  68    -4.9429850797265e-07
  69    4.7963919829797e-06
  70    6.821336598085e-07
  71    -8.681983906613e-07
  72    2.5292044406559e-08
  73    3.0271300580067e-06
  74    3.4836762084692e-06
  75    1.5436661429969e-06
  76    1.5541896945267e-07
  77    -9.7546953670352e-08
  78    8.1764517142443e-08
  79    1.6684103956182e-07
  80    -7.457832964623e-08
  81    3.5494066175362e-07
  82    4.3408348235496e-07
  83    -7.5867224771713e-07
  84    1.2868812298259e-06
  85    -1.8247294369906e-05
  86    -1.0400446018103e-06
  87    9.1835453840608e-07
  88    -2.941977436418e-06
  89    5.4366756447524e-06
  90    -1.0855520504047e-05
  91    -3.7023498367903e-07
  92    6.0661768357375e-07
  93    -7.6174798383171e-07
  94    6.9256111023517e-07
  95    -1.1065058098045e-07
  96    -2.6882340076063e-07
  97    2.5062758891169e-07
  98    5.4331257043065e-08
  99    -1.0560475728711e-06
 100    -4.4458901314983e-06
 101    9.9225844473866e-07
 102    -3.7125186328984e-06
 103    3.0081641479677e-05
 104    5.6074845962994e-06
 105    -1.1964051766611e-06
 106    1.9406424339106e-06
 107    -4.1290973808532e-05
 108    3.8693500042883e-05
 109    5.1999090098724e-05
 110    -8.3071160537052e-07
 111    2.8145786290166e-07
 112    -4.8188944081281e-08
 113    1.6600889914169e-07
 114    -1.0218811912137e-06
 115    1.3195777062788e-07
 116    -1.0425284540145e-05
 117    5.9633653549996e-05
 118    7.1422270283483e-07
 119    -2.2687261474512e-06
 120    2.401198622973e-06
 121    -1.4584170666137e-05
 122    7.1452497055663e-06
 123    7.2797937711553e-06
 124    1.4842859917953e-07
 125    -6.523996066263e-07
 126    -8.5997107768009e-08
 127    2.6712012419842e-07
 128    -7.3309911698071e-07
 129    -5.0043351456143e-06
 130    -7.1080818207626e-06
 131    0.00010190092318614
 132    -3.2133150158917e-06
 133    2.0420614317837e-06
 134    -1.9189566157944e-05
 135    -6.2140539107156e-05
 136    7.1445588545233e-06
 137    -0.00015189435570936
 138    4.3624231983232e-06
 139    3.5461241019546e-06
 140    5.6806438905538e-07
 141    6.2693246645968e-07
 142    1.0530653260861e-06
 143    7.5480451271123e-07
 144    -1.1371519778716e-05
 145    2.0212341016436e-05
 146    -3.2816262117955e-06
 147    3.3960019179895e-06
 148    1.1247524622458e-05
 149    8.144008183067e-06
 150    -3.9427097719446e-06
 151    -1.7999398391382e-05
 152    -1.3751496716623e-06
 153    -8.1009855703948e-07
 154    -5.4423271191841e-07
 155    1.0625231965993e-06
 156    -1.1393964695605e-06
 157    6.383055394287e-07
 158    2.0148243023553e-06
 159    -1.1110784832611e-05
 160    6.4395896957717e-07
 161    1.7323275043467e-06
 162    -1.2478950286551e-06
 163    -1.1062284669116e-05
 164    5.2283961492247e-06
 165    4.5239377834912e-06
 166    1.3478498704288e-06
 167    -3.0820867082654e-07
 168    -3.4707686843305e-07
 169    2.0674065110765e-07
 170    6.0475918260066e-07
 171    -6.5530838510769e-08
 172    3.5684408427795e-07
 173    -1.0230079064275e-05
 174    -1.3603064502084e-06
 175    -6.0918269739568e-07
 176    1.7265533285196e-06
 177    6.9338213410889e-06
 178    2.3006044932952e-06
 179    1.4319124710616e-06
 180    8.839581273937e-08
 181    1.1226271690945e-06
 182    3.8289843606652e-07
 183    -5.9486998894689e-07
 184    6.1220244220351e-07
 185    -1.6944016973202e-06
 186    -5.1647050597127e-06
 187    2.417087078749e-05
 188    -2.1321398842088e-06
 189    -4.6128162815133e-07
 190    -3.6228423376044e-06
 191    -2.7854859287738e-07
 192    -2.0732092452716e-06
 193    -1.9731868128453e-05
 194    6.6875015443346e-07
 195    5.9307319072063e-07
 196    5.2139086041472e-07
 197    1.4336492117247e-07
 198    -5.0184180083313e-08
 199    -1.6123852950578e-06
 200    -1.8888358926916e-06
 201    -1.9898215637328e-06
 202    1.9334734303215e-06
 203    -8.6495679773322e-07
 204    2.4786958168092e-06
 205    -2.24640185152e-06
 206    -7.2261918791324e-06
 207    3.1829843883876e-07
 208    -1.1544110969255e-05
 209    2.9104950202594e-06
 210    -1.2131905300205e-06
 211    1.8219154353316e-06
 212    5.0510297931599e-06
 213    -7.9208445843555e-07
 214    -5.6758418606238e-06
 215    -1.6255182028288e-06
 216    1.523058063372e-05
 217    1.3111884287795e-07
 218    1.5388026275675e-06
 219    9.2491495056462e-07
 220    5.2456205977188e-07
 221    6.2672701770519e-06
 222    -3.5012511450407e-05
 223    8.4793048542508e-05
 224    1.5422625471404e-06
 225    -6.9923497664475e-06
 226    4.3156602205691e-05
 227    3.2988378937414e-05
 228    4.9722184663997e-05
 229    -0.0002288843984046
 230    1.9390578385432e-06
 231    -8.9029558957907e-06
 232    -4.6544686282458e-06
 233    4.9267644927703e-06
 234    4.6562304858787e-06
 235    -1.5673635819551e-05
 236    1.0252306140326e-05
 237    -0.00013916436508149
 238    1.2261840303045e-05
 239    1.0975793823179e-05
 240    -3.8418033028127e-05
 241    2.3696968210116e-05
 242    3.535990214582e-05
 243    -0.0001638329349429
 244    -1.7909371314886e-08
 245    1.9973170262434e-05
 246    3.4072130071393e-06
 247    9.1533901947425e-06
 248    1.2329078758554e-06
 249    -1.2129437300783e-05
 250    -7.5043943851877e-06
 251    -5.0988672253698e-06
 252    4.5663891062893e-05
 253    0.00087143247473979
 254    -6.1479440400168e-05
 255    -2.4083143601695e-05
 256    3.8525708753707e-05
 257    0.00047375723378901
 258    0.00020794920429327
 259    -0.00040967401764079
 260    8.9160533673893e-07
 261    -2.1855142606986e-05
 262    -1.1031740103105e-05
 263    1.8455126319465e-05
 264    1.606316399883e-05
 265    1.1268989459238e-05
 266    5.9667870547354e-05
 267    5.6642440592809e-05
 268    0.00028099541394402
 269    -0.00093746336380059
 270    -0.0030992908419535
 271    0.0073288040777134
 272    -8.9392504897803e-05
 273    0.0002101001149301
 274    -0.0011866210674153
 275    -0.00040572091645357
 276    -0.00081056435282055
 277    0.0035597779542369
 278    -0.00059081431473612
 279    0.00094341056887362
 280    0.00056591276700427
 281    -0.00033595569227744