[Molden Format]
made by pyscf v[2.0.1]
[Atoms] (AU)
C   1   6     0.69100024066471     0.64692934207205    -3.48223131169301
H   2   1     2.68052439830868     1.13355088658700    -3.25784032593313
C   3   6    -0.36286361513219     0.85440132524594    -5.97030179418974
H   4   1    -2.35448549047279     0.36322488579172    -6.17995817793143
C   5   6     0.93697958957450     1.61209284601821    -8.05828437677121
H   6   1    -0.04002876534153     1.70579051152009    -9.86870372539436
C   7   6     3.55882871340184     2.30532870411993    -8.01809862923490
H   8   1     4.51217335653741     2.20318273111775    -6.19041637810672
H   9   1     1.55630230933075    -1.92953025305990    12.99630010416247
C   10   6     0.75233899775814    -2.21270439606481    11.10705728102219
H   11   1    -0.43433408177274    -3.90944857546550    11.22216085340412
C   12   6     2.86362581178706    -2.63237380607947     9.17926416456045
H   13   1     4.39038949912609    -1.24955421540245     9.49899813497433
H   14   1     3.74629220191363    -4.48798724300892     9.47414880959024
C   15   6     2.02478325613682    -2.42177285709634     6.44560829588644
C   16   6     3.88048732735477    -3.58795445234514     4.61402886975252
C   17   6    -0.18412382258602    -1.30464291234259     5.76021113872346
C   18   6    -2.10044360464350    -0.26837831858460     7.71610340967100
C   19   6    -3.08956938670431     2.35282328359417     6.88693925039594
C   20   6    -4.37372924086464    -2.09766595989678     7.93610724222001
C   21   6    -0.83850430601230     0.06372213486173    10.33002307638377
H   22   1     0.38411922151109     1.74281358582432    10.27380136542181
H   23   1    -2.30980003007874     0.45460143924521    11.73986301809809
H   24   1     4.58527064644668    -5.38706904487420     5.36778158031719
H   25   1     5.54944938085014    -2.37631462192748     4.35398898413318
H   26   1     3.06633019150423    -3.94118377050688     2.75255466040884
H   27   1    -4.17727778763735     2.26573369139522     5.12914900961283
H   28   1    -1.52662344944051     3.68001877445626     6.59540397144508
H   29   1    -4.32916174397830     3.13643051467482     8.35225460090378
H   30   1    -5.32329548508442    -2.36691813602939     6.11583672749896
H   31   1    -5.77989366602257    -1.33896741843465     9.25748940450990
H   32   1    -3.79310905208926    -3.96389819310853     8.61386170102686
C   33   6    -1.01100794811226    -1.06331657314144     3.11929490449947
C   34   6     0.37686231036534    -0.33275864505552     1.09165013605873
H   35   1    -3.01671213906703    -1.40297922279997     2.77827895090944
C   36   6    -0.64382707979370    -0.11591880174385    -1.42063131251064
H   37   1     2.35569259782137     0.17174499283897     1.33641070251401
H   38   1    -2.63317482980319    -0.60229203511219    -1.66119700387645
C   39   6     4.92949292707610     3.06752929189425   -10.04715344157890
C   40   6     7.59555456141448     3.73329481661799    -9.81073387339210
H   41   1     4.09542353861424     3.21030697797155   -11.92110945203513
O   42   8     8.93835728030826     4.43020973545744   -11.55200196938216
H   43   1     8.37079058468688     3.56000927179912    -7.85902689076443
[GTO]
1 0
 s    6 1.00
             3047.5249  0.0018347001629433
             457.36951    0.01403730124668
             103.94869   0.068842606114048
             29.210155    0.23218442062076
              9.286663    0.46794134155879
              3.163927    0.36231203217765
 s    3 1.00
             7.8682724   -0.11933240861517
             1.8812885   -0.16085421161283
             0.5442493     1.1434564825515
 s    1 1.00
             0.1687144                   1
 p    3 1.00
             7.8682724   0.068999095584993
             1.8812885    0.31642397975315
             0.5442493    0.74430825237435
 p    1 1.00
             0.1687144                   1
 d    1 1.00
                   0.8                   1

2 0
 s    3 1.00
             18.731137    0.03349459952309
             2.8253937    0.23472694665786
             0.6401217    0.81375731841339
 s    1 1.00
             0.1612778                   1

3 0
 s    6 1.00
             3047.5249  0.0018347001629433
             457.36951    0.01403730124668
             103.94869   0.068842606114048
             29.210155    0.23218442062076
              9.286663    0.46794134155879
              3.163927    0.36231203217765
 s    3 1.00
             7.8682724   -0.11933240861517
             1.8812885   -0.16085421161283
             0.5442493     1.1434564825515
 s    1 1.00
             0.1687144                   1
 p    3 1.00
             7.8682724   0.068999095584993
             1.8812885    0.31642397975315
             0.5442493    0.74430825237435
 p    1 1.00
             0.1687144                   1
 d    1 1.00
                   0.8                   1

4 0
 s    3 1.00
             18.731137    0.03349459952309
             2.8253937    0.23472694665786
             0.6401217    0.81375731841339
 s    1 1.00
             0.1612778                   1

5 0
 s    6 1.00
             3047.5249  0.0018347001629433
             457.36951    0.01403730124668
             103.94869   0.068842606114048
             29.210155    0.23218442062076
              9.286663    0.46794134155879
              3.163927    0.36231203217765
 s    3 1.00
             7.8682724   -0.11933240861517
             1.8812885   -0.16085421161283
             0.5442493     1.1434564825515
 s    1 1.00
             0.1687144                   1
 p    3 1.00
             7.8682724   0.068999095584993
             1.8812885    0.31642397975315
             0.5442493    0.74430825237435
 p    1 1.00
             0.1687144                   1
 d    1 1.00
                   0.8                   1

6 0
 s    3 1.00
             18.731137    0.03349459952309
             2.8253937    0.23472694665786
             0.6401217    0.81375731841339
 s    1 1.00
             0.1612778                   1

7 0
 s    6 1.00
             3047.5249  0.0018347001629433
             457.36951    0.01403730124668
             103.94869   0.068842606114048
             29.210155    0.23218442062076
              9.286663    0.46794134155879
              3.163927    0.36231203217765
 s    3 1.00
             7.8682724   -0.11933240861517
             1.8812885   -0.16085421161283
             0.5442493     1.1434564825515
 s    1 1.00
             0.1687144                   1
 p    3 1.00
             7.8682724   0.068999095584993
             1.8812885    0.31642397975315
             0.5442493    0.74430825237435
 p    1 1.00
             0.1687144                   1
 d    1 1.00
                   0.8                   1

8 0
 s    3 1.00
             18.731137    0.03349459952309
             2.8253937    0.23472694665786
             0.6401217    0.81375731841339
 s    1 1.00
             0.1612778                   1

9 0
 s    3 1.00
             18.731137    0.03349459952309
             2.8253937    0.23472694665786
             0.6401217    0.81375731841339
 s    1 1.00
             0.1612778                   1

10 0
 s    6 1.00
             3047.5249  0.0018347001629433
             457.36951    0.01403730124668
             103.94869   0.068842606114048
             29.210155    0.23218442062076
              9.286663    0.46794134155879
              3.163927    0.36231203217765
 s    3 1.00
             7.8682724   -0.11933240861517
             1.8812885   -0.16085421161283
             0.5442493     1.1434564825515
 s    1 1.00
             0.1687144                   1
 p    3 1.00
             7.8682724   0.068999095584993
             1.8812885    0.31642397975315
             0.5442493    0.74430825237435
 p    1 1.00
             0.1687144                   1
 d    1 1.00
                   0.8                   1

11 0
 s    3 1.00
             18.731137    0.03349459952309
             2.8253937    0.23472694665786
             0.6401217    0.81375731841339
 s    1 1.00
             0.1612778                   1

12 0
 s    6 1.00
             3047.5249  0.0018347001629433
             457.36951    0.01403730124668
             103.94869   0.068842606114048
             29.210155    0.23218442062076
              9.286663    0.46794134155879
              3.163927    0.36231203217765
 s    3 1.00
             7.8682724   -0.11933240861517
             1.8812885   -0.16085421161283
             0.5442493     1.1434564825515
 s    1 1.00
             0.1687144                   1
 p    3 1.00
             7.8682724   0.068999095584993
             1.8812885    0.31642397975315
             0.5442493    0.74430825237435
 p    1 1.00
             0.1687144                   1
 d    1 1.00
                   0.8                   1

13 0
 s    3 1.00
             18.731137    0.03349459952309
             2.8253937    0.23472694665786
             0.6401217    0.81375731841339
 s    1 1.00
             0.1612778                   1

14 0
 s    3 1.00
             18.731137    0.03349459952309
             2.8253937    0.23472694665786
             0.6401217    0.81375731841339
 s    1 1.00
             0.1612778                   1

15 0
 s    6 1.00
             3047.5249  0.0018347001629433
             457.36951    0.01403730124668
             103.94869   0.068842606114048
             29.210155    0.23218442062076
              9.286663    0.46794134155879
              3.163927    0.36231203217765
 s    3 1.00
             7.8682724   -0.11933240861517
             1.8812885   -0.16085421161283
             0.5442493     1.1434564825515
 s    1 1.00
             0.1687144                   1
 p    3 1.00
             7.8682724   0.068999095584993
             1.8812885    0.31642397975315
             0.5442493    0.74430825237435
 p    1 1.00
             0.1687144                   1
 d    1 1.00
                   0.8                   1

16 0
 s    6 1.00
             3047.5249  0.0018347001629433
             457.36951    0.01403730124668
             103.94869   0.068842606114048
             29.210155    0.23218442062076
              9.286663    0.46794134155879
              3.163927    0.36231203217765
 s    3 1.00
             7.8682724   -0.11933240861517
             1.8812885   -0.16085421161283
             0.5442493     1.1434564825515
 s    1 1.00
             0.1687144                   1
 p    3 1.00
             7.8682724   0.068999095584993
             1.8812885    0.31642397975315
             0.5442493    0.74430825237435
 p    1 1.00
             0.1687144                   1
 d    1 1.00
                   0.8                   1

17 0
 s    6 1.00
             3047.5249  0.0018347001629433
             457.36951    0.01403730124668
             103.94869   0.068842606114048
             29.210155    0.23218442062076
              9.286663    0.46794134155879
              3.163927    0.36231203217765
 s    3 1.00
             7.8682724   -0.11933240861517
             1.8812885   -0.16085421161283
             0.5442493     1.1434564825515
 s    1 1.00
             0.1687144                   1
 p    3 1.00
             7.8682724   0.068999095584993
             1.8812885    0.31642397975315
             0.5442493    0.74430825237435
 p    1 1.00
             0.1687144                   1
 d    1 1.00
                   0.8                   1

18 0
 s    6 1.00
             3047.5249  0.0018347001629433
             457.36951    0.01403730124668
             103.94869   0.068842606114048
             29.210155    0.23218442062076
              9.286663    0.46794134155879
              3.163927    0.36231203217765
 s    3 1.00
             7.8682724   -0.11933240861517
             1.8812885   -0.16085421161283
             0.5442493     1.1434564825515
 s    1 1.00
             0.1687144                   1
 p    3 1.00
             7.8682724   0.068999095584993
             1.8812885    0.31642397975315
             0.5442493    0.74430825237435
 p    1 1.00
             0.1687144                   1
 d    1 1.00
                   0.8                   1

19 0
 s    6 1.00
             3047.5249  0.0018347001629433
             457.36951    0.01403730124668
             103.94869   0.068842606114048
             29.210155    0.23218442062076
              9.286663    0.46794134155879
              3.163927    0.36231203217765
 s    3 1.00
             7.8682724   -0.11933240861517
             1.8812885   -0.16085421161283
             0.5442493     1.1434564825515
 s    1 1.00
             0.1687144                   1
 p    3 1.00
             7.8682724   0.068999095584993
             1.8812885    0.31642397975315
             0.5442493    0.74430825237435
 p    1 1.00
             0.1687144                   1
 d    1 1.00
                   0.8                   1

20 0
 s    6 1.00
             3047.5249  0.0018347001629433
             457.36951    0.01403730124668
             103.94869   0.068842606114048
             29.210155    0.23218442062076
              9.286663    0.46794134155879
              3.163927    0.36231203217765
 s    3 1.00
             7.8682724   -0.11933240861517
             1.8812885   -0.16085421161283
             0.5442493     1.1434564825515
 s    1 1.00
             0.1687144                   1
 p    3 1.00
             7.8682724   0.068999095584993
             1.8812885    0.31642397975315
             0.5442493    0.74430825237435
 p    1 1.00
             0.1687144                   1
 d    1 1.00
                   0.8                   1

21 0
 s    6 1.00
             3047.5249  0.0018347001629433
             457.36951    0.01403730124668
             103.94869   0.068842606114048
             29.210155    0.23218442062076
              9.286663    0.46794134155879
              3.163927    0.36231203217765
 s    3 1.00
             7.8682724   -0.11933240861517
             1.8812885   -0.16085421161283
             0.5442493     1.1434564825515
 s    1 1.00
             0.1687144                   1
 p    3 1.00
             7.8682724   0.068999095584993
             1.8812885    0.31642397975315
             0.5442493    0.74430825237435
 p    1 1.00
             0.1687144                   1
 d    1 1.00
                   0.8                   1

22 0
 s    3 1.00
             18.731137    0.03349459952309
             2.8253937    0.23472694665786
             0.6401217    0.81375731841339
 s    1 1.00
             0.1612778                   1

23 0
 s    3 1.00
             18.731137    0.03349459952309
             2.8253937    0.23472694665786
             0.6401217    0.81375731841339
 s    1 1.00
             0.1612778                   1

24 0
 s    3 1.00
             18.731137    0.03349459952309
             2.8253937    0.23472694665786
             0.6401217    0.81375731841339
 s    1 1.00
             0.1612778                   1

25 0
 s    3 1.00
             18.731137    0.03349459952309
             2.8253937    0.23472694665786
             0.6401217    0.81375731841339
 s    1 1.00
             0.1612778                   1

26 0
 s    3 1.00
             18.731137    0.03349459952309
             2.8253937    0.23472694665786
             0.6401217    0.81375731841339
 s    1 1.00
             0.1612778                   1

27 0
 s    3 1.00
             18.731137    0.03349459952309
             2.8253937    0.23472694665786
             0.6401217    0.81375731841339
 s    1 1.00
             0.1612778                   1

28 0
 s    3 1.00
             18.731137    0.03349459952309
             2.8253937    0.23472694665786
             0.6401217    0.81375731841339
 s    1 1.00
             0.1612778                   1

29 0
 s    3 1.00
             18.731137    0.03349459952309
             2.8253937    0.23472694665786
             0.6401217    0.81375731841339
 s    1 1.00
             0.1612778                   1

30 0
 s    3 1.00
             18.731137    0.03349459952309
             2.8253937    0.23472694665786
             0.6401217    0.81375731841339
 s    1 1.00
             0.1612778                   1

31 0
 s    3 1.00
             18.731137    0.03349459952309
             2.8253937    0.23472694665786
             0.6401217    0.81375731841339
 s    1 1.00
             0.1612778                   1

32 0
 s    3 1.00
             18.731137    0.03349459952309
             2.8253937    0.23472694665786
             0.6401217    0.81375731841339
 s    1 1.00
             0.1612778                   1

33 0
 s    6 1.00
             3047.5249  0.0018347001629433
             457.36951    0.01403730124668
             103.94869   0.068842606114048
             29.210155    0.23218442062076
              9.286663    0.46794134155879
              3.163927    0.36231203217765
 s    3 1.00
             7.8682724   -0.11933240861517
             1.8812885   -0.16085421161283
             0.5442493     1.1434564825515
 s    1 1.00
             0.1687144                   1
 p    3 1.00
             7.8682724   0.068999095584993
             1.8812885    0.31642397975315
             0.5442493    0.74430825237435
 p    1 1.00
             0.1687144                   1
 d    1 1.00
                   0.8                   1

34 0
 s    6 1.00
             3047.5249  0.0018347001629433
             457.36951    0.01403730124668
             103.94869   0.068842606114048
             29.210155    0.23218442062076
              9.286663    0.46794134155879
              3.163927    0.36231203217765
 s    3 1.00
             7.8682724   -0.11933240861517
             1.8812885   -0.16085421161283
             0.5442493     1.1434564825515
 s    1 1.00
             0.1687144                   1
 p    3 1.00
             7.8682724   0.068999095584993
             1.8812885    0.31642397975315
             0.5442493    0.74430825237435
 p    1 1.00
             0.1687144                   1
 d    1 1.00
                   0.8                   1

35 0
 s    3 1.00
             18.731137    0.03349459952309
             2.8253937    0.23472694665786
             0.6401217    0.81375731841339
 s    1 1.00
             0.1612778                   1

36 0
 s    6 1.00
             3047.5249  0.0018347001629433
             457.36951    0.01403730124668
             103.94869   0.068842606114048
             29.210155    0.23218442062076
              9.286663    0.46794134155879
              3.163927    0.36231203217765
 s    3 1.00
             7.8682724   -0.11933240861517
             1.8812885   -0.16085421161283
             0.5442493     1.1434564825515
 s    1 1.00
             0.1687144                   1
 p    3 1.00
             7.8682724   0.068999095584993
             1.8812885    0.31642397975315
             0.5442493    0.74430825237435
 p    1 1.00
             0.1687144                   1
 d    1 1.00
                   0.8                   1

37 0
 s    3 1.00
             18.731137    0.03349459952309
             2.8253937    0.23472694665786
             0.6401217    0.81375731841339
 s    1 1.00
             0.1612778                   1

38 0
 s    3 1.00
             18.731137    0.03349459952309
             2.8253937    0.23472694665786
             0.6401217    0.81375731841339
 s    1 1.00
             0.1612778                   1

39 0
 s    6 1.00
             3047.5249  0.0018347001629433
             457.36951    0.01403730124668
             103.94869   0.068842606114048
             29.210155    0.23218442062076
              9.286663    0.46794134155879
              3.163927    0.36231203217765
 s    3 1.00
             7.8682724   -0.11933240861517
             1.8812885   -0.16085421161283
             0.5442493     1.1434564825515
 s    1 1.00
             0.1687144                   1
 p    3 1.00
             7.8682724   0.068999095584993
             1.8812885    0.31642397975315
             0.5442493    0.74430825237435
 p    1 1.00
             0.1687144                   1
 d    1 1.00
                   0.8                   1

40 0
 s    6 1.00
             3047.5249  0.0018347001629433
             457.36951    0.01403730124668
             103.94869   0.068842606114048
             29.210155    0.23218442062076
              9.286663    0.46794134155879
              3.163927    0.36231203217765
 s    3 1.00
             7.8682724   -0.11933240861517
             1.8812885   -0.16085421161283
             0.5442493     1.1434564825515
 s    1 1.00
             0.1687144                   1
 p    3 1.00
             7.8682724   0.068999095584993
             1.8812885    0.31642397975315
             0.5442493    0.74430825237435
 p    1 1.00
             0.1687144                   1
 d    1 1.00
                   0.8                   1

41 0
 s    3 1.00
             18.731137    0.03349459952309
             2.8253937    0.23472694665786
             0.6401217    0.81375731841339
 s    1 1.00
             0.1612778                   1

42 0
 s    6 1.00
             5484.6717   0.001831099805527
             825.23495   0.013950098518422
             188.04696    0.06844509273075
               52.9645    0.23271427528445
              16.89757    0.47019295006289
             5.7996353    0.35852086192309
 s    3 1.00
             15.539616   -0.11077750382508
             3.5999336   -0.14802630511126
             1.0137618     1.1307670390447
 s    1 1.00
             0.2700058                   1
 p    3 1.00
             15.539616   0.070874299543311
             3.5999336    0.33975279781076
             1.0137618    0.72715859531445
 p    1 1.00
             0.2700058                   1
 d    1 1.00
                   0.8                   1

43 0
 s    3 1.00
             18.731137    0.03349459952309
             2.8253937    0.23472694665786
             0.6401217    0.81375731841339
 s    1 1.00
             0.1612778                   1

[5d]
[7f]
[9g]

[MO]
 Sym= A
 Ene=               0
 Spin= Alpha
 Occup=    1.00000
   1    -0.0040742086305396
   2    -0.00034288162127777
   3    -0.00018134762543458
   4    -0.00013520757956807
   5    -5.577628168698e-05
   6    0.00010237014633607
   7    0.0018369901216683
   8      0.00053121228732
   9    -0.00021769490765978
  10    -6.3025378155015e-05
  11    6.199950715493e-05
  12    3.3196769804679e-05
  13    2.9835242086756e-05
  14    2.1462697183893e-06
  15    -9.2923074554905e-05
  16    -0.0019083928066246
  17    0.0023719209089225
  18    -0.00027863160608725
  19     0.001589915969728
  20    -0.00017324257806655
  21    -6.4224362726928e-05
  22    9.3445092540343e-05
  23    0.00029364181995906
  24    9.962748007544e-05
  25    -0.00010407843093377
  26    0.0001276674672161
  27    7.7956284221315e-05
  28    -3.6538113457647e-05
  29    5.905136426403e-05
  30    1.9626714664242e-05
  31    -4.2294994825002e-05
  32    0.00017365247302959
  33     0.014503514444927
  34    -0.00089551216642499
  35    0.0061796204266967
  36    -0.0011437067443735
  37    -0.00031094695735156
  38    2.3984329357731e-05
  39    0.0029379174762756
  40    0.0011015390391346
  41    -0.0016142194538648
  42    0.00065426445978225
  43    -0.00015369133983111
  44    -2.7693379456784e-05
  45    -0.0010547944999947
  46    -0.00057377675011466
  47    -0.0004278830683648
  48    -0.000617661511413
  49      0.99497351799367
  50     0.036149601414304
  51    -0.027565227395065
  52    -7.5225533153545e-05
  53    0.00010062252981176
  54    -0.00062026027135707
  55    0.00061944378058777
  56    -0.00026786635891588
  57    0.0022256605304361
  58    0.00010828096983648
  59    -0.00058495903611985
  60    -0.00034190078976585
  61    0.00057046377665662
  62    0.00047065727161116
  63    -0.0012141005966924
  64    0.0048732634378599
  65    -2.1617189639227e-06
  66    -4.0483811853603e-06
  67    3.2937242331272e-07
  68    -2.2540510895252e-07
  69    -1.0022698084325e-06
  70    4.6801154469194e-07
  71    -1.2160144502291e-06
  72    -1.8752320823023e-07
  73    3.6189396567103e-06
  74    7.6450668713161e-06
  75    4.2115761809515e-06
  76    -5.5803877549072e-07
  77    -2.0412792341459e-07
  78    2.2841028368685e-07
  79    1.9431114403488e-07
  80    -1.5676076893031e-07
  81    9.9526434933753e-07
  82    4.2727491816888e-06
  83    1.8267193101935e-06
  84    -3.3918630822647e-06
  85    -2.8492453944686e-05
  86    5.2951358876828e-06
  87    -1.949961608783e-06
  88    1.0609446128108e-05
  89    7.2958142934505e-06
  90    -2.1361764619442e-05
  91    8.7136481059556e-06
  92    4.5942235423052e-07
  93    -9.4685264012719e-07
  94    1.0321912333113e-06
  95    -7.6097177917808e-08
  96    -6.3827349727189e-07
  97    1.701248342654e-06
  98    5.8852939170452e-06
  99    2.4921662959395e-06
 100    2.2889974341297e-07
 101    -3.3169841869987e-06
 102    9.3314140674954e-07
 103    0.00010331313270394
 104    -7.0897388454496e-06
 105    8.7558766348396e-06
 106    -9.1930778747399e-06
 107    -8.4811855520722e-05
 108    8.1341539371659e-05
 109    4.5431513494526e-05
 110    -2.9266195713033e-06
 111    -1.7388199566999e-06
 112    2.4237189202417e-07
 113    9.5450708036927e-07
 114    -2.4660392131705e-06
 115    -1.4333417711486e-06
 116    -7.7159313673307e-06
 117    9.7020904049787e-05
 118    -4.9322766038927e-06
 119    6.4308163713432e-06
 120    7.5105593738531e-08
 121    -3.1001336899173e-06
 122    -7.7331471380657e-06
 123    3.2121613120522e-05
 124    -8.9515120897644e-08
 125    -1.2282472649495e-06
 126    -1.33990056387e-06
 127    -6.6504479737022e-07
 128    -1.9144467053275e-06
 129    4.0711839088907e-06
 130    -3.1239496068166e-05
 131    2.3845110971832e-06
 132    1.7940809506216e-05
 133    -2.0263639164682e-08
 134    4.5200498673106e-05
 135    -0.00011841045463956
 136    1.6025641574969e-05
 137    -0.00015988402395472
 138    3.478404555363e-06
 139    5.4839301887823e-06
 140    1.6538152903946e-06
 141    2.3537563144691e-06
 142    2.4351540485478e-06
 143    -2.1071625263762e-06
 144    -1.0774758801078e-05
 145    3.9784097657732e-05
 146    2.5879661548291e-06
 147    4.7034057410056e-07
 148    -3.9463523283175e-06
 149    2.5649633639415e-05
 150    -9.7234449144368e-06
 151    -2.1183163899533e-05
 152    -3.7766754866026e-06
 153    -2.0936583690079e-06
 154    -1.0246490160516e-06
 155    2.3581755612603e-06
 156    -2.1055176109407e-06
 157    3.8325305149223e-07
 158    3.9924559101155e-06
 159    -5.2712338550572e-06
 160    3.7970433178925e-06
 161    -1.7061696205721e-06
 162    1.9162980626176e-06
 163    -2.0211803311244e-05
 164    4.7983448916796e-06
 165    5.6340002306728e-06
 166    1.4600072264671e-06
 167    -6.7162625201208e-07
 168    1.2414323213913e-07
 169    -2.0969865747301e-07
 170    8.1820336063202e-07
 171    -1.9335523054262e-08
 172    -4.7972442414142e-06
 173    1.3669404602321e-05
 174    7.696404833707e-07
 175    6.3172809776541e-07
 176    7.9071344533828e-06
 177    -6.0455298385214e-06
 178    2.0833590007394e-06
 179    -9.8578895266652e-06
 180    4.8097510841984e-07
 181    1.1733753916597e-06
 182    2.3637408056102e-07
 183    -9.5722826667552e-07
 184    2.4640396301195e-07
 185    2.6335342790841e-07
 186    -1.3090305396871e-05
 187    1.4812266620099e-05
 188    1.8306249186946e-06
 189    2.4446715154681e-07
 190    9.3845767383113e-06
 191    3.1924771079923e-06
 192    -4.1369046049687e-06
 193    -1.7543536604817e-05
 194    1.0259603189452e-06
 195    1.485891800434e-07
 196    8.7181947406732e-07
 197    1.0724365249171e-07
 198    -8.4268996790665e-08
 199    -2.8001842982803e-06
 200    2.2461546164057e-07
 201    9.1786022649448e-07
 202    1.2492775007091e-05
 203    -6.4792462488903e-06
 204    -1.4820361529198e-05
 205    6.2961660278781e-06
 206    -3.1585075451894e-05
 207    5.6724936866627e-06
 208    -1.0135934808081e-05
 209    2.265654793142e-06
 210    -1.480996233976e-05
 211    2.5563009270095e-06
 212    6.9740629652567e-06
 213    3.1428545100743e-07
 214    -6.7660111830279e-06
 215    -2.7682219891315e-06
 216    -2.3644898348727e-05
 217    1.5421874370479e-06
 218    3.2263643964844e-06
 219    1.2365491870951e-06
 220    2.5963919310351e-06
 221    -1.1508240573811e-05
 222    -2.2071616530301e-05
 223    0.00012695581784531
 224    -3.7569879386039e-05
 225    -1.8611507839788e-06
 226    -3.1359846761202e-05
 227    0.00022876182471895
 228    9.7784086591326e-05
 229    -0.00024802837603339
 230    -5.4313794946198e-06
 231    -1.5126843329075e-05
 232    -6.1398417557646e-06
 233    1.2355234235067e-05
 234    1.0288175394549e-05
 235    1.2746796880377e-05
 236    -1.7580063922961e-05
 237     0.000229404205111
 238    1.4567653957202e-05
 239    -4.2729492344418e-06
 240    3.8974678410522e-05
 241    -0.00028447863254735
 242    2.8445956629805e-05
 243    -0.00059874738253379
 244    2.2140004560335e-06
 245    1.8189435796008e-05
 246    3.9136883339623e-06
 247    1.7556394288666e-06
 248    -3.2489800751596e-06
 249    1.8547615184806e-05
 250    0.00016682670708771
 251    -5.7409153347034e-06
 252    -0.00020804320221043
 253    0.00061905391702658
 254    0.0001850724555618
 255    5.0189813951469e-05
 256    -1.486874770155e-05
 257    -0.00012941612402638
 258    0.00021970854774356
 259    -0.0012825304413451
 260    3.8668597229555e-05
 261    -4.4238362115515e-05
 262    -2.4734167887381e-05
 263    -7.9783343959382e-06
 264    6.5848572131912e-06
 265    -4.6701114992805e-05
 266    0.00031299549353837
 267    -0.00020852056506622
 268    -0.0003152276803156
 269    -0.00094814364498306
 270    -0.0031342437339075
 271     0.007952432758505
 272    0.0010189192835481
 273    0.00036163758760006
 274    -0.00045558045748457
 275    -0.0023840663951091
 276    -0.0010769090484149
 277    0.0022548338988018
 278    -0.00076542056833734
 279    0.00085201808495526
 280    0.00057215276362147