[Molden Format]
made by pyscf v[2.0.1]
[Atoms] (AU)
C   1   6     0.69100024066471     0.64692934207205    -3.48223131169301
H   2   1     2.68052439830868     1.13355088658700    -3.25784032593313
C   3   6    -0.36286361513219     0.85440132524594    -5.97030179418974
H   4   1    -2.35448549047279     0.36322488579172    -6.17995817793143
C   5   6     0.93697958957450     1.61209284601821    -8.05828437677121
H   6   1     1.79023114573091     3.48620134168797    -8.08322278856913
C   7   6     1.25568723688000     0.06665493916240   -10.26426053014808
H   8   1     0.39118722523993    -1.80671768770582   -10.21099750517578
H   9   1     1.55630230933075    -1.92953025305990    12.99630010416247
C   10   6     0.75233899775814    -2.21270439606481    11.10705728102219
H   11   1    -0.43433408177274    -3.90944857546550    11.22216085340412
C   12   6     2.86362581178706    -2.63237380607947     9.17926416456045
H   13   1     4.39038949912609    -1.24955421540245     9.49899813497433
H   14   1     3.74629220191363    -4.48798724300892     9.47414880959024
C   15   6     2.02478325613682    -2.42177285709634     6.44560829588644
C   16   6     3.88048732735477    -3.58795445234514     4.61402886975252
C   17   6    -0.18412382258602    -1.30464291234259     5.76021113872346
C   18   6    -2.10044360464350    -0.26837831858460     7.71610340967100
C   19   6    -3.08956938670431     2.35282328359417     6.88693925039594
C   20   6    -4.37372924086464    -2.09766595989678     7.93610724222001
C   21   6    -0.83850430601230     0.06372213486173    10.33002307638377
H   22   1     0.38411922151109     1.74281358582432    10.27380136542181
H   23   1    -2.30980003007874     0.45460143924521    11.73986301809809
H   24   1     4.58527064644668    -5.38706904487420     5.36778158031719
H   25   1     5.54944938085014    -2.37631462192748     4.35398898413318
H   26   1     3.06633019150423    -3.94118377050688     2.75255466040884
H   27   1    -4.17727778763735     2.26573369139522     5.12914900961283
H   28   1    -1.52662344944051     3.68001877445626     6.59540397144508
H   29   1    -4.32916174397830     3.13643051467482     8.35225460090378
H   30   1    -5.32329548508442    -2.36691813602939     6.11583672749896
H   31   1    -5.77989366602257    -1.33896741843465     9.25748940450990
H   32   1    -3.79310905208926    -3.96389819310853     8.61386170102686
C   33   6    -1.01100794811226    -1.06331657314144     3.11929490449947
C   34   6     0.37686231036534    -0.33275864505552     1.09165013605873
H   35   1    -3.01671213906703    -1.40297922279997     2.77827895090944
C   36   6    -0.64382707979370    -0.11591880174385    -1.42063131251064
H   37   1     2.35569259782137     0.17174499283897     1.33641070251401
H   38   1    -2.63317482980319    -0.60229203511219    -1.66119700387645
C   39   6     2.53016326718275     0.74184279311179   -12.38477126217512
C   40   6     2.74761784180424    -0.97075180884473   -14.53576076061004
H   41   1     3.43489191747297     2.57981441042514   -12.56110828288274
O   42   8     3.86136937293188    -0.48701494751058   -16.49697984673750
H   43   1     1.79359090776017    -2.83108880557309   -14.27278208139205
[GTO]
1 0
 s    6 1.00
             3047.5249  0.0018347001629433
             457.36951    0.01403730124668
             103.94869   0.068842606114048
             29.210155    0.23218442062076
              9.286663    0.46794134155879
              3.163927    0.36231203217765
 s    3 1.00
             7.8682724   -0.11933240861517
             1.8812885   -0.16085421161283
             0.5442493     1.1434564825515
 s    1 1.00
             0.1687144                   1
 p    3 1.00
             7.8682724   0.068999095584993
             1.8812885    0.31642397975315
             0.5442493    0.74430825237435
 p    1 1.00
             0.1687144                   1
 d    1 1.00
                   0.8                   1

2 0
 s    3 1.00
             18.731137    0.03349459952309
             2.8253937    0.23472694665786
             0.6401217    0.81375731841339
 s    1 1.00
             0.1612778                   1

3 0
 s    6 1.00
             3047.5249  0.0018347001629433
             457.36951    0.01403730124668
             103.94869   0.068842606114048
             29.210155    0.23218442062076
              9.286663    0.46794134155879
              3.163927    0.36231203217765
 s    3 1.00
             7.8682724   -0.11933240861517
             1.8812885   -0.16085421161283
             0.5442493     1.1434564825515
 s    1 1.00
             0.1687144                   1
 p    3 1.00
             7.8682724   0.068999095584993
             1.8812885    0.31642397975315
             0.5442493    0.74430825237435
 p    1 1.00
             0.1687144                   1
 d    1 1.00
                   0.8                   1

4 0
 s    3 1.00
             18.731137    0.03349459952309
             2.8253937    0.23472694665786
             0.6401217    0.81375731841339
 s    1 1.00
             0.1612778                   1

5 0
 s    6 1.00
             3047.5249  0.0018347001629433
             457.36951    0.01403730124668
             103.94869   0.068842606114048
             29.210155    0.23218442062076
              9.286663    0.46794134155879
              3.163927    0.36231203217765
 s    3 1.00
             7.8682724   -0.11933240861517
             1.8812885   -0.16085421161283
             0.5442493     1.1434564825515
 s    1 1.00
             0.1687144                   1
 p    3 1.00
             7.8682724   0.068999095584993
             1.8812885    0.31642397975315
             0.5442493    0.74430825237435
 p    1 1.00
             0.1687144                   1
 d    1 1.00
                   0.8                   1

6 0
 s    3 1.00
             18.731137    0.03349459952309
             2.8253937    0.23472694665786
             0.6401217    0.81375731841339
 s    1 1.00
             0.1612778                   1

7 0
 s    6 1.00
             3047.5249  0.0018347001629433
             457.36951    0.01403730124668
             103.94869   0.068842606114048
             29.210155    0.23218442062076
              9.286663    0.46794134155879
              3.163927    0.36231203217765
 s    3 1.00
             7.8682724   -0.11933240861517
             1.8812885   -0.16085421161283
             0.5442493     1.1434564825515
 s    1 1.00
             0.1687144                   1
 p    3 1.00
             7.8682724   0.068999095584993
             1.8812885    0.31642397975315
             0.5442493    0.74430825237435
 p    1 1.00
             0.1687144                   1
 d    1 1.00
                   0.8                   1

8 0
 s    3 1.00
             18.731137    0.03349459952309
             2.8253937    0.23472694665786
             0.6401217    0.81375731841339
 s    1 1.00
             0.1612778                   1

9 0
 s    3 1.00
             18.731137    0.03349459952309
             2.8253937    0.23472694665786
             0.6401217    0.81375731841339
 s    1 1.00
             0.1612778                   1

10 0
 s    6 1.00
             3047.5249  0.0018347001629433
             457.36951    0.01403730124668
             103.94869   0.068842606114048
             29.210155    0.23218442062076
              9.286663    0.46794134155879
              3.163927    0.36231203217765
 s    3 1.00
             7.8682724   -0.11933240861517
             1.8812885   -0.16085421161283
             0.5442493     1.1434564825515
 s    1 1.00
             0.1687144                   1
 p    3 1.00
             7.8682724   0.068999095584993
             1.8812885    0.31642397975315
             0.5442493    0.74430825237435
 p    1 1.00
             0.1687144                   1
 d    1 1.00
                   0.8                   1

11 0
 s    3 1.00
             18.731137    0.03349459952309
             2.8253937    0.23472694665786
             0.6401217    0.81375731841339
 s    1 1.00
             0.1612778                   1

12 0
 s    6 1.00
             3047.5249  0.0018347001629433
             457.36951    0.01403730124668
             103.94869   0.068842606114048
             29.210155    0.23218442062076
              9.286663    0.46794134155879
              3.163927    0.36231203217765
 s    3 1.00
             7.8682724   -0.11933240861517
             1.8812885   -0.16085421161283
             0.5442493     1.1434564825515
 s    1 1.00
             0.1687144                   1
 p    3 1.00
             7.8682724   0.068999095584993
             1.8812885    0.31642397975315
             0.5442493    0.74430825237435
 p    1 1.00
             0.1687144                   1
 d    1 1.00
                   0.8                   1

13 0
 s    3 1.00
             18.731137    0.03349459952309
             2.8253937    0.23472694665786
             0.6401217    0.81375731841339
 s    1 1.00
             0.1612778                   1

14 0
 s    3 1.00
             18.731137    0.03349459952309
             2.8253937    0.23472694665786
             0.6401217    0.81375731841339
 s    1 1.00
             0.1612778                   1

15 0
 s    6 1.00
             3047.5249  0.0018347001629433
             457.36951    0.01403730124668
             103.94869   0.068842606114048
             29.210155    0.23218442062076
              9.286663    0.46794134155879
              3.163927    0.36231203217765
 s    3 1.00
             7.8682724   -0.11933240861517
             1.8812885   -0.16085421161283
             0.5442493     1.1434564825515
 s    1 1.00
             0.1687144                   1
 p    3 1.00
             7.8682724   0.068999095584993
             1.8812885    0.31642397975315
             0.5442493    0.74430825237435
 p    1 1.00
             0.1687144                   1
 d    1 1.00
                   0.8                   1

16 0
 s    6 1.00
             3047.5249  0.0018347001629433
             457.36951    0.01403730124668
             103.94869   0.068842606114048
             29.210155    0.23218442062076
              9.286663    0.46794134155879
              3.163927    0.36231203217765
 s    3 1.00
             7.8682724   -0.11933240861517
             1.8812885   -0.16085421161283
             0.5442493     1.1434564825515
 s    1 1.00
             0.1687144                   1
 p    3 1.00
             7.8682724   0.068999095584993
             1.8812885    0.31642397975315
             0.5442493    0.74430825237435
 p    1 1.00
             0.1687144                   1
 d    1 1.00
                   0.8                   1

17 0
 s    6 1.00
             3047.5249  0.0018347001629433
             457.36951    0.01403730124668
             103.94869   0.068842606114048
             29.210155    0.23218442062076
              9.286663    0.46794134155879
              3.163927    0.36231203217765
 s    3 1.00
             7.8682724   -0.11933240861517
             1.8812885   -0.16085421161283
             0.5442493     1.1434564825515
 s    1 1.00
             0.1687144                   1
 p    3 1.00
             7.8682724   0.068999095584993
             1.8812885    0.31642397975315
             0.5442493    0.74430825237435
 p    1 1.00
             0.1687144                   1
 d    1 1.00
                   0.8                   1

18 0
 s    6 1.00
             3047.5249  0.0018347001629433
             457.36951    0.01403730124668
             103.94869   0.068842606114048
             29.210155    0.23218442062076
              9.286663    0.46794134155879
              3.163927    0.36231203217765
 s    3 1.00
             7.8682724   -0.11933240861517
             1.8812885   -0.16085421161283
             0.5442493     1.1434564825515
 s    1 1.00
             0.1687144                   1
 p    3 1.00
             7.8682724   0.068999095584993
             1.8812885    0.31642397975315
             0.5442493    0.74430825237435
 p    1 1.00
             0.1687144                   1
 d    1 1.00
                   0.8                   1

19 0
 s    6 1.00
             3047.5249  0.0018347001629433
             457.36951    0.01403730124668
             103.94869   0.068842606114048
             29.210155    0.23218442062076
              9.286663    0.46794134155879
              3.163927    0.36231203217765
 s    3 1.00
             7.8682724   -0.11933240861517
             1.8812885   -0.16085421161283
             0.5442493     1.1434564825515
 s    1 1.00
             0.1687144                   1
 p    3 1.00
             7.8682724   0.068999095584993
             1.8812885    0.31642397975315
             0.5442493    0.74430825237435
 p    1 1.00
             0.1687144                   1
 d    1 1.00
                   0.8                   1

20 0
 s    6 1.00
             3047.5249  0.0018347001629433
             457.36951    0.01403730124668
             103.94869   0.068842606114048
             29.210155    0.23218442062076
              9.286663    0.46794134155879
              3.163927    0.36231203217765
 s    3 1.00
             7.8682724   -0.11933240861517
             1.8812885   -0.16085421161283
             0.5442493     1.1434564825515
 s    1 1.00
             0.1687144                   1
 p    3 1.00
             7.8682724   0.068999095584993
             1.8812885    0.31642397975315
             0.5442493    0.74430825237435
 p    1 1.00
             0.1687144                   1
 d    1 1.00
                   0.8                   1

21 0
 s    6 1.00
             3047.5249  0.0018347001629433
             457.36951    0.01403730124668
             103.94869   0.068842606114048
             29.210155    0.23218442062076
              9.286663    0.46794134155879
              3.163927    0.36231203217765
 s    3 1.00
             7.8682724   -0.11933240861517
             1.8812885   -0.16085421161283
             0.5442493     1.1434564825515
 s    1 1.00
             0.1687144                   1
 p    3 1.00
             7.8682724   0.068999095584993
             1.8812885    0.31642397975315
             0.5442493    0.74430825237435
 p    1 1.00
             0.1687144                   1
 d    1 1.00
                   0.8                   1

22 0
 s    3 1.00
             18.731137    0.03349459952309
             2.8253937    0.23472694665786
             0.6401217    0.81375731841339
 s    1 1.00
             0.1612778                   1

23 0
 s    3 1.00
             18.731137    0.03349459952309
             2.8253937    0.23472694665786
             0.6401217    0.81375731841339
 s    1 1.00
             0.1612778                   1

24 0
 s    3 1.00
             18.731137    0.03349459952309
             2.8253937    0.23472694665786
             0.6401217    0.81375731841339
 s    1 1.00
             0.1612778                   1

25 0
 s    3 1.00
             18.731137    0.03349459952309
             2.8253937    0.23472694665786
             0.6401217    0.81375731841339
 s    1 1.00
             0.1612778                   1

26 0
 s    3 1.00
             18.731137    0.03349459952309
             2.8253937    0.23472694665786
             0.6401217    0.81375731841339
 s    1 1.00
             0.1612778                   1

27 0
 s    3 1.00
             18.731137    0.03349459952309
             2.8253937    0.23472694665786
             0.6401217    0.81375731841339
 s    1 1.00
             0.1612778                   1

28 0
 s    3 1.00
             18.731137    0.03349459952309
             2.8253937    0.23472694665786
             0.6401217    0.81375731841339
 s    1 1.00
             0.1612778                   1

29 0
 s    3 1.00
             18.731137    0.03349459952309
             2.8253937    0.23472694665786
             0.6401217    0.81375731841339
 s    1 1.00
             0.1612778                   1

30 0
 s    3 1.00
             18.731137    0.03349459952309
             2.8253937    0.23472694665786
             0.6401217    0.81375731841339
 s    1 1.00
             0.1612778                   1

31 0
 s    3 1.00
             18.731137    0.03349459952309
             2.8253937    0.23472694665786
             0.6401217    0.81375731841339
 s    1 1.00
             0.1612778                   1

32 0
 s    3 1.00
             18.731137    0.03349459952309
             2.8253937    0.23472694665786
             0.6401217    0.81375731841339
 s    1 1.00
             0.1612778                   1

33 0
 s    6 1.00
             3047.5249  0.0018347001629433
             457.36951    0.01403730124668
             103.94869   0.068842606114048
             29.210155    0.23218442062076
              9.286663    0.46794134155879
              3.163927    0.36231203217765
 s    3 1.00
             7.8682724   -0.11933240861517
             1.8812885   -0.16085421161283
             0.5442493     1.1434564825515
 s    1 1.00
             0.1687144                   1
 p    3 1.00
             7.8682724   0.068999095584993
             1.8812885    0.31642397975315
             0.5442493    0.74430825237435
 p    1 1.00
             0.1687144                   1
 d    1 1.00
                   0.8                   1

34 0
 s    6 1.00
             3047.5249  0.0018347001629433
             457.36951    0.01403730124668
             103.94869   0.068842606114048
             29.210155    0.23218442062076
              9.286663    0.46794134155879
              3.163927    0.36231203217765
 s    3 1.00
             7.8682724   -0.11933240861517
             1.8812885   -0.16085421161283
             0.5442493     1.1434564825515
 s    1 1.00
             0.1687144                   1
 p    3 1.00
             7.8682724   0.068999095584993
             1.8812885    0.31642397975315
             0.5442493    0.74430825237435
 p    1 1.00
             0.1687144                   1
 d    1 1.00
                   0.8                   1

35 0
 s    3 1.00
             18.731137    0.03349459952309
             2.8253937    0.23472694665786
             0.6401217    0.81375731841339
 s    1 1.00
             0.1612778                   1

36 0
 s    6 1.00
             3047.5249  0.0018347001629433
             457.36951    0.01403730124668
             103.94869   0.068842606114048
             29.210155    0.23218442062076
              9.286663    0.46794134155879
              3.163927    0.36231203217765
 s    3 1.00
             7.8682724   -0.11933240861517
             1.8812885   -0.16085421161283
             0.5442493     1.1434564825515
 s    1 1.00
             0.1687144                   1
 p    3 1.00
             7.8682724   0.068999095584993
             1.8812885    0.31642397975315
             0.5442493    0.74430825237435
 p    1 1.00
             0.1687144                   1
 d    1 1.00
                   0.8                   1

37 0
 s    3 1.00
             18.731137    0.03349459952309
             2.8253937    0.23472694665786
             0.6401217    0.81375731841339
 s    1 1.00
             0.1612778                   1

38 0
 s    3 1.00
             18.731137    0.03349459952309
             2.8253937    0.23472694665786
             0.6401217    0.81375731841339
 s    1 1.00
             0.1612778                   1

39 0
 s    6 1.00
             3047.5249  0.0018347001629433
             457.36951    0.01403730124668
             103.94869   0.068842606114048
             29.210155    0.23218442062076
              9.286663    0.46794134155879
              3.163927    0.36231203217765
 s    3 1.00
             7.8682724   -0.11933240861517
             1.8812885   -0.16085421161283
             0.5442493     1.1434564825515
 s    1 1.00
             0.1687144                   1
 p    3 1.00
             7.8682724   0.068999095584993
             1.8812885    0.31642397975315
             0.5442493    0.74430825237435
 p    1 1.00
             0.1687144                   1
 d    1 1.00
                   0.8                   1

40 0
 s    6 1.00
             3047.5249  0.0018347001629433
             457.36951    0.01403730124668
             103.94869   0.068842606114048
             29.210155    0.23218442062076
              9.286663    0.46794134155879
              3.163927    0.36231203217765
 s    3 1.00
             7.8682724   -0.11933240861517
             1.8812885   -0.16085421161283
             0.5442493     1.1434564825515
 s    1 1.00
             0.1687144                   1
 p    3 1.00
             7.8682724   0.068999095584993
             1.8812885    0.31642397975315
             0.5442493    0.74430825237435
 p    1 1.00
             0.1687144                   1
 d    1 1.00
                   0.8                   1

41 0
 s    3 1.00
             18.731137    0.03349459952309
             2.8253937    0.23472694665786
             0.6401217    0.81375731841339
 s    1 1.00
             0.1612778                   1

42 0
 s    6 1.00
             5484.6717   0.001831099805527
             825.23495   0.013950098518422
             188.04696    0.06844509273075
               52.9645    0.23271427528445
              16.89757    0.47019295006289
             5.7996353    0.35852086192309
 s    3 1.00
             15.539616   -0.11077750382508
             3.5999336   -0.14802630511126
             1.0137618     1.1307670390447
 s    1 1.00
             0.2700058                   1
 p    3 1.00
             15.539616   0.070874299543311
             3.5999336    0.33975279781076
             1.0137618    0.72715859531445
 p    1 1.00
             0.2700058                   1
 d    1 1.00
                   0.8                   1

43 0
 s    3 1.00
             18.731137    0.03349459952309
             2.8253937    0.23472694665786
             0.6401217    0.81375731841339
 s    1 1.00
             0.1612778                   1

[5d]
[7f]
[9g]

[MO]
 Sym= A
 Ene=               0
 Spin= Alpha
 Occup=    1.00000
   1     0.017723538412617
   2    -0.00090031576930488
   3     0.006499356969046
   4    0.00041731952756514
   5    -5.8337299188843e-05
   6    0.0012044801385592
   7    0.0007565369439552
   8    0.00078495868283197
   9    -0.0042249482588623
  10    -0.00091909289958309
  11    -0.0008793370234407
  12    0.00014094397578835
  13    -0.00023435554502269
  14    3.6008446577559e-05
  15    -0.00048755669369442
  16    -0.0009567437273957
  17      0.99468674887609
  18     0.036460234640239
  19    -0.027113283246986
  20    0.00078551460628946
  21    0.00014660420096436
  22    -0.00037006679264243
  23    -0.0029732899722631
  24    -0.00087358233229261
  25    -0.00035128025966578
  26    0.00080150896342858
  27    -0.00025273786685988
  28    -0.00037588331664175
  29    0.00028095494836973
  30    0.00013982574904942
  31    -0.0010570600169397
  32    0.0038910247909301
  33     0.022773544185488
  34    -0.00029115341432506
  35    0.0024245037957512
  36    0.00083055188438403
  37    0.0003433319287727
  38    -0.0012036536060959
  39    -0.00075641883168779
  40    0.0023694922204227
  41     0.004637230620484
  42    -0.00066469506169426
  43     0.001049330018541
  44    0.00045065859886873
  45    -0.00033827868452464
  46    -0.00043931573291244
  47    -0.00050764277555242
  48    -0.00056685480192755
  49    0.0012787487877555
  50    -0.00043367012179129
  51    0.00043910751813951
  52    6.8541678111302e-05
  53    7.9140593794007e-05
  54    -0.00040196345068379
  55    -0.0021509630464607
  56    0.00047711281658763
  57    0.0060819083754752
  58    -5.9916974283739e-05
  59    5.2409049518797e-05
  60    0.00019094342339164
  61    -0.00017451554842518
  62    6.3462001170357e-05
  63    -0.00036011020792143
  64    0.00012706485810363
  65    -2.9935972903677e-06
  66    -5.4579936589606e-06
  67    -6.3050114219898e-07
  68    -1.0170130125718e-07
  69    6.2001100629824e-06
  70    -2.6560965854651e-06
  71    1.1822420012072e-06
  72    -9.1745355255346e-08
  73    7.7964553350924e-06
  74    2.4789744804275e-05
  75    9.8008125555995e-06
  76    -6.8450973524547e-07
  77    -7.9428680335134e-08
  78    -8.8942050833885e-09
  79    6.5723777357719e-07
  80    -2.0664998711126e-07
  81    1.647571759388e-06
  82    1.115461107825e-05
  83    2.5245483400355e-06
  84    -2.0168314658549e-06
  85    -5.6807854887089e-05
  86    1.5136053601754e-05
  87    4.5590479095375e-08
  88    1.7554244103344e-05
  89    2.6029434005908e-05
  90    -5.3864674207639e-05
  91    1.3387582058542e-05
  92    2.758507476247e-07
  93    -1.6709234508432e-06
  94    2.4817815023031e-06
  95    -7.1358143728076e-07
  96    -1.145236751104e-06
  97    1.0368391483883e-05
  98    1.4536177400465e-05
  99    4.1685409470001e-06
 100    -6.7074425044304e-06
 101    -1.3286411990987e-05
 102    8.1657696413364e-06
 103    0.00023812079032555
 104    -3.6327809337247e-05
 105    1.2483421279652e-05
 106    -2.7088718776013e-05
 107    -0.00016361374170473
 108    0.00015448125008091
 109    9.023163409837e-05
 110    -5.8584682542075e-06
 111    7.2396982501748e-07
 112    -7.5487134782852e-08
 113    2.4300041801065e-06
 114    -4.6120103086401e-06
 115    -4.4567336699848e-06
 116    -2.4469709798257e-05
 117    0.00020692711870632
 118    -2.2413584698939e-06
 119    3.372463634328e-06
 120    -1.140488267209e-05
 121    -3.2365451585963e-05
 122    -6.8365863577947e-06
 123    -1.8344292885221e-06
 124    9.1200284645446e-07
 125    -1.9814765855823e-06
 126    -1.2038634893036e-06
 127    7.3132358427396e-07
 128    -1.330916366584e-06
 129    -1.568735396097e-05
 130    -1.772229912937e-05
 131    0.00012228510611631
 132    2.6516175793413e-05
 133    -2.5723145573713e-05
 134    -6.5283893664482e-06
 135    -0.00028496854000078
 136    4.7338031265489e-05
 137    -0.00032440484166484
 138    4.3287015591236e-06
 139    1.7304635875252e-05
 140    3.216992754928e-06
 141    5.4558875509584e-06
 142    3.583402295386e-06
 143    6.0187537142618e-06
 144    -2.9042513064548e-05
 145    -3.1184119407397e-05
 146    -1.8581098116742e-05
 147    2.4395601581831e-05
 148    3.7753415821379e-05
 149    -1.4908770301812e-05
 150    -3.5771356243762e-06
 151    -1.7713012247845e-05
 152    -5.1655738931728e-06
 153    -2.3426807802375e-06
 154    -2.1695460367633e-06
 155    3.3386765394225e-06
 156    -2.2843170291558e-06
 157    1.9249053941311e-06
 158    5.5390610311288e-06
 159    -1.7555866728696e-05
 160    1.2709779765496e-05
 161    -4.1665281749546e-06
 162    1.4672825099751e-05
 163    -2.606610315109e-05
 164    8.5259586334048e-06
 165    1.2515670990928e-05
 166    3.3180156477693e-06
 167    -6.015484990846e-07
 168    -4.6431882859452e-07
 169    -4.0644050091142e-08
 170     1.62352508712e-06
 171    7.5512576816888e-07
 172    -1.1279525980414e-05
 173    1.5640491593264e-05
 174    1.7507056566088e-06
 175    2.6018666408765e-07
 176    2.800601766271e-05
 177    -5.0645454221047e-06
 178    -2.6260817123981e-06
 179    -1.3959055137113e-05
 180    1.3481075495612e-06
 181    3.1864859023802e-06
 182    6.4898417499671e-07
 183    -2.5506725955471e-06
 184    3.971395422414e-07
 185    -4.4520214644527e-06
 186    -2.0507296490266e-05
 187    7.7333079693447e-05
 188    -1.4590932600726e-06
 189    -6.628535253771e-06
 190    -9.0559826362031e-06
 191    -2.2684003713708e-06
 192    -1.3649855486104e-05
 193    -7.1029499383636e-05
 194    2.2702939060325e-06
 195    2.5060695141708e-06
 196    6.3954876040781e-07
 197    -8.2153242785279e-08
 198    1.6248186598463e-07
 199    -7.2893085182166e-06
 200    -1.0553504116799e-06
 201    -1.1011770015358e-05
 202    2.9015004515607e-06
 203    -1.3163359400246e-05
 204    -1.6206888719514e-05
 205    2.0998673659027e-06
 206    -1.8968963259964e-05
 207    1.4809336026243e-05
 208    -7.996024493233e-05
 209    -2.8209282467568e-07
 210    -2.3459929424014e-05
 211    4.765590359479e-06
 212    1.6022660284537e-05
 213    7.6936413350332e-07
 214    -1.4014758907724e-05
 215    -9.2516180545219e-06
 216    -3.9251350945928e-05
 217    3.9775048547752e-06
 218    3.8490382940558e-06
 219    5.7899092039572e-06
 220    6.476419415833e-06
 221    1.4993010848062e-05
 222    -2.7291444374131e-05
 223    0.00062465715810022
 224    -0.00021334530345522
 225    1.6861582929664e-05
 226    5.9572814463778e-05
 227    0.00045836428527826
 228    0.00025057598517171
 229    -0.00060926543510471
 230    2.3737648655245e-06
 231    -2.5402206758919e-05
 232    -1.9721610865905e-05
 233    1.7088660761208e-05
 234    1.7926250715923e-05
 235    -0.00021109584406655
 236    0.00027006417651261
 237    0.00058488823612041
 238    -0.00011322671677203
 239    0.0001493687038485
 240    -0.00049461995219119
 241    0.00010510787944994
 242    0.00032743000248278
 243    -0.001559625176817
 244    3.5578497870885e-05
 245    5.6636666060516e-05
 246    7.9347403915618e-06
 247    1.823523151217e-05
 248    2.0811578778765e-06
 249    7.3642585349831e-05
 250    0.00034178471991404
 251    0.00015991723543672
 252    -0.00025452237648448
 253     0.001159093312125
 254    0.0006723894438385
 255    4.4200453158259e-05
 256    0.0006854413514765
 257    -0.00030847462897879
 258    0.00036967409820931
 259    -0.0014508377553192
 260    -4.0865233168517e-05
 261    3.9036166836935e-06
 262    -1.7715505171813e-05
 263    0.00010211055582644
 264    7.3927729304571e-05
 265    -5.0775048458331e-05
 266    9.3478408101775e-05
 267    -0.00052447248481459
 268    -0.00095274493153251
 269    -0.00011426103613312
 270    -0.00042961221778244
 271    0.0047390986460347
 272    4.4734917870991e-05
 273    0.00019798846910904
 274    0.00022164062278516
 275    -0.0018621244453708
 276    -0.0016692278081724
 277    0.0018077234362092
 278    4.6853942068545e-05
 279    -0.00013174695764367
 280    -3.7803663991544e-05
 281    1.6755992499205e-06