[Molden Format]
made by pyscf v[2.0.1]
[Atoms] (AU)
C   1   6     0.69100024066471     0.64692934207205    -3.48223131169301
H   2   1     2.68052439830868     1.13355088658700    -3.25784032593313
C   3   6    -0.36286361513219     0.85440132524594    -5.97030179418974
H   4   1    -2.35448549047279     0.36322488579172    -6.17995817793143
C   5   6     0.93697958957450     1.61209284601821    -8.05828437677121
H   6   1     1.06549067678056     3.62267689696451    -8.48487489511106
C   7   6     2.16736557798100    -0.10534186648568    -9.75912299477448
H   8   1     2.02320928491733    -2.11383137749881    -9.30645195914250
H   9   1     1.55630230933075    -1.92953025305990    12.99630010416247
C   10   6     0.75233899775814    -2.21270439606481    11.10705728102219
H   11   1    -0.43433408177274    -3.90944857546550    11.22216085340412
C   12   6     2.86362581178706    -2.63237380607947     9.17926416456045
H   13   1     4.39038949912609    -1.24955421540245     9.49899813497433
H   14   1     3.74629220191363    -4.48798724300892     9.47414880959024
C   15   6     2.02478325613682    -2.42177285709634     6.44560829588644
C   16   6     3.88048732735477    -3.58795445234514     4.61402886975252
C   17   6    -0.18412382258602    -1.30464291234259     5.76021113872346
C   18   6    -2.10044360464350    -0.26837831858460     7.71610340967100
C   19   6    -3.08956938670431     2.35282328359417     6.88693925039594
C   20   6    -4.37372924086464    -2.09766595989678     7.93610724222001
C   21   6    -0.83850430601230     0.06372213486173    10.33002307638377
H   22   1     0.38411922151109     1.74281358582432    10.27380136542181
H   23   1    -2.30980003007874     0.45460143924521    11.73986301809809
H   24   1     4.58527064644668    -5.38706904487420     5.36778158031719
H   25   1     5.54944938085014    -2.37631462192748     4.35398898413318
H   26   1     3.06633019150423    -3.94118377050688     2.75255466040884
H   27   1    -4.17727778763735     2.26573369139522     5.12914900961283
H   28   1    -1.52662344944051     3.68001877445626     6.59540397144508
H   29   1    -4.32916174397830     3.13643051467482     8.35225460090378
H   30   1    -5.32329548508442    -2.36691813602939     6.11583672749896
H   31   1    -5.77989366602257    -1.33896741843465     9.25748940450990
H   32   1    -3.79310905208926    -3.96389819310853     8.61386170102686
C   33   6    -1.01100794811226    -1.06331657314144     3.11929490449947
C   34   6     0.37686231036534    -0.33275864505552     1.09165013605873
H   35   1    -3.01671213906703    -1.40297922279997     2.77827895090944
C   36   6    -0.64382707979370    -0.11591880174385    -1.42063131251064
H   37   1     2.35569259782137     0.17174499283897     1.33641070251401
H   38   1    -2.63317482980319    -0.60229203511219    -1.66119700387645
C   39   6     3.47875288242203     0.56169257871714   -11.85961387583028
C   40   6     4.66516051155728    -1.33401759756945   -13.47384510134906
H   41   1     3.69428385946791     2.52875803282145   -12.41815504578381
O   42   8     5.86788117255002    -0.86880199432758   -15.38639878207248
H   43   1     4.39675898316744    -3.32256790318547   -12.83056660829343
[GTO]
1 0
 s    6 1.00
             3047.5249  0.0018347001629433
             457.36951    0.01403730124668
             103.94869   0.068842606114048
             29.210155    0.23218442062076
              9.286663    0.46794134155879
              3.163927    0.36231203217765
 s    3 1.00
             7.8682724   -0.11933240861517
             1.8812885   -0.16085421161283
             0.5442493     1.1434564825515
 s    1 1.00
             0.1687144                   1
 p    3 1.00
             7.8682724   0.068999095584993
             1.8812885    0.31642397975315
             0.5442493    0.74430825237435
 p    1 1.00
             0.1687144                   1
 d    1 1.00
                   0.8                   1

2 0
 s    3 1.00
             18.731137    0.03349459952309
             2.8253937    0.23472694665786
             0.6401217    0.81375731841339
 s    1 1.00
             0.1612778                   1

3 0
 s    6 1.00
             3047.5249  0.0018347001629433
             457.36951    0.01403730124668
             103.94869   0.068842606114048
             29.210155    0.23218442062076
              9.286663    0.46794134155879
              3.163927    0.36231203217765
 s    3 1.00
             7.8682724   -0.11933240861517
             1.8812885   -0.16085421161283
             0.5442493     1.1434564825515
 s    1 1.00
             0.1687144                   1
 p    3 1.00
             7.8682724   0.068999095584993
             1.8812885    0.31642397975315
             0.5442493    0.74430825237435
 p    1 1.00
             0.1687144                   1
 d    1 1.00
                   0.8                   1

4 0
 s    3 1.00
             18.731137    0.03349459952309
             2.8253937    0.23472694665786
             0.6401217    0.81375731841339
 s    1 1.00
             0.1612778                   1

5 0
 s    6 1.00
             3047.5249  0.0018347001629433
             457.36951    0.01403730124668
             103.94869   0.068842606114048
             29.210155    0.23218442062076
              9.286663    0.46794134155879
              3.163927    0.36231203217765
 s    3 1.00
             7.8682724   -0.11933240861517
             1.8812885   -0.16085421161283
             0.5442493     1.1434564825515
 s    1 1.00
             0.1687144                   1
 p    3 1.00
             7.8682724   0.068999095584993
             1.8812885    0.31642397975315
             0.5442493    0.74430825237435
 p    1 1.00
             0.1687144                   1
 d    1 1.00
                   0.8                   1

6 0
 s    3 1.00
             18.731137    0.03349459952309
             2.8253937    0.23472694665786
             0.6401217    0.81375731841339
 s    1 1.00
             0.1612778                   1

7 0
 s    6 1.00
             3047.5249  0.0018347001629433
             457.36951    0.01403730124668
             103.94869   0.068842606114048
             29.210155    0.23218442062076
              9.286663    0.46794134155879
              3.163927    0.36231203217765
 s    3 1.00
             7.8682724   -0.11933240861517
             1.8812885   -0.16085421161283
             0.5442493     1.1434564825515
 s    1 1.00
             0.1687144                   1
 p    3 1.00
             7.8682724   0.068999095584993
             1.8812885    0.31642397975315
             0.5442493    0.74430825237435
 p    1 1.00
             0.1687144                   1
 d    1 1.00
                   0.8                   1

8 0
 s    3 1.00
             18.731137    0.03349459952309
             2.8253937    0.23472694665786
             0.6401217    0.81375731841339
 s    1 1.00
             0.1612778                   1

9 0
 s    3 1.00
             18.731137    0.03349459952309
             2.8253937    0.23472694665786
             0.6401217    0.81375731841339
 s    1 1.00
             0.1612778                   1

10 0
 s    6 1.00
             3047.5249  0.0018347001629433
             457.36951    0.01403730124668
             103.94869   0.068842606114048
             29.210155    0.23218442062076
              9.286663    0.46794134155879
              3.163927    0.36231203217765
 s    3 1.00
             7.8682724   -0.11933240861517
             1.8812885   -0.16085421161283
             0.5442493     1.1434564825515
 s    1 1.00
             0.1687144                   1
 p    3 1.00
             7.8682724   0.068999095584993
             1.8812885    0.31642397975315
             0.5442493    0.74430825237435
 p    1 1.00
             0.1687144                   1
 d    1 1.00
                   0.8                   1

11 0
 s    3 1.00
             18.731137    0.03349459952309
             2.8253937    0.23472694665786
             0.6401217    0.81375731841339
 s    1 1.00
             0.1612778                   1

12 0
 s    6 1.00
             3047.5249  0.0018347001629433
             457.36951    0.01403730124668
             103.94869   0.068842606114048
             29.210155    0.23218442062076
              9.286663    0.46794134155879
              3.163927    0.36231203217765
 s    3 1.00
             7.8682724   -0.11933240861517
             1.8812885   -0.16085421161283
             0.5442493     1.1434564825515
 s    1 1.00
             0.1687144                   1
 p    3 1.00
             7.8682724   0.068999095584993
             1.8812885    0.31642397975315
             0.5442493    0.74430825237435
 p    1 1.00
             0.1687144                   1
 d    1 1.00
                   0.8                   1

13 0
 s    3 1.00
             18.731137    0.03349459952309
             2.8253937    0.23472694665786
             0.6401217    0.81375731841339
 s    1 1.00
             0.1612778                   1

14 0
 s    3 1.00
             18.731137    0.03349459952309
             2.8253937    0.23472694665786
             0.6401217    0.81375731841339
 s    1 1.00
             0.1612778                   1

15 0
 s    6 1.00
             3047.5249  0.0018347001629433
             457.36951    0.01403730124668
             103.94869   0.068842606114048
             29.210155    0.23218442062076
              9.286663    0.46794134155879
              3.163927    0.36231203217765
 s    3 1.00
             7.8682724   -0.11933240861517
             1.8812885   -0.16085421161283
             0.5442493     1.1434564825515
 s    1 1.00
             0.1687144                   1
 p    3 1.00
             7.8682724   0.068999095584993
             1.8812885    0.31642397975315
             0.5442493    0.74430825237435
 p    1 1.00
             0.1687144                   1
 d    1 1.00
                   0.8                   1

16 0
 s    6 1.00
             3047.5249  0.0018347001629433
             457.36951    0.01403730124668
             103.94869   0.068842606114048
             29.210155    0.23218442062076
              9.286663    0.46794134155879
              3.163927    0.36231203217765
 s    3 1.00
             7.8682724   -0.11933240861517
             1.8812885   -0.16085421161283
             0.5442493     1.1434564825515
 s    1 1.00
             0.1687144                   1
 p    3 1.00
             7.8682724   0.068999095584993
             1.8812885    0.31642397975315
             0.5442493    0.74430825237435
 p    1 1.00
             0.1687144                   1
 d    1 1.00
                   0.8                   1

17 0
 s    6 1.00
             3047.5249  0.0018347001629433
             457.36951    0.01403730124668
             103.94869   0.068842606114048
             29.210155    0.23218442062076
              9.286663    0.46794134155879
              3.163927    0.36231203217765
 s    3 1.00
             7.8682724   -0.11933240861517
             1.8812885   -0.16085421161283
             0.5442493     1.1434564825515
 s    1 1.00
             0.1687144                   1
 p    3 1.00
             7.8682724   0.068999095584993
             1.8812885    0.31642397975315
             0.5442493    0.74430825237435
 p    1 1.00
             0.1687144                   1
 d    1 1.00
                   0.8                   1

18 0
 s    6 1.00
             3047.5249  0.0018347001629433
             457.36951    0.01403730124668
             103.94869   0.068842606114048
             29.210155    0.23218442062076
              9.286663    0.46794134155879
              3.163927    0.36231203217765
 s    3 1.00
             7.8682724   -0.11933240861517
             1.8812885   -0.16085421161283
             0.5442493     1.1434564825515
 s    1 1.00
             0.1687144                   1
 p    3 1.00
             7.8682724   0.068999095584993
             1.8812885    0.31642397975315
             0.5442493    0.74430825237435
 p    1 1.00
             0.1687144                   1
 d    1 1.00
                   0.8                   1

19 0
 s    6 1.00
             3047.5249  0.0018347001629433
             457.36951    0.01403730124668
             103.94869   0.068842606114048
             29.210155    0.23218442062076
              9.286663    0.46794134155879
              3.163927    0.36231203217765
 s    3 1.00
             7.8682724   -0.11933240861517
             1.8812885   -0.16085421161283
             0.5442493     1.1434564825515
 s    1 1.00
             0.1687144                   1
 p    3 1.00
             7.8682724   0.068999095584993
             1.8812885    0.31642397975315
             0.5442493    0.74430825237435
 p    1 1.00
             0.1687144                   1
 d    1 1.00
                   0.8                   1

20 0
 s    6 1.00
             3047.5249  0.0018347001629433
             457.36951    0.01403730124668
             103.94869   0.068842606114048
             29.210155    0.23218442062076
              9.286663    0.46794134155879
              3.163927    0.36231203217765
 s    3 1.00
             7.8682724   -0.11933240861517
             1.8812885   -0.16085421161283
             0.5442493     1.1434564825515
 s    1 1.00
             0.1687144                   1
 p    3 1.00
             7.8682724   0.068999095584993
             1.8812885    0.31642397975315
             0.5442493    0.74430825237435
 p    1 1.00
             0.1687144                   1
 d    1 1.00
                   0.8                   1

21 0
 s    6 1.00
             3047.5249  0.0018347001629433
             457.36951    0.01403730124668
             103.94869   0.068842606114048
             29.210155    0.23218442062076
              9.286663    0.46794134155879
              3.163927    0.36231203217765
 s    3 1.00
             7.8682724   -0.11933240861517
             1.8812885   -0.16085421161283
             0.5442493     1.1434564825515
 s    1 1.00
             0.1687144                   1
 p    3 1.00
             7.8682724   0.068999095584993
             1.8812885    0.31642397975315
             0.5442493    0.74430825237435
 p    1 1.00
             0.1687144                   1
 d    1 1.00
                   0.8                   1

22 0
 s    3 1.00
             18.731137    0.03349459952309
             2.8253937    0.23472694665786
             0.6401217    0.81375731841339
 s    1 1.00
             0.1612778                   1

23 0
 s    3 1.00
             18.731137    0.03349459952309
             2.8253937    0.23472694665786
             0.6401217    0.81375731841339
 s    1 1.00
             0.1612778                   1

24 0
 s    3 1.00
             18.731137    0.03349459952309
             2.8253937    0.23472694665786
             0.6401217    0.81375731841339
 s    1 1.00
             0.1612778                   1

25 0
 s    3 1.00
             18.731137    0.03349459952309
             2.8253937    0.23472694665786
             0.6401217    0.81375731841339
 s    1 1.00
             0.1612778                   1

26 0
 s    3 1.00
             18.731137    0.03349459952309
             2.8253937    0.23472694665786
             0.6401217    0.81375731841339
 s    1 1.00
             0.1612778                   1

27 0
 s    3 1.00
             18.731137    0.03349459952309
             2.8253937    0.23472694665786
             0.6401217    0.81375731841339
 s    1 1.00
             0.1612778                   1

28 0
 s    3 1.00
             18.731137    0.03349459952309
             2.8253937    0.23472694665786
             0.6401217    0.81375731841339
 s    1 1.00
             0.1612778                   1

29 0
 s    3 1.00
             18.731137    0.03349459952309
             2.8253937    0.23472694665786
             0.6401217    0.81375731841339
 s    1 1.00
             0.1612778                   1

30 0
 s    3 1.00
             18.731137    0.03349459952309
             2.8253937    0.23472694665786
             0.6401217    0.81375731841339
 s    1 1.00
             0.1612778                   1

31 0
 s    3 1.00
             18.731137    0.03349459952309
             2.8253937    0.23472694665786
             0.6401217    0.81375731841339
 s    1 1.00
             0.1612778                   1

32 0
 s    3 1.00
             18.731137    0.03349459952309
             2.8253937    0.23472694665786
             0.6401217    0.81375731841339
 s    1 1.00
             0.1612778                   1

33 0
 s    6 1.00
             3047.5249  0.0018347001629433
             457.36951    0.01403730124668
             103.94869   0.068842606114048
             29.210155    0.23218442062076
              9.286663    0.46794134155879
              3.163927    0.36231203217765
 s    3 1.00
             7.8682724   -0.11933240861517
             1.8812885   -0.16085421161283
             0.5442493     1.1434564825515
 s    1 1.00
             0.1687144                   1
 p    3 1.00
             7.8682724   0.068999095584993
             1.8812885    0.31642397975315
             0.5442493    0.74430825237435
 p    1 1.00
             0.1687144                   1
 d    1 1.00
                   0.8                   1

34 0
 s    6 1.00
             3047.5249  0.0018347001629433
             457.36951    0.01403730124668
             103.94869   0.068842606114048
             29.210155    0.23218442062076
              9.286663    0.46794134155879
              3.163927    0.36231203217765
 s    3 1.00
             7.8682724   -0.11933240861517
             1.8812885   -0.16085421161283
             0.5442493     1.1434564825515
 s    1 1.00
             0.1687144                   1
 p    3 1.00
             7.8682724   0.068999095584993
             1.8812885    0.31642397975315
             0.5442493    0.74430825237435
 p    1 1.00
             0.1687144                   1
 d    1 1.00
                   0.8                   1

35 0
 s    3 1.00
             18.731137    0.03349459952309
             2.8253937    0.23472694665786
             0.6401217    0.81375731841339
 s    1 1.00
             0.1612778                   1

36 0
 s    6 1.00
             3047.5249  0.0018347001629433
             457.36951    0.01403730124668
             103.94869   0.068842606114048
             29.210155    0.23218442062076
              9.286663    0.46794134155879
              3.163927    0.36231203217765
 s    3 1.00
             7.8682724   -0.11933240861517
             1.8812885   -0.16085421161283
             0.5442493     1.1434564825515
 s    1 1.00
             0.1687144                   1
 p    3 1.00
             7.8682724   0.068999095584993
             1.8812885    0.31642397975315
             0.5442493    0.74430825237435
 p    1 1.00
             0.1687144                   1
 d    1 1.00
                   0.8                   1

37 0
 s    3 1.00
             18.731137    0.03349459952309
             2.8253937    0.23472694665786
             0.6401217    0.81375731841339
 s    1 1.00
             0.1612778                   1

38 0
 s    3 1.00
             18.731137    0.03349459952309
             2.8253937    0.23472694665786
             0.6401217    0.81375731841339
 s    1 1.00
             0.1612778                   1

39 0
 s    6 1.00
             3047.5249  0.0018347001629433
             457.36951    0.01403730124668
             103.94869   0.068842606114048
             29.210155    0.23218442062076
              9.286663    0.46794134155879
              3.163927    0.36231203217765
 s    3 1.00
             7.8682724   -0.11933240861517
             1.8812885   -0.16085421161283
             0.5442493     1.1434564825515
 s    1 1.00
             0.1687144                   1
 p    3 1.00
             7.8682724   0.068999095584993
             1.8812885    0.31642397975315
             0.5442493    0.74430825237435
 p    1 1.00
             0.1687144                   1
 d    1 1.00
                   0.8                   1

40 0
 s    6 1.00
             3047.5249  0.0018347001629433
             457.36951    0.01403730124668
             103.94869   0.068842606114048
             29.210155    0.23218442062076
              9.286663    0.46794134155879
              3.163927    0.36231203217765
 s    3 1.00
             7.8682724   -0.11933240861517
             1.8812885   -0.16085421161283
             0.5442493     1.1434564825515
 s    1 1.00
             0.1687144                   1
 p    3 1.00
             7.8682724   0.068999095584993
             1.8812885    0.31642397975315
             0.5442493    0.74430825237435
 p    1 1.00
             0.1687144                   1
 d    1 1.00
                   0.8                   1

41 0
 s    3 1.00
             18.731137    0.03349459952309
             2.8253937    0.23472694665786
             0.6401217    0.81375731841339
 s    1 1.00
             0.1612778                   1

42 0
 s    6 1.00
             5484.6717   0.001831099805527
             825.23495   0.013950098518422
             188.04696    0.06844509273075
               52.9645    0.23271427528445
              16.89757    0.47019295006289
             5.7996353    0.35852086192309
 s    3 1.00
             15.539616   -0.11077750382508
             3.5999336   -0.14802630511126
             1.0137618     1.1307670390447
 s    1 1.00
             0.2700058                   1
 p    3 1.00
             15.539616   0.070874299543311
             3.5999336    0.33975279781076
             1.0137618    0.72715859531445
 p    1 1.00
             0.2700058                   1
 d    1 1.00
                   0.8                   1

43 0
 s    3 1.00
             18.731137    0.03349459952309
             2.8253937    0.23472694665786
             0.6401217    0.81375731841339
 s    1 1.00
             0.1612778                   1

[5d]
[7f]
[9g]

[MO]
 Sym= A
 Ene=               0
 Spin= Alpha
 Occup=    1.00000
   1     0.018110113226733
   2    -0.00093444946034213
   3    0.0069572345121473
   4    0.00040784338353109
   5    -0.00012087047611853
   6    0.0011944543735521
   7    0.00081703573262242
   8     0.001201126227289
   9    -0.0053882165295177
  10    -0.0008712196137863
  11    -0.00084666504457074
  12    0.00014100501277248
  13    -0.00021512365501385
  14    3.0701560477717e-05
  15    -0.00052531754320036
  16    -0.00097371304415723
  17      0.99488845164858
  18     0.036864006142053
  19    -0.028292093508803
  20    0.00093035266658777
  21    0.00016056639590036
  22    -0.00054334365909777
  23    -0.0034853274835041
  24    -0.0010327083936323
  25    -0.00080583225034131
  26    0.0007710689916683
  27    -0.0002958810750775
  28    -0.00034245337692161
  29    0.00029914497860009
  30    0.00019866049344243
  31    -0.0011147433860806
  32    0.0038595696251292
  33     0.012967262656508
  34    -0.00026860118317548
  35    0.00084690475033541
  36    0.0008313307148594
  37    0.00032557589744476
  38    -0.0011222765665997
  39    -0.0022265422894541
  40    0.0035469777100523
  41    0.0041069596295034
  42    -0.00060647459244691
  43    0.0011718334813625
  44    0.00044892767273487
  45    -0.00033476919941399
  46    -0.00038451926021733
  47    -0.0005486113555121
  48    -0.0006019018516996
  49    7.6265791421989e-05
  50    -0.0005364182878442
  51    0.0003755622331448
  52    0.0002364257081551
  53    4.0001423021713e-05
  54    -0.00040638797898477
  55    -0.0046596648193678
  56    0.0011592895979356
  57    0.0070248776810599
  58    -0.00014411391214834
  59    -1.4557795742576e-05
  60    0.00016667475789169
  61    -0.00024511888805724
  62    -0.00016865213840329
  63    -0.0004610491554363
  64    0.00029789351727343
  65    -2.3612308833604e-06
  66    -1.9937931583014e-06
  67    -3.9985221957756e-07
  68    -2.1558605810401e-06
  69    6.6533383325824e-06
  70    -4.9635545683045e-06
  71    1.5043399610757e-06
  72    2.5076949753059e-06
  73    8.3416141190363e-06
  74    3.1263890767552e-05
  75    7.8919240615927e-06
  76    -4.3636237534081e-07
  77    1.8438718525712e-07
  78    -5.7970250523292e-08
  79    7.8817500593046e-07
  80    4.1451657617399e-08
  81    2.6094759735642e-06
  82    1.508787899442e-05
  83    2.6603645553761e-06
  84    -1.0035490298573e-06
  85    -7.3230061790984e-05
  86    1.9585812388866e-05
  87    4.0427055262295e-06
  88    1.674337378226e-05
  89    3.2727079122886e-05
  90    -6.5558421991243e-05
  91    1.5649627085755e-05
  92    1.7130313749709e-07
  93    -1.4902936225066e-06
  94    4.1067381637358e-06
  95    -5.876505105323e-07
  96    -5.673271606402e-07
  97    1.7737655840819e-05
  98    2.5336938387016e-05
  99    5.315939022038e-07
 100    -1.5584169293417e-05
 101    -1.4107348970423e-05
 102    8.3189334656989e-06
 103    0.00028569771161359
 104    -5.062943592505e-05
 105    -9.4768204106239e-06
 106    -2.7071910014392e-05
 107    -0.00020247275850204
 108    0.00017487445768174
 109    0.00011426446005629
 110    -6.2946025362488e-06
 111    1.3713958977543e-06
 112    -6.6499791411697e-08
 113    2.6182036777523e-06
 114    -5.0798551546977e-06
 115    -5.2188945773649e-06
 116    -2.5811173000623e-05
 117    0.00023549284577511
 118    -1.865305900019e-06
 119    7.1727846687381e-06
 120    -1.6389279164043e-05
 121    -3.9233963038591e-05
 122    -7.2747450831007e-06
 123    5.4288872237094e-06
 124    1.2465984441736e-06
 125    -3.2380777401778e-06
 126    -1.8116375954453e-06
 127    1.9465979966444e-06
 128    -9.911873567216e-07
 129    -1.6224188188069e-05
 130    -2.1732402384115e-05
 131    0.00017257164976068
 132    2.2290709258761e-05
 133    -4.3537193521405e-05
 134    -9.3609790829262e-06
 135    -0.00036836920240217
 136    2.5851348337247e-05
 137    -0.00039161653088751
 138    5.1233176151224e-06
 139    2.0125619507562e-05
 140    4.0512954233887e-06
 141    4.9900803491526e-06
 142    4.3822243690583e-06
 143    6.1435029312128e-06
 144    -3.7482151540149e-05
 145    -3.0203493877992e-05
 146    -1.9867601338093e-05
 147    2.8317520670794e-05
 148    4.7474842401219e-05
 149    -1.670391124803e-05
 150    2.2104072409295e-05
 151    -4.4526330156943e-05
 152    -5.8529713128562e-06
 153    -2.6711845877133e-06
 154    -3.4191928136085e-06
 155    3.135031517479e-06
 156    -3.9743877442887e-06
 157    2.3363503613244e-06
 158    1.1473957736547e-05
 159    -4.679735403478e-05
 160    1.5567185677219e-05
 161    -6.3491407099657e-06
 162    1.5732904735992e-05
 163    -3.6803268646404e-05
 164    1.9186884293629e-05
 165    1.8973186619817e-05
 166    4.8325602471379e-06
 167    -1.2629438301148e-06
 168    -5.7128259182469e-07
 169    4.6923904166532e-07
 170    2.3558257456665e-06
 171    1.5298478075968e-06
 172    -1.4265979653404e-05
 173    1.2621499044838e-05
 174    -3.3551619089707e-06
 175    -1.4251957438886e-06
 176    2.9694915608839e-05
 177    4.1775169702412e-06
 178    -1.0462636718682e-06
 179    -1.2800915563672e-05
 180    1.269604250116e-06
 181    4.6313465945485e-06
 182    1.0735734181369e-06
 183    -2.1380842285489e-06
 184    1.2288361316164e-06
 185    -5.6341027129596e-06
 186    -2.5138804931546e-05
 187    0.00010304671154458
 188    -2.1316888233007e-06
 189    -7.0574331799489e-06
 190    -1.2969193003737e-05
 191    -7.0650649038556e-06
 192    -1.942496878069e-05
 193    -8.6929441124818e-05
 194    2.6891055660645e-06
 195    3.5843832654345e-06
 196    1.7615788756103e-06
 197    -3.518294258709e-07
 198    4.7841233686522e-07
 199    -8.3076145353275e-06
 200    -1.8862812935551e-07
 201    -1.4235091996241e-05
 202    4.190153843797e-07
 203    -1.9445304070206e-05
 204    -2.5729583543104e-05
 205    8.4823449075587e-06
 206    -1.4724980345598e-05
 207    1.5492894224773e-05
 208    -7.8844818873049e-05
 209    1.9208617628864e-06
 210    -2.3620395121943e-05
 211    6.6470734488297e-06
 212    1.9701244227275e-05
 213    3.9751193681071e-07
 214    -2.0020038160663e-05
 215    -1.1108881747166e-05
 216    -2.3778821451924e-05
 217    5.292818629182e-06
 218    8.2532974408841e-06
 219    5.8039590870551e-06
 220    5.7585230351361e-06
 221    1.2017855929501e-05
 222    -5.740115451415e-05
 223    0.00090029080692421
 224    -0.00021514025332548
 225    3.5935012759152e-05
 226    6.9954134174532e-05
 227    0.00053837234484679
 228    0.00033727244984815
 229    -0.00086806252424362
 230    7.1207511599329e-06
 231    -3.5890344530772e-05
 232    -2.74667322303e-05
 233    2.1159384639193e-05
 234    2.2351163024557e-05
 235    -0.00020952604732609
 236    0.00028677885005323
 237    8.9910102360094e-05
 238    -0.00012631063615009
 239    0.00017792242625389
 240    -0.00047397170535446
 241    0.00025592139173338
 242    0.00043022904679662
 243    -0.0016569494637642
 244    2.3860664423249e-05
 245    6.8771834904763e-05
 246    1.0961404327478e-05
 247    2.1779543084018e-05
 248    -2.7949767572189e-06
 249    6.2530715046774e-05
 250    0.00033911406454472
 251    0.00015341973428413
 252    -0.00030747969644121
 253    0.0019796027545651
 254    0.00065661649453971
 255    6.8005380254721e-05
 256    0.00068636702328789
 257    0.00011519018498605
 258    0.00042531464486378
 259    -0.0015683187749629
 260    -2.9853926432236e-05
 261    -9.4344649998475e-06
 262    -1.7171392904385e-05
 263    0.00011693150367468
 264    7.2724710196971e-05
 265    -6.4126327507251e-05
 266    0.00011512404047889
 267    -0.00051287908126546
 268    -0.00084946911118557
 269    -0.00012672482545814
 270    -0.00057586255539853
 271    0.0063815009650928
 272    -0.00011757834323002
 273    0.00027362500202622
 274    0.00021153055171909
 275    -0.0015758319304464
 276    -0.0026340513035655
 277    0.0026191627541885
 278    7.3748745949093e-05
 279    -0.00017074241969459
 280    -9.1867984424608e-05
 281    -3.4069311855183e-05