[Molden Format]
made by pyscf v[2.0.1]
[Atoms] (AU)
C   1   6     0.69100024066471     0.64692934207205    -3.48223131169301
H   2   1     2.68052439830868     1.13355088658700    -3.25784032593313
C   3   6    -0.36286361513219     0.85440132524594    -5.97030179418974
H   4   1    -2.35448549047279     0.36322488579172    -6.17995817793143
C   5   6     0.93697958957450     1.61209284601821    -8.05828437677121
H   6   1     0.91018176739439     3.60165715372829    -8.58918788754706
C   7   6     2.36275315943078    -0.07897264779665    -9.62791837868890
H   8   1     2.37293254336653    -2.06644965927173    -9.07154285055885
H   9   1     1.55630230933075    -1.92953025305990    12.99630010416247
C   10   6     0.75233899775814    -2.21270439606481    11.10705728102219
H   11   1    -0.43433408177274    -3.90944857546550    11.22216085340412
C   12   6     2.86362581178706    -2.63237380607947     9.17926416456045
H   13   1     4.39038949912609    -1.24955421540245     9.49899813497433
H   14   1     3.74629220191363    -4.48798724300892     9.47414880959024
C   15   6     2.02478325613682    -2.42177285709634     6.44560829588644
C   16   6     3.88048732735477    -3.58795445234514     4.61402886975252
C   17   6    -0.18412382258602    -1.30464291234259     5.76021113872346
C   18   6    -2.10044360464350    -0.26837831858460     7.71610340967100
C   19   6    -3.08956938670431     2.35282328359417     6.88693925039594
C   20   6    -4.37372924086464    -2.09766595989678     7.93610724222001
C   21   6    -0.83850430601230     0.06372213486173    10.33002307638377
H   22   1     0.38411922151109     1.74281358582432    10.27380136542181
H   23   1    -2.30980003007874     0.45460143924521    11.73986301809809
H   24   1     4.58527064644668    -5.38706904487420     5.36778158031719
H   25   1     5.54944938085014    -2.37631462192748     4.35398898413318
H   26   1     3.06633019150423    -3.94118377050688     2.75255466040884
H   27   1    -4.17727778763735     2.26573369139522     5.12914900961283
H   28   1    -1.52662344944051     3.68001877445626     6.59540397144508
H   29   1    -4.32916174397830     3.13643051467482     8.35225460090378
H   30   1    -5.32329548508442    -2.36691813602939     6.11583672749896
H   31   1    -5.77989366602257    -1.33896741843465     9.25748940450990
H   32   1    -3.79310905208926    -3.96389819310853     8.61386170102686
C   33   6    -1.01100794811226    -1.06331657314144     3.11929490449947
C   34   6     0.37686231036534    -0.33275864505552     1.09165013605873
H   35   1    -3.01671213906703    -1.40297922279997     2.77827895090944
C   36   6    -0.64382707979370    -0.11591880174385    -1.42063131251064
H   37   1     2.35569259782137     0.17174499283897     1.33641070251401
H   38   1    -2.63317482980319    -0.60229203511219    -1.66119700387645
C   39   6     3.68212070775393     0.58885978377309   -11.72315169981470
C   40   6     5.07620914500435    -1.27889558400184   -13.19794995736473
H   41   1     3.74999971153331     2.53578027550937   -12.38092170581109
O   42   8     6.29809885748056    -0.81150016580158   -15.09777920785750
H   43   1     4.95468191731404    -3.24735743289555   -12.45594726186437
[GTO]
1 0
 s    6 1.00
             3047.5249  0.0018347001629433
             457.36951    0.01403730124668
             103.94869   0.068842606114048
             29.210155    0.23218442062076
              9.286663    0.46794134155879
              3.163927    0.36231203217765
 s    3 1.00
             7.8682724   -0.11933240861517
             1.8812885   -0.16085421161283
             0.5442493     1.1434564825515
 s    1 1.00
             0.1687144                   1
 p    3 1.00
             7.8682724   0.068999095584993
             1.8812885    0.31642397975315
             0.5442493    0.74430825237435
 p    1 1.00
             0.1687144                   1
 d    1 1.00
                   0.8                   1

2 0
 s    3 1.00
             18.731137    0.03349459952309
             2.8253937    0.23472694665786
             0.6401217    0.81375731841339
 s    1 1.00
             0.1612778                   1

3 0
 s    6 1.00
             3047.5249  0.0018347001629433
             457.36951    0.01403730124668
             103.94869   0.068842606114048
             29.210155    0.23218442062076
              9.286663    0.46794134155879
              3.163927    0.36231203217765
 s    3 1.00
             7.8682724   -0.11933240861517
             1.8812885   -0.16085421161283
             0.5442493     1.1434564825515
 s    1 1.00
             0.1687144                   1
 p    3 1.00
             7.8682724   0.068999095584993
             1.8812885    0.31642397975315
             0.5442493    0.74430825237435
 p    1 1.00
             0.1687144                   1
 d    1 1.00
                   0.8                   1

4 0
 s    3 1.00
             18.731137    0.03349459952309
             2.8253937    0.23472694665786
             0.6401217    0.81375731841339
 s    1 1.00
             0.1612778                   1

5 0
 s    6 1.00
             3047.5249  0.0018347001629433
             457.36951    0.01403730124668
             103.94869   0.068842606114048
             29.210155    0.23218442062076
              9.286663    0.46794134155879
              3.163927    0.36231203217765
 s    3 1.00
             7.8682724   -0.11933240861517
             1.8812885   -0.16085421161283
             0.5442493     1.1434564825515
 s    1 1.00
             0.1687144                   1
 p    3 1.00
             7.8682724   0.068999095584993
             1.8812885    0.31642397975315
             0.5442493    0.74430825237435
 p    1 1.00
             0.1687144                   1
 d    1 1.00
                   0.8                   1

6 0
 s    3 1.00
             18.731137    0.03349459952309
             2.8253937    0.23472694665786
             0.6401217    0.81375731841339
 s    1 1.00
             0.1612778                   1

7 0
 s    6 1.00
             3047.5249  0.0018347001629433
             457.36951    0.01403730124668
             103.94869   0.068842606114048
             29.210155    0.23218442062076
              9.286663    0.46794134155879
              3.163927    0.36231203217765
 s    3 1.00
             7.8682724   -0.11933240861517
             1.8812885   -0.16085421161283
             0.5442493     1.1434564825515
 s    1 1.00
             0.1687144                   1
 p    3 1.00
             7.8682724   0.068999095584993
             1.8812885    0.31642397975315
             0.5442493    0.74430825237435
 p    1 1.00
             0.1687144                   1
 d    1 1.00
                   0.8                   1

8 0
 s    3 1.00
             18.731137    0.03349459952309
             2.8253937    0.23472694665786
             0.6401217    0.81375731841339
 s    1 1.00
             0.1612778                   1

9 0
 s    3 1.00
             18.731137    0.03349459952309
             2.8253937    0.23472694665786
             0.6401217    0.81375731841339
 s    1 1.00
             0.1612778                   1

10 0
 s    6 1.00
             3047.5249  0.0018347001629433
             457.36951    0.01403730124668
             103.94869   0.068842606114048
             29.210155    0.23218442062076
              9.286663    0.46794134155879
              3.163927    0.36231203217765
 s    3 1.00
             7.8682724   -0.11933240861517
             1.8812885   -0.16085421161283
             0.5442493     1.1434564825515
 s    1 1.00
             0.1687144                   1
 p    3 1.00
             7.8682724   0.068999095584993
             1.8812885    0.31642397975315
             0.5442493    0.74430825237435
 p    1 1.00
             0.1687144                   1
 d    1 1.00
                   0.8                   1

11 0
 s    3 1.00
             18.731137    0.03349459952309
             2.8253937    0.23472694665786
             0.6401217    0.81375731841339
 s    1 1.00
             0.1612778                   1

12 0
 s    6 1.00
             3047.5249  0.0018347001629433
             457.36951    0.01403730124668
             103.94869   0.068842606114048
             29.210155    0.23218442062076
              9.286663    0.46794134155879
              3.163927    0.36231203217765
 s    3 1.00
             7.8682724   -0.11933240861517
             1.8812885   -0.16085421161283
             0.5442493     1.1434564825515
 s    1 1.00
             0.1687144                   1
 p    3 1.00
             7.8682724   0.068999095584993
             1.8812885    0.31642397975315
             0.5442493    0.74430825237435
 p    1 1.00
             0.1687144                   1
 d    1 1.00
                   0.8                   1

13 0
 s    3 1.00
             18.731137    0.03349459952309
             2.8253937    0.23472694665786
             0.6401217    0.81375731841339
 s    1 1.00
             0.1612778                   1

14 0
 s    3 1.00
             18.731137    0.03349459952309
             2.8253937    0.23472694665786
             0.6401217    0.81375731841339
 s    1 1.00
             0.1612778                   1

15 0
 s    6 1.00
             3047.5249  0.0018347001629433
             457.36951    0.01403730124668
             103.94869   0.068842606114048
             29.210155    0.23218442062076
              9.286663    0.46794134155879
              3.163927    0.36231203217765
 s    3 1.00
             7.8682724   -0.11933240861517
             1.8812885   -0.16085421161283
             0.5442493     1.1434564825515
 s    1 1.00
             0.1687144                   1
 p    3 1.00
             7.8682724   0.068999095584993
             1.8812885    0.31642397975315
             0.5442493    0.74430825237435
 p    1 1.00
             0.1687144                   1
 d    1 1.00
                   0.8                   1

16 0
 s    6 1.00
             3047.5249  0.0018347001629433
             457.36951    0.01403730124668
             103.94869   0.068842606114048
             29.210155    0.23218442062076
              9.286663    0.46794134155879
              3.163927    0.36231203217765
 s    3 1.00
             7.8682724   -0.11933240861517
             1.8812885   -0.16085421161283
             0.5442493     1.1434564825515
 s    1 1.00
             0.1687144                   1
 p    3 1.00
             7.8682724   0.068999095584993
             1.8812885    0.31642397975315
             0.5442493    0.74430825237435
 p    1 1.00
             0.1687144                   1
 d    1 1.00
                   0.8                   1

17 0
 s    6 1.00
             3047.5249  0.0018347001629433
             457.36951    0.01403730124668
             103.94869   0.068842606114048
             29.210155    0.23218442062076
              9.286663    0.46794134155879
              3.163927    0.36231203217765
 s    3 1.00
             7.8682724   -0.11933240861517
             1.8812885   -0.16085421161283
             0.5442493     1.1434564825515
 s    1 1.00
             0.1687144                   1
 p    3 1.00
             7.8682724   0.068999095584993
             1.8812885    0.31642397975315
             0.5442493    0.74430825237435
 p    1 1.00
             0.1687144                   1
 d    1 1.00
                   0.8                   1

18 0
 s    6 1.00
             3047.5249  0.0018347001629433
             457.36951    0.01403730124668
             103.94869   0.068842606114048
             29.210155    0.23218442062076
              9.286663    0.46794134155879
              3.163927    0.36231203217765
 s    3 1.00
             7.8682724   -0.11933240861517
             1.8812885   -0.16085421161283
             0.5442493     1.1434564825515
 s    1 1.00
             0.1687144                   1
 p    3 1.00
             7.8682724   0.068999095584993
             1.8812885    0.31642397975315
             0.5442493    0.74430825237435
 p    1 1.00
             0.1687144                   1
 d    1 1.00
                   0.8                   1

19 0
 s    6 1.00
             3047.5249  0.0018347001629433
             457.36951    0.01403730124668
             103.94869   0.068842606114048
             29.210155    0.23218442062076
              9.286663    0.46794134155879
              3.163927    0.36231203217765
 s    3 1.00
             7.8682724   -0.11933240861517
             1.8812885   -0.16085421161283
             0.5442493     1.1434564825515
 s    1 1.00
             0.1687144                   1
 p    3 1.00
             7.8682724   0.068999095584993
             1.8812885    0.31642397975315
             0.5442493    0.74430825237435
 p    1 1.00
             0.1687144                   1
 d    1 1.00
                   0.8                   1

20 0
 s    6 1.00
             3047.5249  0.0018347001629433
             457.36951    0.01403730124668
             103.94869   0.068842606114048
             29.210155    0.23218442062076
              9.286663    0.46794134155879
              3.163927    0.36231203217765
 s    3 1.00
             7.8682724   -0.11933240861517
             1.8812885   -0.16085421161283
             0.5442493     1.1434564825515
 s    1 1.00
             0.1687144                   1
 p    3 1.00
             7.8682724   0.068999095584993
             1.8812885    0.31642397975315
             0.5442493    0.74430825237435
 p    1 1.00
             0.1687144                   1
 d    1 1.00
                   0.8                   1

21 0
 s    6 1.00
             3047.5249  0.0018347001629433
             457.36951    0.01403730124668
             103.94869   0.068842606114048
             29.210155    0.23218442062076
              9.286663    0.46794134155879
              3.163927    0.36231203217765
 s    3 1.00
             7.8682724   -0.11933240861517
             1.8812885   -0.16085421161283
             0.5442493     1.1434564825515
 s    1 1.00
             0.1687144                   1
 p    3 1.00
             7.8682724   0.068999095584993
             1.8812885    0.31642397975315
             0.5442493    0.74430825237435
 p    1 1.00
             0.1687144                   1
 d    1 1.00
                   0.8                   1

22 0
 s    3 1.00
             18.731137    0.03349459952309
             2.8253937    0.23472694665786
             0.6401217    0.81375731841339
 s    1 1.00
             0.1612778                   1

23 0
 s    3 1.00
             18.731137    0.03349459952309
             2.8253937    0.23472694665786
             0.6401217    0.81375731841339
 s    1 1.00
             0.1612778                   1

24 0
 s    3 1.00
             18.731137    0.03349459952309
             2.8253937    0.23472694665786
             0.6401217    0.81375731841339
 s    1 1.00
             0.1612778                   1

25 0
 s    3 1.00
             18.731137    0.03349459952309
             2.8253937    0.23472694665786
             0.6401217    0.81375731841339
 s    1 1.00
             0.1612778                   1

26 0
 s    3 1.00
             18.731137    0.03349459952309
             2.8253937    0.23472694665786
             0.6401217    0.81375731841339
 s    1 1.00
             0.1612778                   1

27 0
 s    3 1.00
             18.731137    0.03349459952309
             2.8253937    0.23472694665786
             0.6401217    0.81375731841339
 s    1 1.00
             0.1612778                   1

28 0
 s    3 1.00
             18.731137    0.03349459952309
             2.8253937    0.23472694665786
             0.6401217    0.81375731841339
 s    1 1.00
             0.1612778                   1

29 0
 s    3 1.00
             18.731137    0.03349459952309
             2.8253937    0.23472694665786
             0.6401217    0.81375731841339
 s    1 1.00
             0.1612778                   1

30 0
 s    3 1.00
             18.731137    0.03349459952309
             2.8253937    0.23472694665786
             0.6401217    0.81375731841339
 s    1 1.00
             0.1612778                   1

31 0
 s    3 1.00
             18.731137    0.03349459952309
             2.8253937    0.23472694665786
             0.6401217    0.81375731841339
 s    1 1.00
             0.1612778                   1

32 0
 s    3 1.00
             18.731137    0.03349459952309
             2.8253937    0.23472694665786
             0.6401217    0.81375731841339
 s    1 1.00
             0.1612778                   1

33 0
 s    6 1.00
             3047.5249  0.0018347001629433
             457.36951    0.01403730124668
             103.94869   0.068842606114048
             29.210155    0.23218442062076
              9.286663    0.46794134155879
              3.163927    0.36231203217765
 s    3 1.00
             7.8682724   -0.11933240861517
             1.8812885   -0.16085421161283
             0.5442493     1.1434564825515
 s    1 1.00
             0.1687144                   1
 p    3 1.00
             7.8682724   0.068999095584993
             1.8812885    0.31642397975315
             0.5442493    0.74430825237435
 p    1 1.00
             0.1687144                   1
 d    1 1.00
                   0.8                   1

34 0
 s    6 1.00
             3047.5249  0.0018347001629433
             457.36951    0.01403730124668
             103.94869   0.068842606114048
             29.210155    0.23218442062076
              9.286663    0.46794134155879
              3.163927    0.36231203217765
 s    3 1.00
             7.8682724   -0.11933240861517
             1.8812885   -0.16085421161283
             0.5442493     1.1434564825515
 s    1 1.00
             0.1687144                   1
 p    3 1.00
             7.8682724   0.068999095584993
             1.8812885    0.31642397975315
             0.5442493    0.74430825237435
 p    1 1.00
             0.1687144                   1
 d    1 1.00
                   0.8                   1

35 0
 s    3 1.00
             18.731137    0.03349459952309
             2.8253937    0.23472694665786
             0.6401217    0.81375731841339
 s    1 1.00
             0.1612778                   1

36 0
 s    6 1.00
             3047.5249  0.0018347001629433
             457.36951    0.01403730124668
             103.94869   0.068842606114048
             29.210155    0.23218442062076
              9.286663    0.46794134155879
              3.163927    0.36231203217765
 s    3 1.00
             7.8682724   -0.11933240861517
             1.8812885   -0.16085421161283
             0.5442493     1.1434564825515
 s    1 1.00
             0.1687144                   1
 p    3 1.00
             7.8682724   0.068999095584993
             1.8812885    0.31642397975315
             0.5442493    0.74430825237435
 p    1 1.00
             0.1687144                   1
 d    1 1.00
                   0.8                   1

37 0
 s    3 1.00
             18.731137    0.03349459952309
             2.8253937    0.23472694665786
             0.6401217    0.81375731841339
 s    1 1.00
             0.1612778                   1

38 0
 s    3 1.00
             18.731137    0.03349459952309
             2.8253937    0.23472694665786
             0.6401217    0.81375731841339
 s    1 1.00
             0.1612778                   1

39 0
 s    6 1.00
             3047.5249  0.0018347001629433
             457.36951    0.01403730124668
             103.94869   0.068842606114048
             29.210155    0.23218442062076
              9.286663    0.46794134155879
              3.163927    0.36231203217765
 s    3 1.00
             7.8682724   -0.11933240861517
             1.8812885   -0.16085421161283
             0.5442493     1.1434564825515
 s    1 1.00
             0.1687144                   1
 p    3 1.00
             7.8682724   0.068999095584993
             1.8812885    0.31642397975315
             0.5442493    0.74430825237435
 p    1 1.00
             0.1687144                   1
 d    1 1.00
                   0.8                   1

40 0
 s    6 1.00
             3047.5249  0.0018347001629433
             457.36951    0.01403730124668
             103.94869   0.068842606114048
             29.210155    0.23218442062076
              9.286663    0.46794134155879
              3.163927    0.36231203217765
 s    3 1.00
             7.8682724   -0.11933240861517
             1.8812885   -0.16085421161283
             0.5442493     1.1434564825515
 s    1 1.00
             0.1687144                   1
 p    3 1.00
             7.8682724   0.068999095584993
             1.8812885    0.31642397975315
             0.5442493    0.74430825237435
 p    1 1.00
             0.1687144                   1
 d    1 1.00
                   0.8                   1

41 0
 s    3 1.00
             18.731137    0.03349459952309
             2.8253937    0.23472694665786
             0.6401217    0.81375731841339
 s    1 1.00
             0.1612778                   1

42 0
 s    6 1.00
             5484.6717   0.001831099805527
             825.23495   0.013950098518422
             188.04696    0.06844509273075
               52.9645    0.23271427528445
              16.89757    0.47019295006289
             5.7996353    0.35852086192309
 s    3 1.00
             15.539616   -0.11077750382508
             3.5999336   -0.14802630511126
             1.0137618     1.1307670390447
 s    1 1.00
             0.2700058                   1
 p    3 1.00
             15.539616   0.070874299543311
             3.5999336    0.33975279781076
             1.0137618    0.72715859531445
 p    1 1.00
             0.2700058                   1
 d    1 1.00
                   0.8                   1

43 0
 s    3 1.00
             18.731137    0.03349459952309
             2.8253937    0.23472694665786
             0.6401217    0.81375731841339
 s    1 1.00
             0.1612778                   1

[5d]
[7f]
[9g]

[MO]
 Sym= A
 Ene=               0
 Spin= Alpha
 Occup=    1.00000
   1     0.018893964057413
   2    -0.00089802890982912
   3    0.0069830935886575
   4    0.00041611529789575
   5    -0.00015155661418825
   6    0.0011782395910915
   7    0.00080629783284955
   8    0.0013017413409263
   9    -0.0054108052090489
  10    -0.00086447566286229
  11    -0.00085105709299665
  12    0.00013973620831095
  13    -0.00021595392133802
  14    3.4019803475156e-05
  15    -0.00052315823590091
  16    -0.00098591199946196
  17      0.99487075876724
  18     0.036871483394009
  19    -0.028315911882693
  20    0.00094904934985771
  21    0.00018921211784636
  22    -0.00052903829583237
  23    -0.0035419878603529
  24    -0.0010673540936731
  25    -0.00083094605006426
  26    0.00076222726460451
  27    -0.00029876876820403
  28    -0.0003415176217996
  29    0.00029657189827807
  30    0.00020824440796012
  31    -0.0011334783686985
  32    0.0038173599503993
  33      0.01325196479549
  34    -0.0002653884286992
  35    0.00089025162229583
  36    0.00081588853980419
  37    0.0003270409928193
  38    -0.0011261001674097
  39    -0.0025541126077682
  40    0.0034706233616875
  41    0.0038495478521412
  42    -0.00058217401695307
  43     0.001177888160854
  44    0.00047470992642779
  45    -0.00035300478184914
  46    -0.00035763668743796
  47    -0.00055003107177971
  48    -0.00057499583178512
  49    -0.00010953869888234
  50    -0.00053445397573141
  51    0.00027359852931462
  52    0.00027950321156671
  53    5.3296795609991e-05
  54    -0.00037756643077987
  55    -0.0050661533934337
  56    0.0010556659377842
  57    0.0067613216205215
  58    -0.00016253886116678
  59    -1.5564845568174e-05
  60    0.00012999882599152
  61    -0.00021978629966283
  62    -0.00021619284119207
  63    -0.00045768242805016
  64    0.00030068288794749
  65    -7.124480883236e-06
  66    -1.7371354208203e-05
  67    -2.3000689338496e-06
  68    5.6153519693366e-06
  69    2.9188764460536e-07
  70    1.0634467290131e-05
  71    -5.3306248491816e-06
  72    -1.0484331615751e-05
  73    2.3741228692609e-05
  74     1.61307854616e-05
  75    1.7819051106502e-05
  76    -7.7463923157675e-07
  77    -9.0744026212928e-07
  78    5.1301641214079e-07
  79    5.931053480924e-07
  80    -9.4299184846714e-07
  81    -2.7948644469215e-08
  82    4.4733901684048e-06
  83    1.8561481910206e-06
  84    -6.5263264580492e-07
  85    -5.4452170327605e-05
  86    -3.5870995937026e-06
  87    -1.4184794724149e-05
  88    2.0166383554591e-05
  89    1.602728742197e-05
  90    -6.5749336503633e-05
  91    8.4785717569933e-06
  92    1.9794878258941e-06
  93    -5.0596345675267e-06
  94    -3.8083063627941e-09
  95    -2.3251048805355e-06
  96    -4.5715731841953e-06
  97    -1.5636770155389e-05
  98    -2.5196273177555e-05
  99    1.5802932733706e-05
 100    1.4129046197781e-05
 101    -9.7345154280298e-06
 102    -6.5744491705459e-08
 103    0.00025903321737958
 104    3.2333159916828e-05
 105    0.00010428313217897
 106    -2.9994182538269e-05
 107    -0.00016104716875064
 108    0.00026959239562823
 109    0.0001031471810513
 110    -6.6423063035278e-06
 111    8.9692478430807e-07
 112    -1.4151227100254e-06
 113    -2.0966496765019e-06
 114    -9.2307201710066e-06
 115    -1.7374322280793e-06
 116    -3.3165340309722e-05
 117    0.00021637538209256
 118    -3.0185887158742e-06
 119    -1.2268860301051e-05
 120    1.5448159490787e-05
 121    -4.0751028786779e-05
 122    1.7045599462517e-06
 123    3.8502368265292e-05
 124    1.0191348385963e-06
 125    -1.1976282595441e-06
 126    -9.5964486501194e-07
 127    -2.6632443330519e-06
 128    -5.626976226878e-06
 129    -1.7134200563334e-05
 130    -1.8000350503506e-05
 131    0.00016913722696029
 132    5.2665922243696e-05
 133    5.8927397025932e-05
 134    -2.4841522154998e-06
 135    -0.00034281155431476
 136    0.00010248698005548
 137    -0.00039626990382549
 138    6.5021164158395e-06
 139    1.8468872838254e-05
 140    1.0675025924101e-05
 141    1.0659095104783e-05
 142    9.5787825889661e-06
 143    2.6144765295419e-06
 144    -3.1483556223686e-05
 145    -1.2955630213935e-05
 146    -8.9857213658933e-06
 147    7.9888492979538e-06
 148    1.9596624315986e-05
 149    -7.146064466878e-06
 150    2.5840310523317e-05
 151    -7.424604546582e-05
 152    -6.43950044101e-06
 153    -5.4001501893785e-06
 154    -4.8537693510276e-06
 155    5.8782259572261e-06
 156    -1.9233933495358e-06
 157    3.2435404889859e-06
 158    1.0513188772705e-05
 159    -5.8514706990174e-05
 160    4.1706781921928e-06
 161    7.5156080084019e-06
 162    -2.1544456439569e-06
 163    -5.826945921508e-05
 164    3.6885882265484e-05
 165    1.0953752798467e-05
 166    4.3261488789413e-06
 167    -1.129113282802e-06
 168    -1.0799104311048e-08
 169    1.126870924359e-06
 170    2.1445665453817e-06
 171    -2.3462921485105e-06
 172    -6.9289034208566e-06
 173    4.1018635979193e-05
 174    1.3567922839934e-05
 175    3.6970474469906e-06
 176    3.3346523254164e-05
 177    1.8346707242688e-05
 178    2.8662205186332e-06
 179    -4.1238274903082e-06
 180    1.0116711680009e-06
 181    4.4578864732154e-06
 182    5.3162656111593e-07
 183    -2.2469947736408e-06
 184    1.7181865659783e-06
 185    -3.6085376630872e-06
 186    -3.3267287182143e-05
 187    0.00011349790698165
 188    -3.7171243885856e-06
 189    -5.8077251320663e-06
 190    9.0648408988665e-06
 191    8.0637911286137e-07
 192    -3.3289661600466e-05
 193    -8.2894837511509e-05
 194    3.0150139738265e-06
 195    1.6560876184502e-06
 196    2.9676334723246e-06
 197    3.1456154694117e-07
 198    1.2176808661706e-07
 199    -1.1903093186213e-05
 200    2.0867552611152e-06
 201    -2.6903042889672e-07
 202    2.6614853536892e-05
 203    8.5526248633452e-06
 204    2.2257852371484e-05
 205    -2.0453700142496e-05
 206    -5.9450686501411e-05
 207    1.0094872693567e-05
 208    -4.581550129031e-05
 209    1.0686495516036e-05
 210    -3.1276647859999e-05
 211    8.5990573786026e-06
 212    2.262789125395e-05
 213    9.6278367943162e-07
 214    -2.0985937276553e-05
 215    -1.5777338004304e-05
 216    -2.7271711892647e-05
 217    3.3643527306694e-06
 218    1.4538156469965e-06
 219    8.4632553113721e-06
 220    -3.7485634709543e-06
 221    1.2819816238019e-05
 222    -5.8309597475602e-05
 223    0.00089712834633509
 224    -0.00019132526785006
 225    -0.00011950229588459
 226    4.1246674488523e-05
 227    0.00055695079139591
 228    0.00023328535093452
 229    -0.00090064775474334
 230    9.1314413974023e-06
 231    -3.735340364371e-05
 232    -1.6787131520453e-05
 233    2.6849391264078e-05
 234    2.0325005739539e-05
 235    -0.00020735818159253
 236    0.00028295525726678
 237    6.4550577405446e-05
 238    -6.5332545803978e-05
 239    -3.1553341006305e-05
 240    -0.00052522757063653
 241    0.00030236448519154
 242    0.00030149606518704
 243    -0.0016823968088783
 244    2.2138455997457e-05
 245    7.134158669974e-05
 246    7.6640805250762e-06
 247    1.9574379280738e-05
 248    6.3197648466865e-07
 249    7.4945003068689e-05
 250    0.00036225856553476
 251    0.00015260830811095
 252    -0.00030937751668791
 253    0.0020108737586183
 254    0.00068071645811429
 255    -2.1791772399169e-05
 256    0.0006754211225581
 257    0.00015549424526665
 258    0.00032970580396622
 259    -0.0015824285120936
 260    -3.2021816701804e-05
 261    -7.5392230280168e-06
 262    -1.9935714744876e-05
 263    0.00011912291035047
 264     6.60937656338e-05
 265    -6.3487981107052e-05
 266    0.00011726741489115
 267    -0.00051383689784501
 268    -0.00084275409132739
 269    -0.00011962612980882
 270    -0.00061324160854845
 271    0.0063807151000905
 272    -0.00015538578212667
 273    0.00032559264337181
 274    0.00023231832655829
 275    -0.0013956500467602
 276    -0.002585212178492
 277    0.0027970941375605
 278    8.1775791638184e-05
 279    -0.00016707117291498
 280    -0.0001040531380681