[Molden Format]
made by pyscf v[2.0.1]
[Atoms] (AU)
C   1   6     0.69100024066471     0.64692934207205    -3.48223131169301
H   2   1     2.68052439830868     1.13355088658700    -3.25784032593313
C   3   6    -0.36286361513219     0.85440132524594    -5.97030179418974
H   4   1    -2.35448549047279     0.36322488579172    -6.17995817793143
C   5   6     0.93697958957450     1.61209284601821    -8.05828437677121
H   6   1     2.50035468987728     2.93484935641869    -7.84122146962088
C   7   6     0.36255105159660     0.76050131278393   -10.56848504450332
H   8   1    -1.20802221204617    -0.56532983436663   -10.75608465244450
H   9   1     1.55630230933075    -1.92953025305990    12.99630010416247
C   10   6     0.75233899775814    -2.21270439606481    11.10705728102219
H   11   1    -0.43433408177274    -3.90944857546550    11.22216085340412
C   12   6     2.86362581178706    -2.63237380607947     9.17926416456045
H   13   1     4.39038949912609    -1.24955421540245     9.49899813497433
H   14   1     3.74629220191363    -4.48798724300892     9.47414880959024
C   15   6     2.02478325613682    -2.42177285709634     6.44560829588644
C   16   6     3.88048732735477    -3.58795445234514     4.61402886975252
C   17   6    -0.18412382258602    -1.30464291234259     5.76021113872346
C   18   6    -2.10044360464350    -0.26837831858460     7.71610340967100
C   19   6    -3.08956938670431     2.35282328359417     6.88693925039594
C   20   6    -4.37372924086464    -2.09766595989678     7.93610724222001
C   21   6    -0.83850430601230     0.06372213486173    10.33002307638377
H   22   1     0.38411922151109     1.74281358582432    10.27380136542181
H   23   1    -2.30980003007874     0.45460143924521    11.73986301809809
H   24   1     4.58527064644668    -5.38706904487420     5.36778158031719
H   25   1     5.54944938085014    -2.37631462192748     4.35398898413318
H   26   1     3.06633019150423    -3.94118377050688     2.75255466040884
H   27   1    -4.17727778763735     2.26573369139522     5.12914900961283
H   28   1    -1.52662344944051     3.68001877445626     6.59540397144508
H   29   1    -4.32916174397830     3.13643051467482     8.35225460090378
H   30   1    -5.32329548508442    -2.36691813602939     6.11583672749896
H   31   1    -5.77989366602257    -1.33896741843465     9.25748940450990
H   32   1    -3.79310905208926    -3.96389819310853     8.61386170102686
C   33   6    -1.01100794811226    -1.06331657314144     3.11929490449947
C   34   6     0.37686231036534    -0.33275864505552     1.09165013605873
H   35   1    -3.01671213906703    -1.40297922279997     2.77827895090944
C   36   6    -0.64382707979370    -0.11591880174385    -1.42063131251064
H   37   1     2.35569259782137     0.17174499283897     1.33641070251401
H   38   1    -2.63317482980319    -0.60229203511219    -1.66119700387645
C   39   6     1.60144441070444     1.46482489722556   -12.70057441592292
C   40   6     0.86980516734608     0.48994136718256   -15.17470632539007
H   41   1     3.18180515535191     2.77908821383906   -12.64635086980665
O   42   8     1.89724046327418     1.04291297454121   -17.16453627851552
H   43   1    -0.75645459108880    -0.84958730954869   -15.14122439828819
[GTO]
1 0
 s    6 1.00
             3047.5249  0.0018347001629433
             457.36951    0.01403730124668
             103.94869   0.068842606114048
             29.210155    0.23218442062076
              9.286663    0.46794134155879
              3.163927    0.36231203217765
 s    3 1.00
             7.8682724   -0.11933240861517
             1.8812885   -0.16085421161283
             0.5442493     1.1434564825515
 s    1 1.00
             0.1687144                   1
 p    3 1.00
             7.8682724   0.068999095584993
             1.8812885    0.31642397975315
             0.5442493    0.74430825237435
 p    1 1.00
             0.1687144                   1
 d    1 1.00
                   0.8                   1

2 0
 s    3 1.00
             18.731137    0.03349459952309
             2.8253937    0.23472694665786
             0.6401217    0.81375731841339
 s    1 1.00
             0.1612778                   1

3 0
 s    6 1.00
             3047.5249  0.0018347001629433
             457.36951    0.01403730124668
             103.94869   0.068842606114048
             29.210155    0.23218442062076
              9.286663    0.46794134155879
              3.163927    0.36231203217765
 s    3 1.00
             7.8682724   -0.11933240861517
             1.8812885   -0.16085421161283
             0.5442493     1.1434564825515
 s    1 1.00
             0.1687144                   1
 p    3 1.00
             7.8682724   0.068999095584993
             1.8812885    0.31642397975315
             0.5442493    0.74430825237435
 p    1 1.00
             0.1687144                   1
 d    1 1.00
                   0.8                   1

4 0
 s    3 1.00
             18.731137    0.03349459952309
             2.8253937    0.23472694665786
             0.6401217    0.81375731841339
 s    1 1.00
             0.1612778                   1

5 0
 s    6 1.00
             3047.5249  0.0018347001629433
             457.36951    0.01403730124668
             103.94869   0.068842606114048
             29.210155    0.23218442062076
              9.286663    0.46794134155879
              3.163927    0.36231203217765
 s    3 1.00
             7.8682724   -0.11933240861517
             1.8812885   -0.16085421161283
             0.5442493     1.1434564825515
 s    1 1.00
             0.1687144                   1
 p    3 1.00
             7.8682724   0.068999095584993
             1.8812885    0.31642397975315
             0.5442493    0.74430825237435
 p    1 1.00
             0.1687144                   1
 d    1 1.00
                   0.8                   1

6 0
 s    3 1.00
             18.731137    0.03349459952309
             2.8253937    0.23472694665786
             0.6401217    0.81375731841339
 s    1 1.00
             0.1612778                   1

7 0
 s    6 1.00
             3047.5249  0.0018347001629433
             457.36951    0.01403730124668
             103.94869   0.068842606114048
             29.210155    0.23218442062076
              9.286663    0.46794134155879
              3.163927    0.36231203217765
 s    3 1.00
             7.8682724   -0.11933240861517
             1.8812885   -0.16085421161283
             0.5442493     1.1434564825515
 s    1 1.00
             0.1687144                   1
 p    3 1.00
             7.8682724   0.068999095584993
             1.8812885    0.31642397975315
             0.5442493    0.74430825237435
 p    1 1.00
             0.1687144                   1
 d    1 1.00
                   0.8                   1

8 0
 s    3 1.00
             18.731137    0.03349459952309
             2.8253937    0.23472694665786
             0.6401217    0.81375731841339
 s    1 1.00
             0.1612778                   1

9 0
 s    3 1.00
             18.731137    0.03349459952309
             2.8253937    0.23472694665786
             0.6401217    0.81375731841339
 s    1 1.00
             0.1612778                   1

10 0
 s    6 1.00
             3047.5249  0.0018347001629433
             457.36951    0.01403730124668
             103.94869   0.068842606114048
             29.210155    0.23218442062076
              9.286663    0.46794134155879
              3.163927    0.36231203217765
 s    3 1.00
             7.8682724   -0.11933240861517
             1.8812885   -0.16085421161283
             0.5442493     1.1434564825515
 s    1 1.00
             0.1687144                   1
 p    3 1.00
             7.8682724   0.068999095584993
             1.8812885    0.31642397975315
             0.5442493    0.74430825237435
 p    1 1.00
             0.1687144                   1
 d    1 1.00
                   0.8                   1

11 0
 s    3 1.00
             18.731137    0.03349459952309
             2.8253937    0.23472694665786
             0.6401217    0.81375731841339
 s    1 1.00
             0.1612778                   1

12 0
 s    6 1.00
             3047.5249  0.0018347001629433
             457.36951    0.01403730124668
             103.94869   0.068842606114048
             29.210155    0.23218442062076
              9.286663    0.46794134155879
              3.163927    0.36231203217765
 s    3 1.00
             7.8682724   -0.11933240861517
             1.8812885   -0.16085421161283
             0.5442493     1.1434564825515
 s    1 1.00
             0.1687144                   1
 p    3 1.00
             7.8682724   0.068999095584993
             1.8812885    0.31642397975315
             0.5442493    0.74430825237435
 p    1 1.00
             0.1687144                   1
 d    1 1.00
                   0.8                   1

13 0
 s    3 1.00
             18.731137    0.03349459952309
             2.8253937    0.23472694665786
             0.6401217    0.81375731841339
 s    1 1.00
             0.1612778                   1

14 0
 s    3 1.00
             18.731137    0.03349459952309
             2.8253937    0.23472694665786
             0.6401217    0.81375731841339
 s    1 1.00
             0.1612778                   1

15 0
 s    6 1.00
             3047.5249  0.0018347001629433
             457.36951    0.01403730124668
             103.94869   0.068842606114048
             29.210155    0.23218442062076
              9.286663    0.46794134155879
              3.163927    0.36231203217765
 s    3 1.00
             7.8682724   -0.11933240861517
             1.8812885   -0.16085421161283
             0.5442493     1.1434564825515
 s    1 1.00
             0.1687144                   1
 p    3 1.00
             7.8682724   0.068999095584993
             1.8812885    0.31642397975315
             0.5442493    0.74430825237435
 p    1 1.00
             0.1687144                   1
 d    1 1.00
                   0.8                   1

16 0
 s    6 1.00
             3047.5249  0.0018347001629433
             457.36951    0.01403730124668
             103.94869   0.068842606114048
             29.210155    0.23218442062076
              9.286663    0.46794134155879
              3.163927    0.36231203217765
 s    3 1.00
             7.8682724   -0.11933240861517
             1.8812885   -0.16085421161283
             0.5442493     1.1434564825515
 s    1 1.00
             0.1687144                   1
 p    3 1.00
             7.8682724   0.068999095584993
             1.8812885    0.31642397975315
             0.5442493    0.74430825237435
 p    1 1.00
             0.1687144                   1
 d    1 1.00
                   0.8                   1

17 0
 s    6 1.00
             3047.5249  0.0018347001629433
             457.36951    0.01403730124668
             103.94869   0.068842606114048
             29.210155    0.23218442062076
              9.286663    0.46794134155879
              3.163927    0.36231203217765
 s    3 1.00
             7.8682724   -0.11933240861517
             1.8812885   -0.16085421161283
             0.5442493     1.1434564825515
 s    1 1.00
             0.1687144                   1
 p    3 1.00
             7.8682724   0.068999095584993
             1.8812885    0.31642397975315
             0.5442493    0.74430825237435
 p    1 1.00
             0.1687144                   1
 d    1 1.00
                   0.8                   1

18 0
 s    6 1.00
             3047.5249  0.0018347001629433
             457.36951    0.01403730124668
             103.94869   0.068842606114048
             29.210155    0.23218442062076
              9.286663    0.46794134155879
              3.163927    0.36231203217765
 s    3 1.00
             7.8682724   -0.11933240861517
             1.8812885   -0.16085421161283
             0.5442493     1.1434564825515
 s    1 1.00
             0.1687144                   1
 p    3 1.00
             7.8682724   0.068999095584993
             1.8812885    0.31642397975315
             0.5442493    0.74430825237435
 p    1 1.00
             0.1687144                   1
 d    1 1.00
                   0.8                   1

19 0
 s    6 1.00
             3047.5249  0.0018347001629433
             457.36951    0.01403730124668
             103.94869   0.068842606114048
             29.210155    0.23218442062076
              9.286663    0.46794134155879
              3.163927    0.36231203217765
 s    3 1.00
             7.8682724   -0.11933240861517
             1.8812885   -0.16085421161283
             0.5442493     1.1434564825515
 s    1 1.00
             0.1687144                   1
 p    3 1.00
             7.8682724   0.068999095584993
             1.8812885    0.31642397975315
             0.5442493    0.74430825237435
 p    1 1.00
             0.1687144                   1
 d    1 1.00
                   0.8                   1

20 0
 s    6 1.00
             3047.5249  0.0018347001629433
             457.36951    0.01403730124668
             103.94869   0.068842606114048
             29.210155    0.23218442062076
              9.286663    0.46794134155879
              3.163927    0.36231203217765
 s    3 1.00
             7.8682724   -0.11933240861517
             1.8812885   -0.16085421161283
             0.5442493     1.1434564825515
 s    1 1.00
             0.1687144                   1
 p    3 1.00
             7.8682724   0.068999095584993
             1.8812885    0.31642397975315
             0.5442493    0.74430825237435
 p    1 1.00
             0.1687144                   1
 d    1 1.00
                   0.8                   1

21 0
 s    6 1.00
             3047.5249  0.0018347001629433
             457.36951    0.01403730124668
             103.94869   0.068842606114048
             29.210155    0.23218442062076
              9.286663    0.46794134155879
              3.163927    0.36231203217765
 s    3 1.00
             7.8682724   -0.11933240861517
             1.8812885   -0.16085421161283
             0.5442493     1.1434564825515
 s    1 1.00
             0.1687144                   1
 p    3 1.00
             7.8682724   0.068999095584993
             1.8812885    0.31642397975315
             0.5442493    0.74430825237435
 p    1 1.00
             0.1687144                   1
 d    1 1.00
                   0.8                   1

22 0
 s    3 1.00
             18.731137    0.03349459952309
             2.8253937    0.23472694665786
             0.6401217    0.81375731841339
 s    1 1.00
             0.1612778                   1

23 0
 s    3 1.00
             18.731137    0.03349459952309
             2.8253937    0.23472694665786
             0.6401217    0.81375731841339
 s    1 1.00
             0.1612778                   1

24 0
 s    3 1.00
             18.731137    0.03349459952309
             2.8253937    0.23472694665786
             0.6401217    0.81375731841339
 s    1 1.00
             0.1612778                   1

25 0
 s    3 1.00
             18.731137    0.03349459952309
             2.8253937    0.23472694665786
             0.6401217    0.81375731841339
 s    1 1.00
             0.1612778                   1

26 0
 s    3 1.00
             18.731137    0.03349459952309
             2.8253937    0.23472694665786
             0.6401217    0.81375731841339
 s    1 1.00
             0.1612778                   1

27 0
 s    3 1.00
             18.731137    0.03349459952309
             2.8253937    0.23472694665786
             0.6401217    0.81375731841339
 s    1 1.00
             0.1612778                   1

28 0
 s    3 1.00
             18.731137    0.03349459952309
             2.8253937    0.23472694665786
             0.6401217    0.81375731841339
 s    1 1.00
             0.1612778                   1

29 0
 s    3 1.00
             18.731137    0.03349459952309
             2.8253937    0.23472694665786
             0.6401217    0.81375731841339
 s    1 1.00
             0.1612778                   1

30 0
 s    3 1.00
             18.731137    0.03349459952309
             2.8253937    0.23472694665786
             0.6401217    0.81375731841339
 s    1 1.00
             0.1612778                   1

31 0
 s    3 1.00
             18.731137    0.03349459952309
             2.8253937    0.23472694665786
             0.6401217    0.81375731841339
 s    1 1.00
             0.1612778                   1

32 0
 s    3 1.00
             18.731137    0.03349459952309
             2.8253937    0.23472694665786
             0.6401217    0.81375731841339
 s    1 1.00
             0.1612778                   1

33 0
 s    6 1.00
             3047.5249  0.0018347001629433
             457.36951    0.01403730124668
             103.94869   0.068842606114048
             29.210155    0.23218442062076
              9.286663    0.46794134155879
              3.163927    0.36231203217765
 s    3 1.00
             7.8682724   -0.11933240861517
             1.8812885   -0.16085421161283
             0.5442493     1.1434564825515
 s    1 1.00
             0.1687144                   1
 p    3 1.00
             7.8682724   0.068999095584993
             1.8812885    0.31642397975315
             0.5442493    0.74430825237435
 p    1 1.00
             0.1687144                   1
 d    1 1.00
                   0.8                   1

34 0
 s    6 1.00
             3047.5249  0.0018347001629433
             457.36951    0.01403730124668
             103.94869   0.068842606114048
             29.210155    0.23218442062076
              9.286663    0.46794134155879
              3.163927    0.36231203217765
 s    3 1.00
             7.8682724   -0.11933240861517
             1.8812885   -0.16085421161283
             0.5442493     1.1434564825515
 s    1 1.00
             0.1687144                   1
 p    3 1.00
             7.8682724   0.068999095584993
             1.8812885    0.31642397975315
             0.5442493    0.74430825237435
 p    1 1.00
             0.1687144                   1
 d    1 1.00
                   0.8                   1

35 0
 s    3 1.00
             18.731137    0.03349459952309
             2.8253937    0.23472694665786
             0.6401217    0.81375731841339
 s    1 1.00
             0.1612778                   1

36 0
 s    6 1.00
             3047.5249  0.0018347001629433
             457.36951    0.01403730124668
             103.94869   0.068842606114048
             29.210155    0.23218442062076
              9.286663    0.46794134155879
              3.163927    0.36231203217765
 s    3 1.00
             7.8682724   -0.11933240861517
             1.8812885   -0.16085421161283
             0.5442493     1.1434564825515
 s    1 1.00
             0.1687144                   1
 p    3 1.00
             7.8682724   0.068999095584993
             1.8812885    0.31642397975315
             0.5442493    0.74430825237435
 p    1 1.00
             0.1687144                   1
 d    1 1.00
                   0.8                   1

37 0
 s    3 1.00
             18.731137    0.03349459952309
             2.8253937    0.23472694665786
             0.6401217    0.81375731841339
 s    1 1.00
             0.1612778                   1

38 0
 s    3 1.00
             18.731137    0.03349459952309
             2.8253937    0.23472694665786
             0.6401217    0.81375731841339
 s    1 1.00
             0.1612778                   1

39 0
 s    6 1.00
             3047.5249  0.0018347001629433
             457.36951    0.01403730124668
             103.94869   0.068842606114048
             29.210155    0.23218442062076
              9.286663    0.46794134155879
              3.163927    0.36231203217765
 s    3 1.00
             7.8682724   -0.11933240861517
             1.8812885   -0.16085421161283
             0.5442493     1.1434564825515
 s    1 1.00
             0.1687144                   1
 p    3 1.00
             7.8682724   0.068999095584993
             1.8812885    0.31642397975315
             0.5442493    0.74430825237435
 p    1 1.00
             0.1687144                   1
 d    1 1.00
                   0.8                   1

40 0
 s    6 1.00
             3047.5249  0.0018347001629433
             457.36951    0.01403730124668
             103.94869   0.068842606114048
             29.210155    0.23218442062076
              9.286663    0.46794134155879
              3.163927    0.36231203217765
 s    3 1.00
             7.8682724   -0.11933240861517
             1.8812885   -0.16085421161283
             0.5442493     1.1434564825515
 s    1 1.00
             0.1687144                   1
 p    3 1.00
             7.8682724   0.068999095584993
             1.8812885    0.31642397975315
             0.5442493    0.74430825237435
 p    1 1.00
             0.1687144                   1
 d    1 1.00
                   0.8                   1

41 0
 s    3 1.00
             18.731137    0.03349459952309
             2.8253937    0.23472694665786
             0.6401217    0.81375731841339
 s    1 1.00
             0.1612778                   1

42 0
 s    6 1.00
             5484.6717   0.001831099805527
             825.23495   0.013950098518422
             188.04696    0.06844509273075
               52.9645    0.23271427528445
              16.89757    0.47019295006289
             5.7996353    0.35852086192309
 s    3 1.00
             15.539616   -0.11077750382508
             3.5999336   -0.14802630511126
             1.0137618     1.1307670390447
 s    1 1.00
             0.2700058                   1
 p    3 1.00
             15.539616   0.070874299543311
             3.5999336    0.33975279781076
             1.0137618    0.72715859531445
 p    1 1.00
             0.2700058                   1
 d    1 1.00
                   0.8                   1

43 0
 s    3 1.00
             18.731137    0.03349459952309
             2.8253937    0.23472694665786
             0.6401217    0.81375731841339
 s    1 1.00
             0.1612778                   1

[5d]
[7f]
[9g]

[MO]
 Sym= A
 Ene=               0
 Spin= Alpha
 Occup=    1.00000
   1    -0.0023805894778706
   2    -2.9510689234711e-05
   3    -0.00019255020248008
   4    -1.872802732221e-05
   5    4.1761193581398e-05
   6    -8.2933388007372e-06
   7     0.000140304709203
   8    -0.00020470613819018
   9    0.00052396647683089
  10    -3.4336800371105e-06
  11    -2.0060977625386e-05
  12    -4.588762834433e-06
  13    -1.1288406806335e-05
  14    -4.921679776657e-06
  15    2.0629294251828e-05
  16    -0.00015766427119165
  17    -0.011769072559412
  18    -4.64459285978e-05
  19    -0.00097180789245809
  20    2.3333266770296e-05
  21    -9.4092382219943e-06
  22    -0.00019081899316392
  23    -0.00021739241209814
  24    -0.00027850242919473
  25    0.0010646784225088
  26    3.9679915818967e-05
  27    1.2327304980936e-05
  28    -2.1088230513003e-05
  29    -3.8809737367638e-05
  30    -0.00013563111112597
  31    9.491425430622e-05
  32    7.0015441815856e-05
  33    -0.015117971773536
  34    0.00096471340988768
  35    -0.006603805700834
  36    -0.00025172821678337
  37    -0.00036847371568429
  38    -0.001093670010318
  39    -0.00061244274815434
  40    0.00016661951850716
  41     0.004129078617824
  42    0.00097834963196453
  43    0.00051898506874368
  44    0.00072454190125157
  45    -5.2583894105307e-05
  46    0.00022437181705213
  47    0.00042380347146693
  48    0.0005975470625063
  49     -0.99490170464928
  50    -0.036047490797577
  51     0.027398559943269
  52    -0.00058563922632712
  53    -0.00040639596232652
  54    0.0001707014419999
  55    0.0025288522885673
  56    0.0021327440587747
  57    0.00041631307073782
  58    -0.00086690896256421
  59    0.00040304965758009
  60    6.2665225539864e-05
  61    -9.8050301027755e-05
  62    -0.00028518017864042
  63    0.0011658867258555
  64    -0.003678101926096
  65    4.9216469013652e-07
  66    2.9857748714896e-06
  67    5.1655722716552e-07
  68    -1.7766046568236e-06
  69    -1.2031799235599e-06
  70    -2.2143354431601e-06
  71    1.2240773933687e-06
  72    2.0928144957508e-06
  73    -4.3767484829756e-06
  74    -1.1054616546098e-06
  75    -4.2567585828359e-06
  76    3.4618264971727e-08
  77    2.0250842959079e-07
  78    -1.2077070963267e-08
  79    4.1752675600078e-09
  80    2.2068837612621e-07
  81    -1.0983064395729e-08
  82    7.3161082031422e-07
  83    9.1150322377539e-07
  84    8.6035519989229e-08
  85    8.4061657083244e-06
  86    4.2787625238819e-06
  87    1.9513574491959e-06
  88    2.3904267255412e-06
  89    1.4104072762138e-06
  90    4.8333626401574e-06
  91    3.6436460085645e-07
  92    -8.3572217690496e-07
  93    8.8215496985762e-07
  94    4.4836624874827e-07
  95    1.7178748426822e-07
  96    8.4601191453902e-07
  97    5.1535961404423e-06
  98    7.7522981707817e-06
  99    -1.5617061664519e-06
 100    -1.2571521908048e-06
 101    -1.9102573264121e-06
 102    1.4698026394609e-06
 103    3.7728157022644e-05
 104    -1.7031457980082e-05
 105    -1.5390460016963e-05
 106    -2.1861048410217e-06
 107    6.4838558839829e-06
 108    -2.8142020264506e-05
 109    -5.176633962042e-05
 110    1.2974861841221e-06
 111    2.940750185408e-07
 112    1.7858473426983e-08
 113    9.8080281347664e-07
 114    6.036200902079e-07
 115    -4.7372428991451e-07
 116    1.1684745733684e-05
 117    -4.6771935387553e-05
 118    -1.2931046812739e-06
 119    7.1280576775515e-06
 120    -7.8453653256234e-06
 121    1.8064550588479e-05
 122    -1.9951304394272e-05
 123    -4.1885339166909e-06
 124    2.2878531225374e-07
 125    3.0013177776672e-07
 126    -6.3046864200112e-07
 127    -3.4917374206526e-08
 128    1.2644242346381e-06
 129    4.4851916920646e-06
 130    4.9418774075782e-06
 131    -6.4506444207713e-05
 132    7.9636785433038e-07
 133    -1.7378226051727e-05
 134    1.5422989099615e-05
 135    -1.9214702351529e-05
 136    8.526321863089e-07
 137    0.00011234486304856
 138    -2.752594107334e-06
 139    -2.8586174189535e-06
 140    -8.1753793057175e-08
 141    -1.6918320152911e-06
 142    -7.1695468478108e-07
 143    -1.3920343947047e-08
 144    1.0631561679395e-05
 145    -5.1248264550243e-05
 146    1.6633633845143e-06
 147    -2.4966922985914e-07
 148    -4.2676281305008e-06
 149    -1.7613983004476e-05
 150    1.3681232586216e-05
 151    1.9301084111638e-05
 152    3.1614394881719e-07
 153    1.4304966678618e-06
 154    -1.7966389894253e-07
 155    -1.2409848528973e-06
 156    3.4353306961916e-07
 157    -4.7462126172655e-07
 158    5.4805233072274e-07
 159    3.5035741924393e-06
 160    1.3954896423416e-06
 161    -3.5665435952614e-06
 162    3.2776853379043e-06
 163    8.7953142248922e-06
 164    -4.5805466776921e-06
 165    -2.2151945804312e-06
 166    -8.3152897708261e-07
 167    4.2557012761708e-07
 168    2.7636336831297e-07
 169    -2.140477190963e-07
 170    -2.5227458969181e-07
 171    7.0685366017956e-07
 172    -3.7938646634213e-07
 173    6.6932419365631e-07
 174    -1.7858817549916e-06
 175    -2.9473941229984e-07
 176    -1.5240334090009e-06
 177    -2.1112722192906e-06
 178    -6.7982668756627e-07
 179    -2.8023207246987e-07
 180    -1.6032321578241e-07
 181    -4.2265685650548e-07
 182    -4.6306492037553e-07
 183    7.565871064929e-07
 184    -8.6014974232676e-08
 185    8.4894745825571e-07
 186    2.2203075406213e-06
 187    -8.2569125356339e-06
 188    1.4541867895136e-06
 189    4.0008716389758e-07
 190    3.0690811253734e-07
 191    1.3874210148294e-06
 192    1.3477157480192e-06
 193    8.2639271038036e-06
 194    -4.5572818483456e-08
 195    5.2050060516927e-08
 196    -1.2895932418265e-07
 197    -5.1573865289048e-07
 198    2.2138010505041e-07
 199    8.4902673615301e-07
 200    4.6030221596414e-07
 201    -1.1388458183956e-07
 202    -3.5568342306733e-06
 203    -4.835823366528e-06
 204    -1.6838775402277e-05
 205    8.2365019197249e-06
 206    1.1729630031173e-05
 207    2.874277508842e-06
 208    3.1556014612562e-06
 209    -2.8003340256164e-06
 210    2.3562650499467e-06
 211    -1.4519105489491e-06
 212    -2.8872253965454e-06
 213    8.012590809748e-07
 214    3.168296118339e-06
 215    3.9072282882486e-07
 216    -1.1578182048237e-06
 217    9.3640441855143e-07
 218    4.4908340129275e-07
 219    -8.6148812472729e-07
 220    5.6474581070691e-07
 221    -7.671863583525e-06
 222    1.5295739898476e-05
 223    3.6746673838555e-05
 224    -2.3336045096315e-07
 225    2.931288317279e-05
 226    -3.2698360639659e-05
 227    -1.3241610040695e-05
 228    -8.5077272523068e-06
 229    7.0708081838771e-05
 230    1.5614524333985e-07
 231    3.9014893039988e-06
 232    -1.2492444417599e-06
 233    -3.3993651101761e-06
 234    -1.6620940007637e-06
 235    1.7338147587899e-05
 236    6.0145374034296e-07
 237    -0.00021085070767716
 238    -1.8082186148695e-05
 239    1.6538329707231e-05
 240    5.759095604923e-05
 241    5.4708116052744e-05
 242    -1.8026903625645e-05
 243    0.00018598373708661
 244    -7.6294163377108e-06
 245    -1.4712707218697e-05
 246    3.8440988910987e-06
 247    -7.4885701242184e-06
 248    4.9917503031154e-07
 249    4.8763691557198e-06
 250    -1.6180731322871e-05
 251    1.0843366273977e-06
 252    -6.1295795443789e-05
 253    -0.00018046864889153
 254    3.5025640443605e-05
 255    2.5985400446089e-05
 256    -5.7060821752509e-05
 257    -0.00011240321128385
 258    -1.2312451737391e-05
 259    0.00035237463516583
 260    5.5280595153956e-06
 261    1.6271464651277e-05
 262    1.4077285137405e-07
 263    -1.8205733752355e-05
 264    -4.0305915306431e-06
 265    -1.4599513160473e-05
 266    -2.778844120692e-05
 267    -3.8041171552484e-05
 268    -0.00012289921632009
 269    0.0009385363212422
 270    0.0031126497305152
 271    -0.0075426611860422
 272    -6.8887280045514e-05
 273    9.9852471949133e-05
 274    0.0011897087177006
 275    0.00083835255451743
 276    0.00013553544597729
 277    -0.0035996979040428
 278    0.00058965304327902
 279    -0.00094539705084231
 280    -0.00054783563818392