[Molden Format]
made by pyscf v[2.0.1]
[Atoms] (AU)
C   1   6     0.69100024066471     0.64692934207205    -3.48223131169301
H   2   1     2.68052439830868     1.13355088658700    -3.25784032593313
C   3   6    -0.36286361513219     0.85440132524594    -5.97030179418974
H   4   1    -2.35448549047279     0.36322488579172    -6.17995817793143
C   5   6     0.93697958957450     1.61209284601821    -8.05828437677121
H   6   1     1.01317567978386     3.61775130597871    -8.51923024455703
C   7   6     2.23318006711868    -0.09916996805052    -9.71591146992396
H   8   1     2.14101227267567    -2.10272353634710    -9.22908458474476
H   9   1     1.55630230933075    -1.92953025305990    12.99630010416247
C   10   6     0.75233899775814    -2.21270439606481    11.10705728102219
H   11   1    -0.43433408177274    -3.90944857546550    11.22216085340412
C   12   6     2.86362581178706    -2.63237380607947     9.17926416456045
H   13   1     4.39038949912609    -1.24955421540245     9.49899813497433
H   14   1     3.74629220191363    -4.48798724300892     9.47414880959024
C   15   6     2.02478325613682    -2.42177285709634     6.44560829588644
C   16   6     3.88048732735477    -3.58795445234514     4.61402886975252
C   17   6    -0.18412382258602    -1.30464291234259     5.76021113872346
C   18   6    -2.10044360464350    -0.26837831858460     7.71610340967100
C   19   6    -3.08956938670431     2.35282328359417     6.88693925039594
C   20   6    -4.37372924086464    -2.09766595989678     7.93610724222001
C   21   6    -0.83850430601230     0.06372213486173    10.33002307638377
H   22   1     0.38411922151109     1.74281358582432    10.27380136542181
H   23   1    -2.30980003007874     0.45460143924521    11.73986301809809
H   24   1     4.58527064644668    -5.38706904487420     5.36778158031719
H   25   1     5.54944938085014    -2.37631462192748     4.35398898413318
H   26   1     3.06633019150423    -3.94118377050688     2.75255466040884
H   27   1    -4.17727778763735     2.26573369139522     5.12914900961283
H   28   1    -1.52662344944051     3.68001877445626     6.59540397144508
H   29   1    -4.32916174397830     3.13643051467482     8.35225460090378
H   30   1    -5.32329548508442    -2.36691813602939     6.11583672749896
H   31   1    -5.77989366602257    -1.33896741843465     9.25748940450990
H   32   1    -3.79310905208926    -3.96389819310853     8.61386170102686
C   33   6    -1.01100794811226    -1.06331657314144     3.11929490449947
C   34   6     0.37686231036534    -0.33275864505552     1.09165013605873
H   35   1    -3.01671213906703    -1.40297922279997     2.77827895090944
C   36   6    -0.64382707979370    -0.11591880174385    -1.42063131251064
H   37   1     2.35569259782137     0.17174499283897     1.33641070251401
H   38   1    -2.63317482980319    -0.60229203511219    -1.66119700387645
C   39   6     3.54725246111133     0.56802416581284   -11.81467283923754
C   40   6     4.80361465317200    -1.32115012773234   -13.38298311351627
H   41   1     3.71304591439982     2.53035338251259   -12.40589607739641
O   42   8     6.01278787963721    -0.85546385399510   -15.29134904549642
H   43   1     4.58468921437884    -3.30497271823068   -12.70718839688766
[GTO]
1 0
 s    6 1.00
             3047.5249  0.0018347001629433
             457.36951    0.01403730124668
             103.94869   0.068842606114048
             29.210155    0.23218442062076
              9.286663    0.46794134155879
              3.163927    0.36231203217765
 s    3 1.00
             7.8682724   -0.11933240861517
             1.8812885   -0.16085421161283
             0.5442493     1.1434564825515
 s    1 1.00
             0.1687144                   1
 p    3 1.00
             7.8682724   0.068999095584993
             1.8812885    0.31642397975315
             0.5442493    0.74430825237435
 p    1 1.00
             0.1687144                   1
 d    1 1.00
                   0.8                   1

2 0
 s    3 1.00
             18.731137    0.03349459952309
             2.8253937    0.23472694665786
             0.6401217    0.81375731841339
 s    1 1.00
             0.1612778                   1

3 0
 s    6 1.00
             3047.5249  0.0018347001629433
             457.36951    0.01403730124668
             103.94869   0.068842606114048
             29.210155    0.23218442062076
              9.286663    0.46794134155879
              3.163927    0.36231203217765
 s    3 1.00
             7.8682724   -0.11933240861517
             1.8812885   -0.16085421161283
             0.5442493     1.1434564825515
 s    1 1.00
             0.1687144                   1
 p    3 1.00
             7.8682724   0.068999095584993
             1.8812885    0.31642397975315
             0.5442493    0.74430825237435
 p    1 1.00
             0.1687144                   1
 d    1 1.00
                   0.8                   1

4 0
 s    3 1.00
             18.731137    0.03349459952309
             2.8253937    0.23472694665786
             0.6401217    0.81375731841339
 s    1 1.00
             0.1612778                   1

5 0
 s    6 1.00
             3047.5249  0.0018347001629433
             457.36951    0.01403730124668
             103.94869   0.068842606114048
             29.210155    0.23218442062076
              9.286663    0.46794134155879
              3.163927    0.36231203217765
 s    3 1.00
             7.8682724   -0.11933240861517
             1.8812885   -0.16085421161283
             0.5442493     1.1434564825515
 s    1 1.00
             0.1687144                   1
 p    3 1.00
             7.8682724   0.068999095584993
             1.8812885    0.31642397975315
             0.5442493    0.74430825237435
 p    1 1.00
             0.1687144                   1
 d    1 1.00
                   0.8                   1

6 0
 s    3 1.00
             18.731137    0.03349459952309
             2.8253937    0.23472694665786
             0.6401217    0.81375731841339
 s    1 1.00
             0.1612778                   1

7 0
 s    6 1.00
             3047.5249  0.0018347001629433
             457.36951    0.01403730124668
             103.94869   0.068842606114048
             29.210155    0.23218442062076
              9.286663    0.46794134155879
              3.163927    0.36231203217765
 s    3 1.00
             7.8682724   -0.11933240861517
             1.8812885   -0.16085421161283
             0.5442493     1.1434564825515
 s    1 1.00
             0.1687144                   1
 p    3 1.00
             7.8682724   0.068999095584993
             1.8812885    0.31642397975315
             0.5442493    0.74430825237435
 p    1 1.00
             0.1687144                   1
 d    1 1.00
                   0.8                   1

8 0
 s    3 1.00
             18.731137    0.03349459952309
             2.8253937    0.23472694665786
             0.6401217    0.81375731841339
 s    1 1.00
             0.1612778                   1

9 0
 s    3 1.00
             18.731137    0.03349459952309
             2.8253937    0.23472694665786
             0.6401217    0.81375731841339
 s    1 1.00
             0.1612778                   1

10 0
 s    6 1.00
             3047.5249  0.0018347001629433
             457.36951    0.01403730124668
             103.94869   0.068842606114048
             29.210155    0.23218442062076
              9.286663    0.46794134155879
              3.163927    0.36231203217765
 s    3 1.00
             7.8682724   -0.11933240861517
             1.8812885   -0.16085421161283
             0.5442493     1.1434564825515
 s    1 1.00
             0.1687144                   1
 p    3 1.00
             7.8682724   0.068999095584993
             1.8812885    0.31642397975315
             0.5442493    0.74430825237435
 p    1 1.00
             0.1687144                   1
 d    1 1.00
                   0.8                   1

11 0
 s    3 1.00
             18.731137    0.03349459952309
             2.8253937    0.23472694665786
             0.6401217    0.81375731841339
 s    1 1.00
             0.1612778                   1

12 0
 s    6 1.00
             3047.5249  0.0018347001629433
             457.36951    0.01403730124668
             103.94869   0.068842606114048
             29.210155    0.23218442062076
              9.286663    0.46794134155879
              3.163927    0.36231203217765
 s    3 1.00
             7.8682724   -0.11933240861517
             1.8812885   -0.16085421161283
             0.5442493     1.1434564825515
 s    1 1.00
             0.1687144                   1
 p    3 1.00
             7.8682724   0.068999095584993
             1.8812885    0.31642397975315
             0.5442493    0.74430825237435
 p    1 1.00
             0.1687144                   1
 d    1 1.00
                   0.8                   1

13 0
 s    3 1.00
             18.731137    0.03349459952309
             2.8253937    0.23472694665786
             0.6401217    0.81375731841339
 s    1 1.00
             0.1612778                   1

14 0
 s    3 1.00
             18.731137    0.03349459952309
             2.8253937    0.23472694665786
             0.6401217    0.81375731841339
 s    1 1.00
             0.1612778                   1

15 0
 s    6 1.00
             3047.5249  0.0018347001629433
             457.36951    0.01403730124668
             103.94869   0.068842606114048
             29.210155    0.23218442062076
              9.286663    0.46794134155879
              3.163927    0.36231203217765
 s    3 1.00
             7.8682724   -0.11933240861517
             1.8812885   -0.16085421161283
             0.5442493     1.1434564825515
 s    1 1.00
             0.1687144                   1
 p    3 1.00
             7.8682724   0.068999095584993
             1.8812885    0.31642397975315
             0.5442493    0.74430825237435
 p    1 1.00
             0.1687144                   1
 d    1 1.00
                   0.8                   1

16 0
 s    6 1.00
             3047.5249  0.0018347001629433
             457.36951    0.01403730124668
             103.94869   0.068842606114048
             29.210155    0.23218442062076
              9.286663    0.46794134155879
              3.163927    0.36231203217765
 s    3 1.00
             7.8682724   -0.11933240861517
             1.8812885   -0.16085421161283
             0.5442493     1.1434564825515
 s    1 1.00
             0.1687144                   1
 p    3 1.00
             7.8682724   0.068999095584993
             1.8812885    0.31642397975315
             0.5442493    0.74430825237435
 p    1 1.00
             0.1687144                   1
 d    1 1.00
                   0.8                   1

17 0
 s    6 1.00
             3047.5249  0.0018347001629433
             457.36951    0.01403730124668
             103.94869   0.068842606114048
             29.210155    0.23218442062076
              9.286663    0.46794134155879
              3.163927    0.36231203217765
 s    3 1.00
             7.8682724   -0.11933240861517
             1.8812885   -0.16085421161283
             0.5442493     1.1434564825515
 s    1 1.00
             0.1687144                   1
 p    3 1.00
             7.8682724   0.068999095584993
             1.8812885    0.31642397975315
             0.5442493    0.74430825237435
 p    1 1.00
             0.1687144                   1
 d    1 1.00
                   0.8                   1

18 0
 s    6 1.00
             3047.5249  0.0018347001629433
             457.36951    0.01403730124668
             103.94869   0.068842606114048
             29.210155    0.23218442062076
              9.286663    0.46794134155879
              3.163927    0.36231203217765
 s    3 1.00
             7.8682724   -0.11933240861517
             1.8812885   -0.16085421161283
             0.5442493     1.1434564825515
 s    1 1.00
             0.1687144                   1
 p    3 1.00
             7.8682724   0.068999095584993
             1.8812885    0.31642397975315
             0.5442493    0.74430825237435
 p    1 1.00
             0.1687144                   1
 d    1 1.00
                   0.8                   1

19 0
 s    6 1.00
             3047.5249  0.0018347001629433
             457.36951    0.01403730124668
             103.94869   0.068842606114048
             29.210155    0.23218442062076
              9.286663    0.46794134155879
              3.163927    0.36231203217765
 s    3 1.00
             7.8682724   -0.11933240861517
             1.8812885   -0.16085421161283
             0.5442493     1.1434564825515
 s    1 1.00
             0.1687144                   1
 p    3 1.00
             7.8682724   0.068999095584993
             1.8812885    0.31642397975315
             0.5442493    0.74430825237435
 p    1 1.00
             0.1687144                   1
 d    1 1.00
                   0.8                   1

20 0
 s    6 1.00
             3047.5249  0.0018347001629433
             457.36951    0.01403730124668
             103.94869   0.068842606114048
             29.210155    0.23218442062076
              9.286663    0.46794134155879
              3.163927    0.36231203217765
 s    3 1.00
             7.8682724   -0.11933240861517
             1.8812885   -0.16085421161283
             0.5442493     1.1434564825515
 s    1 1.00
             0.1687144                   1
 p    3 1.00
             7.8682724   0.068999095584993
             1.8812885    0.31642397975315
             0.5442493    0.74430825237435
 p    1 1.00
             0.1687144                   1
 d    1 1.00
                   0.8                   1

21 0
 s    6 1.00
             3047.5249  0.0018347001629433
             457.36951    0.01403730124668
             103.94869   0.068842606114048
             29.210155    0.23218442062076
              9.286663    0.46794134155879
              3.163927    0.36231203217765
 s    3 1.00
             7.8682724   -0.11933240861517
             1.8812885   -0.16085421161283
             0.5442493     1.1434564825515
 s    1 1.00
             0.1687144                   1
 p    3 1.00
             7.8682724   0.068999095584993
             1.8812885    0.31642397975315
             0.5442493    0.74430825237435
 p    1 1.00
             0.1687144                   1
 d    1 1.00
                   0.8                   1

22 0
 s    3 1.00
             18.731137    0.03349459952309
             2.8253937    0.23472694665786
             0.6401217    0.81375731841339
 s    1 1.00
             0.1612778                   1

23 0
 s    3 1.00
             18.731137    0.03349459952309
             2.8253937    0.23472694665786
             0.6401217    0.81375731841339
 s    1 1.00
             0.1612778                   1

24 0
 s    3 1.00
             18.731137    0.03349459952309
             2.8253937    0.23472694665786
             0.6401217    0.81375731841339
 s    1 1.00
             0.1612778                   1

25 0
 s    3 1.00
             18.731137    0.03349459952309
             2.8253937    0.23472694665786
             0.6401217    0.81375731841339
 s    1 1.00
             0.1612778                   1

26 0
 s    3 1.00
             18.731137    0.03349459952309
             2.8253937    0.23472694665786
             0.6401217    0.81375731841339
 s    1 1.00
             0.1612778                   1

27 0
 s    3 1.00
             18.731137    0.03349459952309
             2.8253937    0.23472694665786
             0.6401217    0.81375731841339
 s    1 1.00
             0.1612778                   1

28 0
 s    3 1.00
             18.731137    0.03349459952309
             2.8253937    0.23472694665786
             0.6401217    0.81375731841339
 s    1 1.00
             0.1612778                   1

29 0
 s    3 1.00
             18.731137    0.03349459952309
             2.8253937    0.23472694665786
             0.6401217    0.81375731841339
 s    1 1.00
             0.1612778                   1

30 0
 s    3 1.00
             18.731137    0.03349459952309
             2.8253937    0.23472694665786
             0.6401217    0.81375731841339
 s    1 1.00
             0.1612778                   1

31 0
 s    3 1.00
             18.731137    0.03349459952309
             2.8253937    0.23472694665786
             0.6401217    0.81375731841339
 s    1 1.00
             0.1612778                   1

32 0
 s    3 1.00
             18.731137    0.03349459952309
             2.8253937    0.23472694665786
             0.6401217    0.81375731841339
 s    1 1.00
             0.1612778                   1

33 0
 s    6 1.00
             3047.5249  0.0018347001629433
             457.36951    0.01403730124668
             103.94869   0.068842606114048
             29.210155    0.23218442062076
              9.286663    0.46794134155879
              3.163927    0.36231203217765
 s    3 1.00
             7.8682724   -0.11933240861517
             1.8812885   -0.16085421161283
             0.5442493     1.1434564825515
 s    1 1.00
             0.1687144                   1
 p    3 1.00
             7.8682724   0.068999095584993
             1.8812885    0.31642397975315
             0.5442493    0.74430825237435
 p    1 1.00
             0.1687144                   1
 d    1 1.00
                   0.8                   1

34 0
 s    6 1.00
             3047.5249  0.0018347001629433
             457.36951    0.01403730124668
             103.94869   0.068842606114048
             29.210155    0.23218442062076
              9.286663    0.46794134155879
              3.163927    0.36231203217765
 s    3 1.00
             7.8682724   -0.11933240861517
             1.8812885   -0.16085421161283
             0.5442493     1.1434564825515
 s    1 1.00
             0.1687144                   1
 p    3 1.00
             7.8682724   0.068999095584993
             1.8812885    0.31642397975315
             0.5442493    0.74430825237435
 p    1 1.00
             0.1687144                   1
 d    1 1.00
                   0.8                   1

35 0
 s    3 1.00
             18.731137    0.03349459952309
             2.8253937    0.23472694665786
             0.6401217    0.81375731841339
 s    1 1.00
             0.1612778                   1

36 0
 s    6 1.00
             3047.5249  0.0018347001629433
             457.36951    0.01403730124668
             103.94869   0.068842606114048
             29.210155    0.23218442062076
              9.286663    0.46794134155879
              3.163927    0.36231203217765
 s    3 1.00
             7.8682724   -0.11933240861517
             1.8812885   -0.16085421161283
             0.5442493     1.1434564825515
 s    1 1.00
             0.1687144                   1
 p    3 1.00
             7.8682724   0.068999095584993
             1.8812885    0.31642397975315
             0.5442493    0.74430825237435
 p    1 1.00
             0.1687144                   1
 d    1 1.00
                   0.8                   1

37 0
 s    3 1.00
             18.731137    0.03349459952309
             2.8253937    0.23472694665786
             0.6401217    0.81375731841339
 s    1 1.00
             0.1612778                   1

38 0
 s    3 1.00
             18.731137    0.03349459952309
             2.8253937    0.23472694665786
             0.6401217    0.81375731841339
 s    1 1.00
             0.1612778                   1

39 0
 s    6 1.00
             3047.5249  0.0018347001629433
             457.36951    0.01403730124668
             103.94869   0.068842606114048
             29.210155    0.23218442062076
              9.286663    0.46794134155879
              3.163927    0.36231203217765
 s    3 1.00
             7.8682724   -0.11933240861517
             1.8812885   -0.16085421161283
             0.5442493     1.1434564825515
 s    1 1.00
             0.1687144                   1
 p    3 1.00
             7.8682724   0.068999095584993
             1.8812885    0.31642397975315
             0.5442493    0.74430825237435
 p    1 1.00
             0.1687144                   1
 d    1 1.00
                   0.8                   1

40 0
 s    6 1.00
             3047.5249  0.0018347001629433
             457.36951    0.01403730124668
             103.94869   0.068842606114048
             29.210155    0.23218442062076
              9.286663    0.46794134155879
              3.163927    0.36231203217765
 s    3 1.00
             7.8682724   -0.11933240861517
             1.8812885   -0.16085421161283
             0.5442493     1.1434564825515
 s    1 1.00
             0.1687144                   1
 p    3 1.00
             7.8682724   0.068999095584993
             1.8812885    0.31642397975315
             0.5442493    0.74430825237435
 p    1 1.00
             0.1687144                   1
 d    1 1.00
                   0.8                   1

41 0
 s    3 1.00
             18.731137    0.03349459952309
             2.8253937    0.23472694665786
             0.6401217    0.81375731841339
 s    1 1.00
             0.1612778                   1

42 0
 s    6 1.00
             5484.6717   0.001831099805527
             825.23495   0.013950098518422
             188.04696    0.06844509273075
               52.9645    0.23271427528445
              16.89757    0.47019295006289
             5.7996353    0.35852086192309
 s    3 1.00
             15.539616   -0.11077750382508
             3.5999336   -0.14802630511126
             1.0137618     1.1307670390447
 s    1 1.00
             0.2700058                   1
 p    3 1.00
             15.539616   0.070874299543311
             3.5999336    0.33975279781076
             1.0137618    0.72715859531445
 p    1 1.00
             0.2700058                   1
 d    1 1.00
                   0.8                   1

43 0
 s    3 1.00
             18.731137    0.03349459952309
             2.8253937    0.23472694665786
             0.6401217    0.81375731841339
 s    1 1.00
             0.1612778                   1

[5d]
[7f]
[9g]

[MO]
 Sym= A
 Ene=               0
 Spin= Alpha
 Occup=    1.00000
   1     -0.01773899460532
   2    0.00094580262331726
   3    -0.0069878606944146
   4    -0.00040960278289729
   5    0.00012780709640003
   6    -0.0011897516808498
   7    -0.00081133812856238
   8    -0.0012318044766781
   9    0.0054080421047767
  10    0.00086846440046102
  11    0.00084672273495476
  12    -0.00013957723246133
  13    0.00021486477072171
  14    -3.0292996243177e-05
  15    0.00052381201610559
  16    0.00097846057479926
  17     -0.99490447333801
  18    -0.036872021435916
  19     0.028322907721263
  20    -0.00093821184896927
  21    -0.00016466623560337
  22    0.00054950898651956
  23    0.0035064230656667
  24    0.0010475366370982
  25    0.00081529798819342
  26    -0.00076915648966015
  27      0.00029855989848
  28    0.00034062194281897
  29    -0.00029843084851996
  30    -0.0002045763278272
  31    0.0011198684623483
  32    -0.0038503695193179
  33    -0.012301596480526
  34    0.00029008258008809
  35    -0.00085899167362464
  36    -0.00083139159164884
  37    -0.00032667243041786
  38    0.0011210874947043
  39    0.0023389920019751
  40    -0.0035419635037668
  41    -0.0040258970932301
  42    0.00059981139345993
  43    -0.0011765572078857
  44    -0.00045465511286117
  45    0.00033854408913737
  46    0.00037945173175726
  47    0.00054881370075748
  48    0.00060006326453923
  49    -5.5340061586549e-05
  50    0.00053504156578967
  51    -0.00034068743131335
  52    -0.00024884722646262
  53    -4.2120288612537e-05
  54    0.00039913211706568
  55    0.0048115721774843
  56    -0.0011351392240127
  57    -0.0069590272418447
  58    0.00014977003777592
  59    1.6448254810821e-05
  60    -0.00015629895352884
  61    0.00023855125817287
  62    0.00018641655787109
  63    0.00046200294101054
  64    -0.0002975373789701
  65    2.2821404681036e-06
  66    1.811403578751e-06
  67    3.842784431345e-07
  68    2.1733232461029e-06
  69    -6.3658091579234e-06
  70    5.1361625179081e-06
  71    -1.5611255112735e-06
  72    -2.6458744300224e-06
  73    -8.3468688916822e-06
  74    -3.1561633695552e-05
  75    -7.8596331203107e-06
  76    4.2203720573185e-07
  77    -2.1098109042532e-07
  78    7.726516850518e-08
  79    -7.8248457998377e-07
  80    -5.9102612397131e-08
  81    -2.6674548032695e-06
  82    -1.5313094837397e-05
  83    -2.6353557108236e-06
  84    1.0031154614995e-06
  85    7.3224636579443e-05
  86    -1.9753873842343e-05
  87    -4.2667929104023e-06
  88    -1.6514414750368e-05
  89    -3.2543060106819e-05
  90    6.5627390891367e-05
  91    -1.5667142245575e-05
  92    -1.6829915431219e-07
  93    1.4419079678617e-06
  94    -4.1517292883662e-06
  95    5.6366231419246e-07
  96    5.3199184637732e-07
  97    -1.8054209823005e-05
  98    -2.5838989146495e-05
  99    -3.2382213168065e-07
 100    1.5980024707005e-05
 101    1.4071556559729e-05
 102    -8.5758301951762e-06
 103    -0.00028233811990192
 104    5.1231433090307e-05
 105    1.0687517956133e-05
 106    2.688450174717e-05
 107    0.00020166001622642
 108    -0.00017391444908933
 109    -0.00011526529608074
 110    6.3164679231178e-06
 111    -1.3895334230837e-06
 112    6.4852776737506e-08
 113    -2.5551564761947e-06
 114    5.0107380453608e-06
 115    5.2289862104826e-06
 116    2.5791501254494e-05
 117    -0.00023533570188922
 118    1.7473979627093e-06
 119    -7.220581311847e-06
 120    1.6655390331226e-05
 121    3.9613571449456e-05
 122    6.558393357514e-06
 123    -5.4616007940856e-06
 124    -1.2365636792176e-06
 125    3.306711635773e-06
 126    1.8072906874542e-06
 127    -2.0467701470828e-06
 128    9.7258016984715e-07
 129    1.6297570833658e-05
 130    2.1445430864115e-05
 131    -0.00017252206039023
 132    -2.171175235375e-05
 133    4.4338074962336e-05
 134    1.0062056774318e-05
 135    0.00036628287271313
 136    -2.2342845170575e-05
 137    0.00039127550668735
 138    -4.9860057632843e-06
 139    -2.0254166193359e-05
 140    -4.0024631135417e-06
 141    -4.9807419089262e-06
 142    -4.364503911285e-06
 143    -6.150815380733e-06
 144    3.8119024400278e-05
 145    2.7633519650429e-05
 146    1.9979276513326e-05
 147    -2.853860639569e-05
 148    -4.8006299539361e-05
 149    1.6262430648631e-05
 150    -2.3633671828165e-05
 151    4.6592948461689e-05
 152    5.7499000667063e-06
 153    2.715943615019e-06
 154    3.4373684555765e-06
 155    -3.084219882193e-06
 156    4.0362613156217e-06
 157    -2.3470899477518e-06
 158    -1.1730772549261e-05
 159    4.8597779911478e-05
 160    -1.563794256131e-05
 161    6.4477607502167e-06
 162    -1.5686121032113e-05
 163    3.7169950805935e-05
 164    -1.9909198428577e-05
 165    -1.9344033963834e-05
 166    -4.9059262127065e-06
 167    1.3272856944168e-06
 168    5.8348086067044e-07
 169    -5.1332012794708e-07
 170    -2.3804583681974e-06
 171    -1.5674113027557e-06
 172    1.4505570795196e-05
 173    -1.2824671579185e-05
 174    3.6418608032837e-06
 175    1.5352404125049e-06
 176    -2.9742543643483e-05
 177    -4.6096212868873e-06
 178    1.0797066103671e-06
 179    1.2648534597265e-05
 180    -1.2606374062439e-06
 181    -4.6773107451972e-06
 182    -1.1210823424259e-06
 183    2.1064065256288e-06
 184    -1.2489066780974e-06
 185    5.6777837722905e-06
 186    2.5007781486419e-05
 187    -0.0001035033394126
 188    2.1552081807825e-06
 189    7.108232573611e-06
 190    1.3336398824825e-05
 191    7.7309544604916e-06
 192    1.9710784845175e-05
 193    8.6989794809701e-05
 194    -2.6447252463448e-06
 195    -3.6342677403246e-06
 196    -1.801907028408e-06
 197    3.4101338946744e-07
 198    -4.9421597106357e-07
 199    8.254601367255e-06
 200    3.4174732935986e-09
 201    1.4451102225184e-05
 202    5.3003205245926e-08
 203    1.9643376217092e-05
 204    2.5720723775658e-05
 205    -8.7761238291603e-06
 206    1.4442480702396e-05
 207    -1.533974785935e-05
 208    7.7774051326482e-05
 209    -2.0588068159807e-06
 210    2.3433605766605e-05
 211    -6.734821303829e-06
 212    -1.9715421217823e-05
 213    -3.3627045070199e-07
 214    2.0263020661341e-05
 215    1.1130317446051e-05
 216    2.3260550011065e-05
 217    -5.3145453782926e-06
 218    -8.4758103379254e-06
 219    -5.7768251089374e-06
 220    -5.6358949905457e-06
 221    -1.2184787636997e-05
 222    5.8503546320316e-05
 223    -0.00090965371146061
 224    0.00021518167101506
 225    -3.6312666143844e-05
 226    -7.1055692533823e-05
 227    -0.00054029039722521
 228    -0.00034009397462557
 229    0.00087054218546104
 230    -7.3621697897469e-06
 231    3.6113205820194e-05
 232    2.7578217570939e-05
 233    -2.1251305326038e-05
 234    -2.2387863118495e-05
 235    0.00020977506634927
 236    -0.00028758994256703
 237    -7.8195100050555e-05
 238    0.00012648614574495
 239    -0.00017952129341105
 240    0.00047430479551466
 241    -0.00025893850658117
 242    -0.00043624788424283
 243    0.0016597331973647
 244    -2.3403860201451e-05
 245    -6.9155030199065e-05
 246    -1.0555940576266e-05
 247    -2.1951065272076e-05
 248    3.3838492483325e-06
 249    -6.2031077620514e-05
 250    -0.00033851465366412
 251    -0.00015367652721714
 252    0.00030594178140442
 253    -0.0019887760117897
 254    -0.00065518896064208
 255    -7.0425477772472e-05
 256    -0.00068700302373596
 257    -0.00012510947647742
 258    -0.0004131043474913
 259    0.0015670993908774
 260    2.9375037419621e-05
 261    9.9804666102633e-06
 262    1.621399794816e-05
 263    -0.00011795074753436
 264    -7.1546847770654e-05
 265    6.4136505539373e-05
 266    -0.00011559209070185
 267    0.00051153804971237
 268    0.00084598970145284
 269    0.00012706082288263
 270    0.00057985210763769
 271    -0.0064172141530732
 272    0.00013064025133312
 273    -0.00027495931223022
 274    -0.00020626027915009
 275    0.0015207746138735
 276    0.0026406494807248
 277    -0.0026748685270967
 278    -7.6081589350789e-05
 279    0.00017025836901342
 280    9.5448353399181e-05