[Molden Format]
made by pyscf v[2.0.1]
[Atoms] (AU)
C   1   6     0.69100024066471     0.64692934207205    -3.48223131169301
H   2   1     2.68052439830868     1.13355088658700    -3.25784032593313
C   3   6    -0.36286361513219     0.85440132524594    -5.97030179418974
H   4   1    -2.35448549047279     0.36322488579172    -6.17995817793143
C   5   6     0.93697958957450     1.61209284601821    -8.05828437677121
H   6   1    -0.04002876534153     1.70579051152009    -9.86870372539436
C   7   6     3.55882871340184     2.30532870411993    -8.01809862923490
H   8   1     4.51217335653741     2.20318273111775    -6.19041637810672
H   9   1     1.55630230933075    -1.92953025305990    12.99630010416247
C   10   6     0.75233899775814    -2.21270439606481    11.10705728102219
H   11   1    -0.43433408177274    -3.90944857546550    11.22216085340412
C   12   6     2.86362581178706    -2.63237380607947     9.17926416456045
H   13   1     4.39038949912609    -1.24955421540245     9.49899813497433
H   14   1     3.74629220191363    -4.48798724300892     9.47414880959024
C   15   6     2.02478325613682    -2.42177285709634     6.44560829588644
C   16   6     3.88048732735477    -3.58795445234514     4.61402886975252
C   17   6    -0.18412382258602    -1.30464291234259     5.76021113872346
C   18   6    -2.10044360464350    -0.26837831858460     7.71610340967100
C   19   6    -3.08956938670431     2.35282328359417     6.88693925039594
C   20   6    -4.37372924086464    -2.09766595989678     7.93610724222001
C   21   6    -0.83850430601230     0.06372213486173    10.33002307638377
H   22   1     0.38411922151109     1.74281358582432    10.27380136542181
H   23   1    -2.30980003007874     0.45460143924521    11.73986301809809
H   24   1     4.58527064644668    -5.38706904487420     5.36778158031719
H   25   1     5.54944938085014    -2.37631462192748     4.35398898413318
H   26   1     3.06633019150423    -3.94118377050688     2.75255466040884
H   27   1    -4.17727778763735     2.26573369139522     5.12914900961283
H   28   1    -1.52662344944051     3.68001877445626     6.59540397144508
H   29   1    -4.32916174397830     3.13643051467482     8.35225460090378
H   30   1    -5.32329548508442    -2.36691813602939     6.11583672749896
H   31   1    -5.77989366602257    -1.33896741843465     9.25748940450990
H   32   1    -3.79310905208926    -3.96389819310853     8.61386170102686
C   33   6    -1.01100794811226    -1.06331657314144     3.11929490449947
C   34   6     0.37686231036534    -0.33275864505552     1.09165013605873
H   35   1    -3.01671213906703    -1.40297922279997     2.77827895090944
C   36   6    -0.64382707979370    -0.11591880174385    -1.42063131251064
H   37   1     2.35569259782137     0.17174499283897     1.33641070251401
H   38   1    -2.63317482980319    -0.60229203511219    -1.66119700387645
C   39   6     4.92949292707610     3.06752929189425   -10.04715344157890
C   40   6     7.59555456141448     3.73329481661799    -9.81073387339210
H   41   1     4.09542353861424     3.21030697797155   -11.92110945203513
O   42   8     8.93835728030826     4.43020973545744   -11.55200196938216
H   43   1     8.37079058468688     3.56000927179912    -7.85902689076443
[GTO]
1 0
 s    6 1.00
             3047.5249  0.0018347001629433
             457.36951    0.01403730124668
             103.94869   0.068842606114048
             29.210155    0.23218442062076
              9.286663    0.46794134155879
              3.163927    0.36231203217765
 s    3 1.00
             7.8682724   -0.11933240861517
             1.8812885   -0.16085421161283
             0.5442493     1.1434564825515
 s    1 1.00
             0.1687144                   1
 p    3 1.00
             7.8682724   0.068999095584993
             1.8812885    0.31642397975315
             0.5442493    0.74430825237435
 p    1 1.00
             0.1687144                   1
 d    1 1.00
                   0.8                   1

2 0
 s    3 1.00
             18.731137    0.03349459952309
             2.8253937    0.23472694665786
             0.6401217    0.81375731841339
 s    1 1.00
             0.1612778                   1

3 0
 s    6 1.00
             3047.5249  0.0018347001629433
             457.36951    0.01403730124668
             103.94869   0.068842606114048
             29.210155    0.23218442062076
              9.286663    0.46794134155879
              3.163927    0.36231203217765
 s    3 1.00
             7.8682724   -0.11933240861517
             1.8812885   -0.16085421161283
             0.5442493     1.1434564825515
 s    1 1.00
             0.1687144                   1
 p    3 1.00
             7.8682724   0.068999095584993
             1.8812885    0.31642397975315
             0.5442493    0.74430825237435
 p    1 1.00
             0.1687144                   1
 d    1 1.00
                   0.8                   1

4 0
 s    3 1.00
             18.731137    0.03349459952309
             2.8253937    0.23472694665786
             0.6401217    0.81375731841339
 s    1 1.00
             0.1612778                   1

5 0
 s    6 1.00
             3047.5249  0.0018347001629433
             457.36951    0.01403730124668
             103.94869   0.068842606114048
             29.210155    0.23218442062076
              9.286663    0.46794134155879
              3.163927    0.36231203217765
 s    3 1.00
             7.8682724   -0.11933240861517
             1.8812885   -0.16085421161283
             0.5442493     1.1434564825515
 s    1 1.00
             0.1687144                   1
 p    3 1.00
             7.8682724   0.068999095584993
             1.8812885    0.31642397975315
             0.5442493    0.74430825237435
 p    1 1.00
             0.1687144                   1
 d    1 1.00
                   0.8                   1

6 0
 s    3 1.00
             18.731137    0.03349459952309
             2.8253937    0.23472694665786
             0.6401217    0.81375731841339
 s    1 1.00
             0.1612778                   1

7 0
 s    6 1.00
             3047.5249  0.0018347001629433
             457.36951    0.01403730124668
             103.94869   0.068842606114048
             29.210155    0.23218442062076
              9.286663    0.46794134155879
              3.163927    0.36231203217765
 s    3 1.00
             7.8682724   -0.11933240861517
             1.8812885   -0.16085421161283
             0.5442493     1.1434564825515
 s    1 1.00
             0.1687144                   1
 p    3 1.00
             7.8682724   0.068999095584993
             1.8812885    0.31642397975315
             0.5442493    0.74430825237435
 p    1 1.00
             0.1687144                   1
 d    1 1.00
                   0.8                   1

8 0
 s    3 1.00
             18.731137    0.03349459952309
             2.8253937    0.23472694665786
             0.6401217    0.81375731841339
 s    1 1.00
             0.1612778                   1

9 0
 s    3 1.00
             18.731137    0.03349459952309
             2.8253937    0.23472694665786
             0.6401217    0.81375731841339
 s    1 1.00
             0.1612778                   1

10 0
 s    6 1.00
             3047.5249  0.0018347001629433
             457.36951    0.01403730124668
             103.94869   0.068842606114048
             29.210155    0.23218442062076
              9.286663    0.46794134155879
              3.163927    0.36231203217765
 s    3 1.00
             7.8682724   -0.11933240861517
             1.8812885   -0.16085421161283
             0.5442493     1.1434564825515
 s    1 1.00
             0.1687144                   1
 p    3 1.00
             7.8682724   0.068999095584993
             1.8812885    0.31642397975315
             0.5442493    0.74430825237435
 p    1 1.00
             0.1687144                   1
 d    1 1.00
                   0.8                   1

11 0
 s    3 1.00
             18.731137    0.03349459952309
             2.8253937    0.23472694665786
             0.6401217    0.81375731841339
 s    1 1.00
             0.1612778                   1

12 0
 s    6 1.00
             3047.5249  0.0018347001629433
             457.36951    0.01403730124668
             103.94869   0.068842606114048
             29.210155    0.23218442062076
              9.286663    0.46794134155879
              3.163927    0.36231203217765
 s    3 1.00
             7.8682724   -0.11933240861517
             1.8812885   -0.16085421161283
             0.5442493     1.1434564825515
 s    1 1.00
             0.1687144                   1
 p    3 1.00
             7.8682724   0.068999095584993
             1.8812885    0.31642397975315
             0.5442493    0.74430825237435
 p    1 1.00
             0.1687144                   1
 d    1 1.00
                   0.8                   1

13 0
 s    3 1.00
             18.731137    0.03349459952309
             2.8253937    0.23472694665786
             0.6401217    0.81375731841339
 s    1 1.00
             0.1612778                   1

14 0
 s    3 1.00
             18.731137    0.03349459952309
             2.8253937    0.23472694665786
             0.6401217    0.81375731841339
 s    1 1.00
             0.1612778                   1

15 0
 s    6 1.00
             3047.5249  0.0018347001629433
             457.36951    0.01403730124668
             103.94869   0.068842606114048
             29.210155    0.23218442062076
              9.286663    0.46794134155879
              3.163927    0.36231203217765
 s    3 1.00
             7.8682724   -0.11933240861517
             1.8812885   -0.16085421161283
             0.5442493     1.1434564825515
 s    1 1.00
             0.1687144                   1
 p    3 1.00
             7.8682724   0.068999095584993
             1.8812885    0.31642397975315
             0.5442493    0.74430825237435
 p    1 1.00
             0.1687144                   1
 d    1 1.00
                   0.8                   1

16 0
 s    6 1.00
             3047.5249  0.0018347001629433
             457.36951    0.01403730124668
             103.94869   0.068842606114048
             29.210155    0.23218442062076
              9.286663    0.46794134155879
              3.163927    0.36231203217765
 s    3 1.00
             7.8682724   -0.11933240861517
             1.8812885   -0.16085421161283
             0.5442493     1.1434564825515
 s    1 1.00
             0.1687144                   1
 p    3 1.00
             7.8682724   0.068999095584993
             1.8812885    0.31642397975315
             0.5442493    0.74430825237435
 p    1 1.00
             0.1687144                   1
 d    1 1.00
                   0.8                   1

17 0
 s    6 1.00
             3047.5249  0.0018347001629433
             457.36951    0.01403730124668
             103.94869   0.068842606114048
             29.210155    0.23218442062076
              9.286663    0.46794134155879
              3.163927    0.36231203217765
 s    3 1.00
             7.8682724   -0.11933240861517
             1.8812885   -0.16085421161283
             0.5442493     1.1434564825515
 s    1 1.00
             0.1687144                   1
 p    3 1.00
             7.8682724   0.068999095584993
             1.8812885    0.31642397975315
             0.5442493    0.74430825237435
 p    1 1.00
             0.1687144                   1
 d    1 1.00
                   0.8                   1

18 0
 s    6 1.00
             3047.5249  0.0018347001629433
             457.36951    0.01403730124668
             103.94869   0.068842606114048
             29.210155    0.23218442062076
              9.286663    0.46794134155879
              3.163927    0.36231203217765
 s    3 1.00
             7.8682724   -0.11933240861517
             1.8812885   -0.16085421161283
             0.5442493     1.1434564825515
 s    1 1.00
             0.1687144                   1
 p    3 1.00
             7.8682724   0.068999095584993
             1.8812885    0.31642397975315
             0.5442493    0.74430825237435
 p    1 1.00
             0.1687144                   1
 d    1 1.00
                   0.8                   1

19 0
 s    6 1.00
             3047.5249  0.0018347001629433
             457.36951    0.01403730124668
             103.94869   0.068842606114048
             29.210155    0.23218442062076
              9.286663    0.46794134155879
              3.163927    0.36231203217765
 s    3 1.00
             7.8682724   -0.11933240861517
             1.8812885   -0.16085421161283
             0.5442493     1.1434564825515
 s    1 1.00
             0.1687144                   1
 p    3 1.00
             7.8682724   0.068999095584993
             1.8812885    0.31642397975315
             0.5442493    0.74430825237435
 p    1 1.00
             0.1687144                   1
 d    1 1.00
                   0.8                   1

20 0
 s    6 1.00
             3047.5249  0.0018347001629433
             457.36951    0.01403730124668
             103.94869   0.068842606114048
             29.210155    0.23218442062076
              9.286663    0.46794134155879
              3.163927    0.36231203217765
 s    3 1.00
             7.8682724   -0.11933240861517
             1.8812885   -0.16085421161283
             0.5442493     1.1434564825515
 s    1 1.00
             0.1687144                   1
 p    3 1.00
             7.8682724   0.068999095584993
             1.8812885    0.31642397975315
             0.5442493    0.74430825237435
 p    1 1.00
             0.1687144                   1
 d    1 1.00
                   0.8                   1

21 0
 s    6 1.00
             3047.5249  0.0018347001629433
             457.36951    0.01403730124668
             103.94869   0.068842606114048
             29.210155    0.23218442062076
              9.286663    0.46794134155879
              3.163927    0.36231203217765
 s    3 1.00
             7.8682724   -0.11933240861517
             1.8812885   -0.16085421161283
             0.5442493     1.1434564825515
 s    1 1.00
             0.1687144                   1
 p    3 1.00
             7.8682724   0.068999095584993
             1.8812885    0.31642397975315
             0.5442493    0.74430825237435
 p    1 1.00
             0.1687144                   1
 d    1 1.00
                   0.8                   1

22 0
 s    3 1.00
             18.731137    0.03349459952309
             2.8253937    0.23472694665786
             0.6401217    0.81375731841339
 s    1 1.00
             0.1612778                   1

23 0
 s    3 1.00
             18.731137    0.03349459952309
             2.8253937    0.23472694665786
             0.6401217    0.81375731841339
 s    1 1.00
             0.1612778                   1

24 0
 s    3 1.00
             18.731137    0.03349459952309
             2.8253937    0.23472694665786
             0.6401217    0.81375731841339
 s    1 1.00
             0.1612778                   1

25 0
 s    3 1.00
             18.731137    0.03349459952309
             2.8253937    0.23472694665786
             0.6401217    0.81375731841339
 s    1 1.00
             0.1612778                   1

26 0
 s    3 1.00
             18.731137    0.03349459952309
             2.8253937    0.23472694665786
             0.6401217    0.81375731841339
 s    1 1.00
             0.1612778                   1

27 0
 s    3 1.00
             18.731137    0.03349459952309
             2.8253937    0.23472694665786
             0.6401217    0.81375731841339
 s    1 1.00
             0.1612778                   1

28 0
 s    3 1.00
             18.731137    0.03349459952309
             2.8253937    0.23472694665786
             0.6401217    0.81375731841339
 s    1 1.00
             0.1612778                   1

29 0
 s    3 1.00
             18.731137    0.03349459952309
             2.8253937    0.23472694665786
             0.6401217    0.81375731841339
 s    1 1.00
             0.1612778                   1

30 0
 s    3 1.00
             18.731137    0.03349459952309
             2.8253937    0.23472694665786
             0.6401217    0.81375731841339
 s    1 1.00
             0.1612778                   1

31 0
 s    3 1.00
             18.731137    0.03349459952309
             2.8253937    0.23472694665786
             0.6401217    0.81375731841339
 s    1 1.00
             0.1612778                   1

32 0
 s    3 1.00
             18.731137    0.03349459952309
             2.8253937    0.23472694665786
             0.6401217    0.81375731841339
 s    1 1.00
             0.1612778                   1

33 0
 s    6 1.00
             3047.5249  0.0018347001629433
             457.36951    0.01403730124668
             103.94869   0.068842606114048
             29.210155    0.23218442062076
              9.286663    0.46794134155879
              3.163927    0.36231203217765
 s    3 1.00
             7.8682724   -0.11933240861517
             1.8812885   -0.16085421161283
             0.5442493     1.1434564825515
 s    1 1.00
             0.1687144                   1
 p    3 1.00
             7.8682724   0.068999095584993
             1.8812885    0.31642397975315
             0.5442493    0.74430825237435
 p    1 1.00
             0.1687144                   1
 d    1 1.00
                   0.8                   1

34 0
 s    6 1.00
             3047.5249  0.0018347001629433
             457.36951    0.01403730124668
             103.94869   0.068842606114048
             29.210155    0.23218442062076
              9.286663    0.46794134155879
              3.163927    0.36231203217765
 s    3 1.00
             7.8682724   -0.11933240861517
             1.8812885   -0.16085421161283
             0.5442493     1.1434564825515
 s    1 1.00
             0.1687144                   1
 p    3 1.00
             7.8682724   0.068999095584993
             1.8812885    0.31642397975315
             0.5442493    0.74430825237435
 p    1 1.00
             0.1687144                   1
 d    1 1.00
                   0.8                   1

35 0
 s    3 1.00
             18.731137    0.03349459952309
             2.8253937    0.23472694665786
             0.6401217    0.81375731841339
 s    1 1.00
             0.1612778                   1

36 0
 s    6 1.00
             3047.5249  0.0018347001629433
             457.36951    0.01403730124668
             103.94869   0.068842606114048
             29.210155    0.23218442062076
              9.286663    0.46794134155879
              3.163927    0.36231203217765
 s    3 1.00
             7.8682724   -0.11933240861517
             1.8812885   -0.16085421161283
             0.5442493     1.1434564825515
 s    1 1.00
             0.1687144                   1
 p    3 1.00
             7.8682724   0.068999095584993
             1.8812885    0.31642397975315
             0.5442493    0.74430825237435
 p    1 1.00
             0.1687144                   1
 d    1 1.00
                   0.8                   1

37 0
 s    3 1.00
             18.731137    0.03349459952309
             2.8253937    0.23472694665786
             0.6401217    0.81375731841339
 s    1 1.00
             0.1612778                   1

38 0
 s    3 1.00
             18.731137    0.03349459952309
             2.8253937    0.23472694665786
             0.6401217    0.81375731841339
 s    1 1.00
             0.1612778                   1

39 0
 s    6 1.00
             3047.5249  0.0018347001629433
             457.36951    0.01403730124668
             103.94869   0.068842606114048
             29.210155    0.23218442062076
              9.286663    0.46794134155879
              3.163927    0.36231203217765
 s    3 1.00
             7.8682724   -0.11933240861517
             1.8812885   -0.16085421161283
             0.5442493     1.1434564825515
 s    1 1.00
             0.1687144                   1
 p    3 1.00
             7.8682724   0.068999095584993
             1.8812885    0.31642397975315
             0.5442493    0.74430825237435
 p    1 1.00
             0.1687144                   1
 d    1 1.00
                   0.8                   1

40 0
 s    6 1.00
             3047.5249  0.0018347001629433
             457.36951    0.01403730124668
             103.94869   0.068842606114048
             29.210155    0.23218442062076
              9.286663    0.46794134155879
              3.163927    0.36231203217765
 s    3 1.00
             7.8682724   -0.11933240861517
             1.8812885   -0.16085421161283
             0.5442493     1.1434564825515
 s    1 1.00
             0.1687144                   1
 p    3 1.00
             7.8682724   0.068999095584993
             1.8812885    0.31642397975315
             0.5442493    0.74430825237435
 p    1 1.00
             0.1687144                   1
 d    1 1.00
                   0.8                   1

41 0
 s    3 1.00
             18.731137    0.03349459952309
             2.8253937    0.23472694665786
             0.6401217    0.81375731841339
 s    1 1.00
             0.1612778                   1

42 0
 s    6 1.00
             5484.6717   0.001831099805527
             825.23495   0.013950098518422
             188.04696    0.06844509273075
               52.9645    0.23271427528445
              16.89757    0.47019295006289
             5.7996353    0.35852086192309
 s    3 1.00
             15.539616   -0.11077750382508
             3.5999336   -0.14802630511126
             1.0137618     1.1307670390447
 s    1 1.00
             0.2700058                   1
 p    3 1.00
             15.539616   0.070874299543311
             3.5999336    0.33975279781076
             1.0137618    0.72715859531445
 p    1 1.00
             0.2700058                   1
 d    1 1.00
                   0.8                   1

43 0
 s    3 1.00
             18.731137    0.03349459952309
             2.8253937    0.23472694665786
             0.6401217    0.81375731841339
 s    1 1.00
             0.1612778                   1

[5d]
[7f]
[9g]

[MO]
 Sym= A
 Ene=               0
 Spin= Alpha
 Occup=    1.00000
   1    -1.4501082484265e-05
   2    -0.00010771283400093
   3    0.0014861689379442
   4    -3.3581917312017e-05
   5    -1.1938641049702e-05
   6    1.4837050638884e-05
   7    -0.0001064101721498
   8    0.00031376306468321
   9    -0.0017413431806641
  10    4.5681272500898e-05
  11    5.385735227859e-05
  12    -2.3014776150865e-06
  13    6.949508743293e-06
  14    -7.1931089654705e-06
  15    -5.5101738633636e-05
  16    9.2291540093142e-05
  17    3.8071945191736e-05
  18    0.00021242453337538
  19    -0.003326176356893
  20    -1.778258454085e-05
  21    -2.1428012756952e-05
  22    8.5108820828664e-05
  23    -0.0020943331677552
  24    -0.0004220685045235
  25    -0.00070237621997377
  26    -4.7775965700455e-05
  27    2.2816744039558e-05
  28    3.0542671336517e-05
  29    -2.9149049370561e-05
  30    -2.3318066769571e-05
  31    -8.2930855146107e-05
  32    -0.00048489622822893
  33    -8.6544687906078e-05
  34    -0.00045247240416524
  35    0.0061659642787609
  36    0.00012263870953113
  37    4.5858431879033e-05
  38    -6.6986077497685e-05
  39    0.0028027077015459
  40    0.00035634028754044
  41    0.0020047513846897
  42    -1.4522036226981e-05
  43    -2.4101897521298e-05
  44    -3.6163589221278e-05
  45     0.000144835640589
  46    9.0621538037706e-05
  47    6.499680368468e-05
  48    0.0006391189439137
  49    2.7153874092839e-05
  50    -0.00013134856028103
  51    -0.0043445408258172
  52    -0.00042774727803641
  53    -0.00012417518455314
  54    4.9625142949334e-05
  55    0.0047131027372478
  56    0.0012462434009695
  57    7.2166137715096e-05
  58    0.00022620974521523
  59    -5.2618139584736e-05
  60    -7.177245923481e-05
  61    -9.8672446656646e-05
  62    -4.1927982497651e-05
  63    -0.00025619597746061
  64    -0.00034955544946267
  65    -3.7185548213717e-07
  66    1.8974286936815e-06
  67    -1.4021826759655e-07
  68    -1.348724167754e-06
  69    -1.0093677842274e-06
  70    8.4183022614816e-07
  71    -1.2464401835661e-06
  72    1.9983923462695e-07
  73    3.115489470586e-06
  74    3.0417124700383e-06
  75    -1.9278809433739e-06
  76    3.8793270232519e-07
  77    2.164451811804e-07
  78    7.9162521764841e-08
  79    1.7629249177632e-07
  80    1.9135387727441e-07
  81    3.7984022339179e-07
  82     2.05822548286e-06
  83    3.2639930042135e-07
  84    2.7480986345903e-06
  85    -3.1165879187416e-06
  86    2.3197388233678e-10
  87    8.3048442135096e-07
  88    3.1257459910708e-07
  89    3.5555167803935e-06
  90    -1.3247822794217e-05
  91    -2.6984411244844e-06
  92    -1.4334572855652e-07
  93    -3.0849536083266e-07
  94    9.9985534247315e-07
  95    -4.7194629067036e-07
  96    2.793219182584e-08
  97    1.739634083612e-06
  98    2.391323844986e-06
  99    -1.1037330686099e-06
 100    -3.1091834559705e-06
 101    -6.9197783150317e-07
 102    -3.366484382973e-06
 103    8.8772876335067e-05
 104    -2.0805269864405e-06
 105    -3.9277682103437e-07
 106    -1.561881354464e-06
 107    -2.5041105073743e-05
 108    3.4103457589219e-05
 109    -2.7401088918397e-05
 110    5.7827177062097e-07
 111    1.5661970769626e-06
 112    -6.9474429231153e-07
 113    -4.4403988748937e-07
 114    -1.4749730502463e-06
 115    2.7337723667128e-07
 116    2.5676667870775e-06
 117    -9.9723565511622e-06
 118    4.2539563558852e-08
 119    1.8516723284198e-06
 120    -1.3499213912346e-06
 121    6.6000706646127e-06
 122    -1.7357571702756e-05
 123    7.9965323461387e-06
 124    7.3521910545122e-07
 125    -3.8966188775682e-07
 126    -1.2458333872181e-06
 127    -3.3237472701569e-07
 128    -1.4747778260033e-08
 129    8.8868456178348e-07
 130    3.9657813217484e-06
 131    -6.9638622492883e-08
 132    5.4118848578502e-06
 133    -1.3094438562861e-07
 134    -2.3790859987218e-06
 135    -0.00011655313032274
 136    9.2286548640482e-06
 137    2.9008023515461e-05
 138    -1.5602776588056e-06
 139    5.3220435705486e-07
 140    3.2674891664106e-06
 141    -2.0637694598301e-08
 142    2.8893407185159e-06
 143    2.6391395913153e-07
 144    3.3802381745951e-07
 145    -5.9366096541382e-05
 146    6.6706616647219e-07
 147    -5.7855372670142e-07
 148    6.1247119564832e-06
 149    -2.9713199263984e-05
 150    4.6539199916184e-05
 151    -2.9760328274179e-05
 152    -4.9909834236448e-07
 153    -9.7560534912946e-08
 154    -2.4183736978232e-06
 155    -5.9496016663374e-07
 156    -6.0134293763416e-07
 157    9.1834279565241e-07
 158    8.0581589551802e-06
 159    -4.3890314407528e-05
 160    1.0457949134394e-06
 161    6.915786146673e-07
 162    -1.5765330990661e-06
 163    -1.2105155933769e-05
 164    1.7762965306978e-05
 165    5.673530697187e-06
 166    1.1345362482031e-06
 167    -3.3012107230505e-07
 168    4.9600560101586e-08
 169    1.0147221333386e-06
 170     5.34234175326e-07
 171    -3.9143173981369e-08
 172    -1.0142939169274e-06
 173    1.6308968163772e-06
 174    -1.4540146651114e-06
 175    -2.368940903129e-07
 176    2.6109777445706e-06
 177    2.0931900399257e-05
 178    1.2944430801322e-06
 179    4.9805320214824e-06
 180    -2.7624285138066e-07
 181    1.9049085837018e-06
 182    -1.0910878366878e-07
 183    1.2459151294598e-06
 184    1.5004135333982e-06
 185    -8.0294996525518e-07
 186    -6.3116347303392e-06
 187    4.1882668462785e-05
 188    -1.4541384410199e-06
 189    -4.0206654581936e-07
 190    -1.0965946457367e-06
 191    -4.4348834580389e-06
 192    -1.0907512512505e-05
 193    -1.8695992434809e-05
 194    8.1472218720804e-07
 195    1.1662735731524e-06
 196     1.66942200517e-06
 197    -6.466757490613e-07
 198    6.5134347548601e-07
 199    -2.1010367680587e-06
 200    1.6847881758046e-06
 201    -7.2014560142766e-07
 202    -1.5015380207441e-07
 203    -1.5097140999172e-06
 204    -7.5326266307806e-06
 205    3.0708492413764e-06
 206    5.5038443866983e-07
 207    2.624896919542e-06
 208    1.5101337082286e-06
 209    3.5142222670814e-06
 210    2.4816536454006e-06
 211    2.3601007417434e-06
 212    4.8202641991275e-06
 213    7.6584113256419e-07
 214    -5.8364880387271e-06
 215    -4.7454669579347e-06
 216    2.5469692487107e-05
 217    1.4969048352633e-06
 218    4.1525046441952e-06
 219    3.3134045973382e-07
 220    -4.9418167786598e-06
 221    -5.9898559704118e-06
 222    -3.9131989505158e-05
 223    0.00049131844656452
 224    6.2842328960323e-06
 225    2.5938931183574e-06
 226    -5.8232945120882e-06
 227    0.0001234865655704
 228    7.6044095088748e-05
 229    -0.0002889531497546
 230    9.7487788510131e-06
 231    -1.047598124489e-05
 232    -9.1809572497686e-06
 233    4.5401611464831e-06
 234    4.5304319447397e-06
 235    6.3477849776931e-06
 236    2.9509330803125e-05
 237    -0.00085400197343676
 238    -1.1022818202288e-05
 239    -8.7132574783304e-06
 240    2.981805465731e-05
 241    0.00032408536832236
 242    9.3738151175876e-05
 243    -4.9058236916425e-05
 244    -1.7177625748988e-05
 245    9.9248441528629e-06
 246    8.2281573245197e-06
 247    5.3322513699334e-07
 248    -1.7893707791559e-06
 249    -6.9870702040487e-06
 250    -2.3902838310786e-05
 251    -5.9479526999542e-06
 252    -3.953794829002e-05
 253    0.00089081834418785
 254    -1.6227991461302e-05
 255    1.3479714314798e-06
 256    -3.0116838323636e-05
 257    0.00054315497641181
 258    9.734645314062e-05
 259    0.00025241438250098
 260    9.192915255613e-06
 261    -4.527642178946e-06
 262    -6.4709661364283e-06
 263    8.4852335635916e-06
 264    6.3509370566782e-06
 265    -2.1879177488441e-05
 266    -1.4327880723517e-05
 267    3.0002982383727e-05
 268    0.00016712293316975
 269    7.3293544519846e-05
 270    0.00011355911574878
 271    -0.0035582410165514
 272    -6.7425387142013e-05
 273    1.9035602926778e-05
 274    -0.00018905914136456
 275    -0.0026969685284412
 276    -0.001194163096583
 277    0.0024340359538356
 278    0.00017474086822503
 279    0.00030911783318368
 280    5.6111384863579e-05