[Molden Format]
made by pyscf v[2.0.1]
[Atoms] (AU)
C   1   6     0.69100024066471     0.64692934207205    -3.48223131169301
H   2   1     2.68052439830868     1.13355088658700    -3.25784032593313
C   3   6    -0.36286361513219     0.85440132524594    -5.97030179418974
H   4   1    -2.35448549047279     0.36322488579172    -6.17995817793143
C   5   6     0.93697958957450     1.61209284601821    -8.05828437677121
H   6   1     2.68174994182533     2.67994959464420    -7.82079505522331
C   7   6     0.13444904340515     1.08121190669811   -10.59410649762000
H   8   1    -1.61655526267424     0.00863003830430   -10.80213119601662
H   9   1     1.55630230933075    -1.92953025305990    12.99630010416247
C   10   6     0.75233899775814    -2.21270439606481    11.10705728102219
H   11   1    -0.43433408177274    -3.90944857546550    11.22216085340412
C   12   6     2.86362581178706    -2.63237380607947     9.17926416456045
H   13   1     4.39038949912609    -1.24955421540245     9.49899813497433
H   14   1     3.74629220191363    -4.48798724300892     9.47414880959024
C   15   6     2.02478325613682    -2.42177285709634     6.44560829588644
C   16   6     3.88048732735477    -3.58795445234514     4.61402886975252
C   17   6    -0.18412382258602    -1.30464291234259     5.76021113872346
C   18   6    -2.10044360464350    -0.26837831858460     7.71610340967100
C   19   6    -3.08956938670431     2.35282328359417     6.88693925039594
C   20   6    -4.37372924086464    -2.09766595989678     7.93610724222001
C   21   6    -0.83850430601230     0.06372213486173    10.33002307638377
H   22   1     0.38411922151109     1.74281358582432    10.27380136542181
H   23   1    -2.30980003007874     0.45460143924521    11.73986301809809
H   24   1     4.58527064644668    -5.38706904487420     5.36778158031719
H   25   1     5.54944938085014    -2.37631462192748     4.35398898413318
H   26   1     3.06633019150423    -3.94118377050688     2.75255466040884
H   27   1    -4.17727778763735     2.26573369139522     5.12914900961283
H   28   1    -1.52662344944051     3.68001877445626     6.59540397144508
H   29   1    -4.32916174397830     3.13643051467482     8.35225460090378
H   30   1    -5.32329548508442    -2.36691813602939     6.11583672749896
H   31   1    -5.77989366602257    -1.33896741843465     9.25748940450990
H   32   1    -3.79310905208926    -3.96389819310853     8.61386170102686
C   33   6    -1.01100794811226    -1.06331657314144     3.11929490449947
C   34   6     0.37686231036534    -0.33275864505552     1.09165013605873
H   35   1    -3.01671213906703    -1.40297922279997     2.77827895090944
C   36   6    -0.64382707979370    -0.11591880174385    -1.42063131251064
H   37   1     2.35569259782137     0.17174499283897     1.33641070251401
H   38   1    -2.63317482980319    -0.60229203511219    -1.66119700387645
C   39   6     1.36441264344082     1.79875350819652   -12.72695837882209
C   40   6     0.39042169983249     1.16479015456541   -15.22824898409742
H   41   1     3.11744943935123     2.87075295695162   -12.65315109008398
O   42   8     1.39604269582139     1.74939992973347   -17.22017818748739
H   43   1    -1.40767336523230     0.06622817248511   -15.21429812709214
[GTO]
1 0
 s    6 1.00
             3047.5249  0.0018347001629433
             457.36951    0.01403730124668
             103.94869   0.068842606114048
             29.210155    0.23218442062076
              9.286663    0.46794134155879
              3.163927    0.36231203217765
 s    3 1.00
             7.8682724   -0.11933240861517
             1.8812885   -0.16085421161283
             0.5442493     1.1434564825515
 s    1 1.00
             0.1687144                   1
 p    3 1.00
             7.8682724   0.068999095584993
             1.8812885    0.31642397975315
             0.5442493    0.74430825237435
 p    1 1.00
             0.1687144                   1
 d    1 1.00
                   0.8                   1

2 0
 s    3 1.00
             18.731137    0.03349459952309
             2.8253937    0.23472694665786
             0.6401217    0.81375731841339
 s    1 1.00
             0.1612778                   1

3 0
 s    6 1.00
             3047.5249  0.0018347001629433
             457.36951    0.01403730124668
             103.94869   0.068842606114048
             29.210155    0.23218442062076
              9.286663    0.46794134155879
              3.163927    0.36231203217765
 s    3 1.00
             7.8682724   -0.11933240861517
             1.8812885   -0.16085421161283
             0.5442493     1.1434564825515
 s    1 1.00
             0.1687144                   1
 p    3 1.00
             7.8682724   0.068999095584993
             1.8812885    0.31642397975315
             0.5442493    0.74430825237435
 p    1 1.00
             0.1687144                   1
 d    1 1.00
                   0.8                   1

4 0
 s    3 1.00
             18.731137    0.03349459952309
             2.8253937    0.23472694665786
             0.6401217    0.81375731841339
 s    1 1.00
             0.1612778                   1

5 0
 s    6 1.00
             3047.5249  0.0018347001629433
             457.36951    0.01403730124668
             103.94869   0.068842606114048
             29.210155    0.23218442062076
              9.286663    0.46794134155879
              3.163927    0.36231203217765
 s    3 1.00
             7.8682724   -0.11933240861517
             1.8812885   -0.16085421161283
             0.5442493     1.1434564825515
 s    1 1.00
             0.1687144                   1
 p    3 1.00
             7.8682724   0.068999095584993
             1.8812885    0.31642397975315
             0.5442493    0.74430825237435
 p    1 1.00
             0.1687144                   1
 d    1 1.00
                   0.8                   1

6 0
 s    3 1.00
             18.731137    0.03349459952309
             2.8253937    0.23472694665786
             0.6401217    0.81375731841339
 s    1 1.00
             0.1612778                   1

7 0
 s    6 1.00
             3047.5249  0.0018347001629433
             457.36951    0.01403730124668
             103.94869   0.068842606114048
             29.210155    0.23218442062076
              9.286663    0.46794134155879
              3.163927    0.36231203217765
 s    3 1.00
             7.8682724   -0.11933240861517
             1.8812885   -0.16085421161283
             0.5442493     1.1434564825515
 s    1 1.00
             0.1687144                   1
 p    3 1.00
             7.8682724   0.068999095584993
             1.8812885    0.31642397975315
             0.5442493    0.74430825237435
 p    1 1.00
             0.1687144                   1
 d    1 1.00
                   0.8                   1

8 0
 s    3 1.00
             18.731137    0.03349459952309
             2.8253937    0.23472694665786
             0.6401217    0.81375731841339
 s    1 1.00
             0.1612778                   1

9 0
 s    3 1.00
             18.731137    0.03349459952309
             2.8253937    0.23472694665786
             0.6401217    0.81375731841339
 s    1 1.00
             0.1612778                   1

10 0
 s    6 1.00
             3047.5249  0.0018347001629433
             457.36951    0.01403730124668
             103.94869   0.068842606114048
             29.210155    0.23218442062076
              9.286663    0.46794134155879
              3.163927    0.36231203217765
 s    3 1.00
             7.8682724   -0.11933240861517
             1.8812885   -0.16085421161283
             0.5442493     1.1434564825515
 s    1 1.00
             0.1687144                   1
 p    3 1.00
             7.8682724   0.068999095584993
             1.8812885    0.31642397975315
             0.5442493    0.74430825237435
 p    1 1.00
             0.1687144                   1
 d    1 1.00
                   0.8                   1

11 0
 s    3 1.00
             18.731137    0.03349459952309
             2.8253937    0.23472694665786
             0.6401217    0.81375731841339
 s    1 1.00
             0.1612778                   1

12 0
 s    6 1.00
             3047.5249  0.0018347001629433
             457.36951    0.01403730124668
             103.94869   0.068842606114048
             29.210155    0.23218442062076
              9.286663    0.46794134155879
              3.163927    0.36231203217765
 s    3 1.00
             7.8682724   -0.11933240861517
             1.8812885   -0.16085421161283
             0.5442493     1.1434564825515
 s    1 1.00
             0.1687144                   1
 p    3 1.00
             7.8682724   0.068999095584993
             1.8812885    0.31642397975315
             0.5442493    0.74430825237435
 p    1 1.00
             0.1687144                   1
 d    1 1.00
                   0.8                   1

13 0
 s    3 1.00
             18.731137    0.03349459952309
             2.8253937    0.23472694665786
             0.6401217    0.81375731841339
 s    1 1.00
             0.1612778                   1

14 0
 s    3 1.00
             18.731137    0.03349459952309
             2.8253937    0.23472694665786
             0.6401217    0.81375731841339
 s    1 1.00
             0.1612778                   1

15 0
 s    6 1.00
             3047.5249  0.0018347001629433
             457.36951    0.01403730124668
             103.94869   0.068842606114048
             29.210155    0.23218442062076
              9.286663    0.46794134155879
              3.163927    0.36231203217765
 s    3 1.00
             7.8682724   -0.11933240861517
             1.8812885   -0.16085421161283
             0.5442493     1.1434564825515
 s    1 1.00
             0.1687144                   1
 p    3 1.00
             7.8682724   0.068999095584993
             1.8812885    0.31642397975315
             0.5442493    0.74430825237435
 p    1 1.00
             0.1687144                   1
 d    1 1.00
                   0.8                   1

16 0
 s    6 1.00
             3047.5249  0.0018347001629433
             457.36951    0.01403730124668
             103.94869   0.068842606114048
             29.210155    0.23218442062076
              9.286663    0.46794134155879
              3.163927    0.36231203217765
 s    3 1.00
             7.8682724   -0.11933240861517
             1.8812885   -0.16085421161283
             0.5442493     1.1434564825515
 s    1 1.00
             0.1687144                   1
 p    3 1.00
             7.8682724   0.068999095584993
             1.8812885    0.31642397975315
             0.5442493    0.74430825237435
 p    1 1.00
             0.1687144                   1
 d    1 1.00
                   0.8                   1

17 0
 s    6 1.00
             3047.5249  0.0018347001629433
             457.36951    0.01403730124668
             103.94869   0.068842606114048
             29.210155    0.23218442062076
              9.286663    0.46794134155879
              3.163927    0.36231203217765
 s    3 1.00
             7.8682724   -0.11933240861517
             1.8812885   -0.16085421161283
             0.5442493     1.1434564825515
 s    1 1.00
             0.1687144                   1
 p    3 1.00
             7.8682724   0.068999095584993
             1.8812885    0.31642397975315
             0.5442493    0.74430825237435
 p    1 1.00
             0.1687144                   1
 d    1 1.00
                   0.8                   1

18 0
 s    6 1.00
             3047.5249  0.0018347001629433
             457.36951    0.01403730124668
             103.94869   0.068842606114048
             29.210155    0.23218442062076
              9.286663    0.46794134155879
              3.163927    0.36231203217765
 s    3 1.00
             7.8682724   -0.11933240861517
             1.8812885   -0.16085421161283
             0.5442493     1.1434564825515
 s    1 1.00
             0.1687144                   1
 p    3 1.00
             7.8682724   0.068999095584993
             1.8812885    0.31642397975315
             0.5442493    0.74430825237435
 p    1 1.00
             0.1687144                   1
 d    1 1.00
                   0.8                   1

19 0
 s    6 1.00
             3047.5249  0.0018347001629433
             457.36951    0.01403730124668
             103.94869   0.068842606114048
             29.210155    0.23218442062076
              9.286663    0.46794134155879
              3.163927    0.36231203217765
 s    3 1.00
             7.8682724   -0.11933240861517
             1.8812885   -0.16085421161283
             0.5442493     1.1434564825515
 s    1 1.00
             0.1687144                   1
 p    3 1.00
             7.8682724   0.068999095584993
             1.8812885    0.31642397975315
             0.5442493    0.74430825237435
 p    1 1.00
             0.1687144                   1
 d    1 1.00
                   0.8                   1

20 0
 s    6 1.00
             3047.5249  0.0018347001629433
             457.36951    0.01403730124668
             103.94869   0.068842606114048
             29.210155    0.23218442062076
              9.286663    0.46794134155879
              3.163927    0.36231203217765
 s    3 1.00
             7.8682724   -0.11933240861517
             1.8812885   -0.16085421161283
             0.5442493     1.1434564825515
 s    1 1.00
             0.1687144                   1
 p    3 1.00
             7.8682724   0.068999095584993
             1.8812885    0.31642397975315
             0.5442493    0.74430825237435
 p    1 1.00
             0.1687144                   1
 d    1 1.00
                   0.8                   1

21 0
 s    6 1.00
             3047.5249  0.0018347001629433
             457.36951    0.01403730124668
             103.94869   0.068842606114048
             29.210155    0.23218442062076
              9.286663    0.46794134155879
              3.163927    0.36231203217765
 s    3 1.00
             7.8682724   -0.11933240861517
             1.8812885   -0.16085421161283
             0.5442493     1.1434564825515
 s    1 1.00
             0.1687144                   1
 p    3 1.00
             7.8682724   0.068999095584993
             1.8812885    0.31642397975315
             0.5442493    0.74430825237435
 p    1 1.00
             0.1687144                   1
 d    1 1.00
                   0.8                   1

22 0
 s    3 1.00
             18.731137    0.03349459952309
             2.8253937    0.23472694665786
             0.6401217    0.81375731841339
 s    1 1.00
             0.1612778                   1

23 0
 s    3 1.00
             18.731137    0.03349459952309
             2.8253937    0.23472694665786
             0.6401217    0.81375731841339
 s    1 1.00
             0.1612778                   1

24 0
 s    3 1.00
             18.731137    0.03349459952309
             2.8253937    0.23472694665786
             0.6401217    0.81375731841339
 s    1 1.00
             0.1612778                   1

25 0
 s    3 1.00
             18.731137    0.03349459952309
             2.8253937    0.23472694665786
             0.6401217    0.81375731841339
 s    1 1.00
             0.1612778                   1

26 0
 s    3 1.00
             18.731137    0.03349459952309
             2.8253937    0.23472694665786
             0.6401217    0.81375731841339
 s    1 1.00
             0.1612778                   1

27 0
 s    3 1.00
             18.731137    0.03349459952309
             2.8253937    0.23472694665786
             0.6401217    0.81375731841339
 s    1 1.00
             0.1612778                   1

28 0
 s    3 1.00
             18.731137    0.03349459952309
             2.8253937    0.23472694665786
             0.6401217    0.81375731841339
 s    1 1.00
             0.1612778                   1

29 0
 s    3 1.00
             18.731137    0.03349459952309
             2.8253937    0.23472694665786
             0.6401217    0.81375731841339
 s    1 1.00
             0.1612778                   1

30 0
 s    3 1.00
             18.731137    0.03349459952309
             2.8253937    0.23472694665786
             0.6401217    0.81375731841339
 s    1 1.00
             0.1612778                   1

31 0
 s    3 1.00
             18.731137    0.03349459952309
             2.8253937    0.23472694665786
             0.6401217    0.81375731841339
 s    1 1.00
             0.1612778                   1

32 0
 s    3 1.00
             18.731137    0.03349459952309
             2.8253937    0.23472694665786
             0.6401217    0.81375731841339
 s    1 1.00
             0.1612778                   1

33 0
 s    6 1.00
             3047.5249  0.0018347001629433
             457.36951    0.01403730124668
             103.94869   0.068842606114048
             29.210155    0.23218442062076
              9.286663    0.46794134155879
              3.163927    0.36231203217765
 s    3 1.00
             7.8682724   -0.11933240861517
             1.8812885   -0.16085421161283
             0.5442493     1.1434564825515
 s    1 1.00
             0.1687144                   1
 p    3 1.00
             7.8682724   0.068999095584993
             1.8812885    0.31642397975315
             0.5442493    0.74430825237435
 p    1 1.00
             0.1687144                   1
 d    1 1.00
                   0.8                   1

34 0
 s    6 1.00
             3047.5249  0.0018347001629433
             457.36951    0.01403730124668
             103.94869   0.068842606114048
             29.210155    0.23218442062076
              9.286663    0.46794134155879
              3.163927    0.36231203217765
 s    3 1.00
             7.8682724   -0.11933240861517
             1.8812885   -0.16085421161283
             0.5442493     1.1434564825515
 s    1 1.00
             0.1687144                   1
 p    3 1.00
             7.8682724   0.068999095584993
             1.8812885    0.31642397975315
             0.5442493    0.74430825237435
 p    1 1.00
             0.1687144                   1
 d    1 1.00
                   0.8                   1

35 0
 s    3 1.00
             18.731137    0.03349459952309
             2.8253937    0.23472694665786
             0.6401217    0.81375731841339
 s    1 1.00
             0.1612778                   1

36 0
 s    6 1.00
             3047.5249  0.0018347001629433
             457.36951    0.01403730124668
             103.94869   0.068842606114048
             29.210155    0.23218442062076
              9.286663    0.46794134155879
              3.163927    0.36231203217765
 s    3 1.00
             7.8682724   -0.11933240861517
             1.8812885   -0.16085421161283
             0.5442493     1.1434564825515
 s    1 1.00
             0.1687144                   1
 p    3 1.00
             7.8682724   0.068999095584993
             1.8812885    0.31642397975315
             0.5442493    0.74430825237435
 p    1 1.00
             0.1687144                   1
 d    1 1.00
                   0.8                   1

37 0
 s    3 1.00
             18.731137    0.03349459952309
             2.8253937    0.23472694665786
             0.6401217    0.81375731841339
 s    1 1.00
             0.1612778                   1

38 0
 s    3 1.00
             18.731137    0.03349459952309
             2.8253937    0.23472694665786
             0.6401217    0.81375731841339
 s    1 1.00
             0.1612778                   1

39 0
 s    6 1.00
             3047.5249  0.0018347001629433
             457.36951    0.01403730124668
             103.94869   0.068842606114048
             29.210155    0.23218442062076
              9.286663    0.46794134155879
              3.163927    0.36231203217765
 s    3 1.00
             7.8682724   -0.11933240861517
             1.8812885   -0.16085421161283
             0.5442493     1.1434564825515
 s    1 1.00
             0.1687144                   1
 p    3 1.00
             7.8682724   0.068999095584993
             1.8812885    0.31642397975315
             0.5442493    0.74430825237435
 p    1 1.00
             0.1687144                   1
 d    1 1.00
                   0.8                   1

40 0
 s    6 1.00
             3047.5249  0.0018347001629433
             457.36951    0.01403730124668
             103.94869   0.068842606114048
             29.210155    0.23218442062076
              9.286663    0.46794134155879
              3.163927    0.36231203217765
 s    3 1.00
             7.8682724   -0.11933240861517
             1.8812885   -0.16085421161283
             0.5442493     1.1434564825515
 s    1 1.00
             0.1687144                   1
 p    3 1.00
             7.8682724   0.068999095584993
             1.8812885    0.31642397975315
             0.5442493    0.74430825237435
 p    1 1.00
             0.1687144                   1
 d    1 1.00
                   0.8                   1

41 0
 s    3 1.00
             18.731137    0.03349459952309
             2.8253937    0.23472694665786
             0.6401217    0.81375731841339
 s    1 1.00
             0.1612778                   1

42 0
 s    6 1.00
             5484.6717   0.001831099805527
             825.23495   0.013950098518422
             188.04696    0.06844509273075
               52.9645    0.23271427528445
              16.89757    0.47019295006289
             5.7996353    0.35852086192309
 s    3 1.00
             15.539616   -0.11077750382508
             3.5999336   -0.14802630511126
             1.0137618     1.1307670390447
 s    1 1.00
             0.2700058                   1
 p    3 1.00
             15.539616   0.070874299543311
             3.5999336    0.33975279781076
             1.0137618    0.72715859531445
 p    1 1.00
             0.2700058                   1
 d    1 1.00
                   0.8                   1

43 0
 s    3 1.00
             18.731137    0.03349459952309
             2.8253937    0.23472694665786
             0.6401217    0.81375731841339
 s    1 1.00
             0.1612778                   1

[5d]
[7f]
[9g]

[MO]
 Sym= A
 Ene=               0
 Spin= Alpha
 Occup=    1.00000
   1    -7.2791081812589e-06
   2    -4.2632877889538e-05
   3    -7.5761091133702e-05
   4    -1.6032342851553e-05
   5    -2.8868454423676e-05
   6    2.3828462221571e-05
   7    0.00023606853487676
   8    0.00028387391157351
   9    -0.00082917143015187
  10    1.9433492219427e-05
  11    3.0292688463176e-05
  12    8.2576867924613e-07
  13    4.4715807849491e-06
  14    -8.234035589984e-07
  15    -4.5461041982148e-05
  16    -3.182390613947e-05
  17    1.8952612197448e-05
  18    6.0714438475789e-05
  19    -0.0019676669956164
  20    -1.9262478241747e-05
  21    1.3693127501052e-06
  22    7.1461332436219e-05
  23    -0.00040767122363933
  24    -0.00017126604127228
  25    0.00070336938601048
  26    -5.4253910677014e-05
  27    1.598309403735e-05
  28    2.3304767198422e-05
  29    -1.3269180620408e-05
  30    2.2332740713519e-05
  31    2.9370186956568e-07
  32    9.4281929200897e-05
  33    -7.4160852679212e-05
  34    -0.0003611793133025
  35    0.0052963098701455
  36    2.3492017726838e-05
  37    3.2361746288932e-07
  38    -0.00014369459328472
  39    -0.0016985182150024
  40    -0.0010050639928427
  41    -0.0013949081732532
  42    0.00015901244495624
  43    3.7736651763059e-05
  44    3.3093794510052e-05
  45    2.0096705606539e-05
  46    4.5808797289369e-05
  47    3.0663570827825e-05
  48    0.00030738856970847
  49    2.6969500405796e-05
  50    -0.00012880669575967
  51    -0.0040304011914301
  52    8.720604034679e-05
  53    6.6774336045308e-05
  54    0.00042358163868197
  55    -0.0013692271346836
  56    -0.00093746831820439
  57    -0.0037342060603858
  58    -0.00010775691931666
  59    -0.00016145214100995
  60    -0.00010284840211606
  61    4.8520529864728e-05
  62    8.4442135203895e-05
  63    -0.0002961769771314
  64    -0.00012348604059287
  65    -9.2644169803752e-08
  66    1.7038664552373e-06
  67    -1.1460443730193e-07
  68    -1.2150651082256e-06
  69    -3.1863951392294e-07
  70    7.1952836271924e-07
  71    -8.1109706247511e-07
  72    3.6979968334557e-07
  73    1.8873873471739e-06
  74    5.1761895479608e-07
  75    -2.4420033869916e-06
  76    2.2116412824156e-07
  77    7.1422274528744e-08
  78    1.2848522632879e-07
  79    9.9793109581959e-08
  80    7.5258742223226e-08
  81    1.0463123476432e-07
  82    6.2052357280583e-07
  83    2.4515411658659e-07
  84    1.7284793537509e-06
  85    -8.9372334274571e-06
  86    3.4586950047064e-07
  87    5.7944026735337e-08
  88    6.3252832766527e-07
  89    4.538422709534e-06
  90    -7.5074493442748e-06
  91    3.1544697306452e-07
  92    -1.1022678868807e-07
  93    -4.2820613603775e-07
  94    8.1990690390505e-07
  95    -2.8540166631865e-07
  96    -8.0709774388341e-11
  97    1.2009120638646e-06
  98    5.6472338347309e-07
  99    -2.9225115144102e-07
 100    -1.3794016876385e-06
 101    -5.6103382420421e-07
 102    -2.2438568830298e-06
 103    7.2954375035168e-05
 104    -8.8022126658747e-07
 105    1.841238677167e-07
 106    -2.0907480014143e-06
 107    -2.9674505993956e-05
 108    3.035546845329e-05
 109    -4.7062898201477e-06
 110    6.4141904720045e-07
 111    1.0282614779529e-06
 112    -4.5643827199344e-07
 113    -4.9863731061806e-07
 114    -1.4490145848153e-06
 115    3.4244091399557e-07
 116    3.7325714732822e-06
 117    -6.8600242693705e-06
 118    -3.808418844058e-07
 119    1.4626978111956e-06
 120    -1.2743430182724e-06
 121    3.3336116367003e-06
 122    -9.9137798207422e-06
 123    1.463580420365e-05
 124    4.7970727886983e-07
 125    -5.2893501677895e-07
 126    -5.9592310695159e-07
 127    -1.1832587508878e-07
 128    -1.649461118631e-07
 129    2.4903750639203e-07
 130    2.9009141448264e-06
 131    4.1132626643545e-05
 132    4.8461869599501e-06
 133    1.4372827299375e-06
 134    -3.5528518776525e-06
 135    -9.903619690897e-05
 136     8.28279649264e-06
 137    -2.8737989595417e-05
 138    9.0172991020746e-07
 139    8.594992879587e-07
 140    2.2936384177176e-06
 141    -3.0536685259471e-07
 142    1.5384598164456e-06
 143    7.7135338963222e-09
 144    -1.8937042182037e-06
 145    -3.1150814762539e-05
 146    -4.0015303779464e-07
 147    -1.1259358606464e-06
 148    4.4787812134352e-06
 149    -1.00976117735e-05
 150    3.2139009259963e-05
 151    -1.5077649988349e-05
 152    -8.2531409144718e-07
 153    1.6529145307528e-07
 154    -1.7839240731413e-06
 155    -1.177935787278e-07
 156    -8.8391179808311e-07
 157    5.7479722161637e-07
 158    4.5067713217667e-06
 159    -2.7378827279953e-05
 160     3.35354677827e-07
 161    7.5852501418204e-07
 162    -8.7993115554387e-07
 163    -9.1782885148813e-06
 164    1.0549480009682e-05
 165    1.6169290964697e-06
 166    9.4060127676523e-07
 167    -2.833807442386e-07
 168    1.9380380658185e-07
 169    3.9562480320321e-07
 170    7.0929747679731e-07
 171    4.5249393776388e-08
 172    2.3676021734747e-07
 173    3.3670118060953e-06
 174    -1.1612209262625e-07
 175    -1.9818170139739e-07
 176    1.275241092474e-06
 177    1.044915355268e-05
 178    3.5580077652257e-06
 179    4.7303896968064e-06
 180    -2.8435445840586e-07
 181    1.2184860038286e-06
 182    1.9076280701611e-08
 183    6.3576419539476e-07
 184    9.143272512547e-07
 185    -6.2023083326679e-07
 186    -5.1417286340966e-06
 187    2.4489961884945e-05
 188    -1.0099356342904e-06
 189    -7.5732519221557e-08
 190    -1.5014276123398e-07
 191    -4.78643276324e-07
 192    -8.5387360268541e-06
 193    -1.1703835776456e-05
 194    4.9220332264116e-07
 195    6.9306058103687e-07
 196    1.3212319433625e-06
 197    -4.0210586085528e-07
 198    3.0913709256839e-07
 199    -1.5319844878971e-06
 200    1.3283507838332e-06
 201    -3.8259395660804e-07
 202    1.3049655985387e-06
 203    -8.1185972684741e-07
 204    -5.8467134382962e-06
 205    2.5570272506121e-06
 206    6.3533374221563e-07
 207    -3.3402326227855e-07
 208    1.4388143026531e-05
 209    2.0366120347789e-06
 210    7.2456174701048e-08
 211    1.6562894383155e-06
 212    3.0403673391603e-06
 213    4.6427337445292e-07
 214    -2.9241581467545e-06
 215    -2.3708050175565e-06
 216    1.4973003566221e-05
 217    6.3345004093518e-07
 218    6.6887542823437e-08
 219    6.7654217101482e-07
 220    -1.9869207916473e-06
 221    -2.9842019682653e-06
 222    -1.962337536475e-05
 223    0.0002159435431202
 224    5.2270809615206e-06
 225    1.0843039159234e-07
 226    7.747934844069e-07
 227    3.6565638010424e-05
 228    4.6263796974622e-05
 229    -0.00023540562018082
 230    5.1096591838071e-06
 231    -7.8616096696369e-06
 232    -5.4532480939345e-06
 233    2.7940265374888e-06
 234    2.0188422194257e-06
 235    6.2780997675086e-06
 236    3.7616417730514e-05
 237    -0.00063682133867251
 238    -3.8570135475116e-06
 239    -5.9949349652411e-06
 240    1.5347150767935e-05
 241    0.00019979302435998
 242    4.9891354583001e-05
 243    9.014608587316e-05
 244    -1.7482053261247e-05
 245    2.9381500920936e-06
 246    5.0448132876184e-06
 247    -1.1947513505895e-06
 248    -3.3255770041004e-06
 249    -9.5433868259199e-06
 250    -1.7339826052793e-05
 251    -6.5860282623298e-06
 252    -4.7238926458336e-05
 253    0.00092647422091845
 254    -1.3860493834912e-05
 255    9.4067896044953e-06
 256    -2.6664413697897e-05
 257    0.00041082646750493
 258    4.9464076901403e-05
 259    8.9127758360272e-05
 260    1.7174315478373e-05
 261    -4.6890295914138e-06
 262    -5.3409000017006e-06
 263    5.7794419208709e-06
 264    6.5730791516375e-07
 265    -7.0629693995862e-06
 266    -6.0360419982982e-06
 267    2.3428588801323e-05
 268    5.7132740896342e-05
 269    6.8326660609321e-05
 270    7.8573497417573e-05
 271    -0.003053688041083
 272    0.0001804910481645
 273    0.00010469940540217
 274    6.2843178470871e-06
 275    -0.0014657703243924
 276    -0.00082931635395291
 277    0.0035820782481924
 278    -0.00035819299542775
 279    7.3281408038672e-05
 280    3.9478317806699e-05