[Molden Format]
made by pyscf v[2.0.1]
[Atoms] (AU)
C   1   6     0.69100024066471     0.64692934207205    -3.48223131169301
H   2   1     2.68052439830868     1.13355088658700    -3.25784032593313
C   3   6    -0.36286361513219     0.85440132524594    -5.97030179418974
H   4   1    -2.35448549047279     0.36322488579172    -6.17995817793143
C   5   6     0.93697958957450     1.61209284601821    -8.05828437677121
H   6   1     2.28684852848462     3.15852966115860    -7.89296704602693
C   7   6     0.63106041134958     0.47904579632082   -10.50346361691732
H   8   1    -0.72718870892227    -1.06897620367389   -10.63951300078030
H   9   1     1.55630230933075    -1.92953025305990    12.99630010416247
C   10   6     0.75233899775814    -2.21270439606481    11.10705728102219
H   11   1    -0.43433408177274    -3.90944857546550    11.22216085340412
C   12   6     2.86362581178706    -2.63237380607947     9.17926416456045
H   13   1     4.39038949912609    -1.24955421540245     9.49899813497433
H   14   1     3.74629220191363    -4.48798724300892     9.47414880959024
C   15   6     2.02478325613682    -2.42177285709634     6.44560829588644
C   16   6     3.88048732735477    -3.58795445234514     4.61402886975252
C   17   6    -0.18412382258602    -1.30464291234259     5.76021113872346
C   18   6    -2.10044360464350    -0.26837831858460     7.71610340967100
C   19   6    -3.08956938670431     2.35282328359417     6.88693925039594
C   20   6    -4.37372924086464    -2.09766595989678     7.93610724222001
C   21   6    -0.83850430601230     0.06372213486173    10.33002307638377
H   22   1     0.38411922151109     1.74281358582432    10.27380136542181
H   23   1    -2.30980003007874     0.45460143924521    11.73986301809809
H   24   1     4.58527064644668    -5.38706904487420     5.36778158031719
H   25   1     5.54944938085014    -2.37631462192748     4.35398898413318
H   26   1     3.06633019150423    -3.94118377050688     2.75255466040884
H   27   1    -4.17727778763735     2.26573369139522     5.12914900961283
H   28   1    -1.52662344944051     3.68001877445626     6.59540397144508
H   29   1    -4.32916174397830     3.13643051467482     8.35225460090378
H   30   1    -5.32329548508442    -2.36691813602939     6.11583672749896
H   31   1    -5.77989366602257    -1.33896741843465     9.25748940450990
H   32   1    -3.79310905208926    -3.96389819310853     8.61386170102686
C   33   6    -1.01100794811226    -1.06331657314144     3.11929490449947
C   34   6     0.37686231036534    -0.33275864505552     1.09165013605873
H   35   1    -3.01671213906703    -1.40297922279997     2.77827895090944
C   36   6    -0.64382707979370    -0.11591880174385    -1.42063131251064
H   37   1     2.35569259782137     0.17174499283897     1.33641070251401
H   38   1    -2.63317482980319    -0.60229203511219    -1.66119700387645
C   39   6     1.88057107480096     1.17167710004378   -12.63318625924474
C   40   6     1.43424299107759    -0.10242214041261   -15.03828188134704
H   41   1     3.25774949416826     2.69847908646217   -12.62832443574420
O   42   8     2.48751113017790     0.42264932688836   -17.02215443525925
H   43   1     0.01015752982003    -1.65333508727432   -14.95564685399208
[GTO]
1 0
 s    6 1.00
             3047.5249  0.0018347001629433
             457.36951    0.01403730124668
             103.94869   0.068842606114048
             29.210155    0.23218442062076
              9.286663    0.46794134155879
              3.163927    0.36231203217765
 s    3 1.00
             7.8682724   -0.11933240861517
             1.8812885   -0.16085421161283
             0.5442493     1.1434564825515
 s    1 1.00
             0.1687144                   1
 p    3 1.00
             7.8682724   0.068999095584993
             1.8812885    0.31642397975315
             0.5442493    0.74430825237435
 p    1 1.00
             0.1687144                   1
 d    1 1.00
                   0.8                   1

2 0
 s    3 1.00
             18.731137    0.03349459952309
             2.8253937    0.23472694665786
             0.6401217    0.81375731841339
 s    1 1.00
             0.1612778                   1

3 0
 s    6 1.00
             3047.5249  0.0018347001629433
             457.36951    0.01403730124668
             103.94869   0.068842606114048
             29.210155    0.23218442062076
              9.286663    0.46794134155879
              3.163927    0.36231203217765
 s    3 1.00
             7.8682724   -0.11933240861517
             1.8812885   -0.16085421161283
             0.5442493     1.1434564825515
 s    1 1.00
             0.1687144                   1
 p    3 1.00
             7.8682724   0.068999095584993
             1.8812885    0.31642397975315
             0.5442493    0.74430825237435
 p    1 1.00
             0.1687144                   1
 d    1 1.00
                   0.8                   1

4 0
 s    3 1.00
             18.731137    0.03349459952309
             2.8253937    0.23472694665786
             0.6401217    0.81375731841339
 s    1 1.00
             0.1612778                   1

5 0
 s    6 1.00
             3047.5249  0.0018347001629433
             457.36951    0.01403730124668
             103.94869   0.068842606114048
             29.210155    0.23218442062076
              9.286663    0.46794134155879
              3.163927    0.36231203217765
 s    3 1.00
             7.8682724   -0.11933240861517
             1.8812885   -0.16085421161283
             0.5442493     1.1434564825515
 s    1 1.00
             0.1687144                   1
 p    3 1.00
             7.8682724   0.068999095584993
             1.8812885    0.31642397975315
             0.5442493    0.74430825237435
 p    1 1.00
             0.1687144                   1
 d    1 1.00
                   0.8                   1

6 0
 s    3 1.00
             18.731137    0.03349459952309
             2.8253937    0.23472694665786
             0.6401217    0.81375731841339
 s    1 1.00
             0.1612778                   1

7 0
 s    6 1.00
             3047.5249  0.0018347001629433
             457.36951    0.01403730124668
             103.94869   0.068842606114048
             29.210155    0.23218442062076
              9.286663    0.46794134155879
              3.163927    0.36231203217765
 s    3 1.00
             7.8682724   -0.11933240861517
             1.8812885   -0.16085421161283
             0.5442493     1.1434564825515
 s    1 1.00
             0.1687144                   1
 p    3 1.00
             7.8682724   0.068999095584993
             1.8812885    0.31642397975315
             0.5442493    0.74430825237435
 p    1 1.00
             0.1687144                   1
 d    1 1.00
                   0.8                   1

8 0
 s    3 1.00
             18.731137    0.03349459952309
             2.8253937    0.23472694665786
             0.6401217    0.81375731841339
 s    1 1.00
             0.1612778                   1

9 0
 s    3 1.00
             18.731137    0.03349459952309
             2.8253937    0.23472694665786
             0.6401217    0.81375731841339
 s    1 1.00
             0.1612778                   1

10 0
 s    6 1.00
             3047.5249  0.0018347001629433
             457.36951    0.01403730124668
             103.94869   0.068842606114048
             29.210155    0.23218442062076
              9.286663    0.46794134155879
              3.163927    0.36231203217765
 s    3 1.00
             7.8682724   -0.11933240861517
             1.8812885   -0.16085421161283
             0.5442493     1.1434564825515
 s    1 1.00
             0.1687144                   1
 p    3 1.00
             7.8682724   0.068999095584993
             1.8812885    0.31642397975315
             0.5442493    0.74430825237435
 p    1 1.00
             0.1687144                   1
 d    1 1.00
                   0.8                   1

11 0
 s    3 1.00
             18.731137    0.03349459952309
             2.8253937    0.23472694665786
             0.6401217    0.81375731841339
 s    1 1.00
             0.1612778                   1

12 0
 s    6 1.00
             3047.5249  0.0018347001629433
             457.36951    0.01403730124668
             103.94869   0.068842606114048
             29.210155    0.23218442062076
              9.286663    0.46794134155879
              3.163927    0.36231203217765
 s    3 1.00
             7.8682724   -0.11933240861517
             1.8812885   -0.16085421161283
             0.5442493     1.1434564825515
 s    1 1.00
             0.1687144                   1
 p    3 1.00
             7.8682724   0.068999095584993
             1.8812885    0.31642397975315
             0.5442493    0.74430825237435
 p    1 1.00
             0.1687144                   1
 d    1 1.00
                   0.8                   1

13 0
 s    3 1.00
             18.731137    0.03349459952309
             2.8253937    0.23472694665786
             0.6401217    0.81375731841339
 s    1 1.00
             0.1612778                   1

14 0
 s    3 1.00
             18.731137    0.03349459952309
             2.8253937    0.23472694665786
             0.6401217    0.81375731841339
 s    1 1.00
             0.1612778                   1

15 0
 s    6 1.00
             3047.5249  0.0018347001629433
             457.36951    0.01403730124668
             103.94869   0.068842606114048
             29.210155    0.23218442062076
              9.286663    0.46794134155879
              3.163927    0.36231203217765
 s    3 1.00
             7.8682724   -0.11933240861517
             1.8812885   -0.16085421161283
             0.5442493     1.1434564825515
 s    1 1.00
             0.1687144                   1
 p    3 1.00
             7.8682724   0.068999095584993
             1.8812885    0.31642397975315
             0.5442493    0.74430825237435
 p    1 1.00
             0.1687144                   1
 d    1 1.00
                   0.8                   1

16 0
 s    6 1.00
             3047.5249  0.0018347001629433
             457.36951    0.01403730124668
             103.94869   0.068842606114048
             29.210155    0.23218442062076
              9.286663    0.46794134155879
              3.163927    0.36231203217765
 s    3 1.00
             7.8682724   -0.11933240861517
             1.8812885   -0.16085421161283
             0.5442493     1.1434564825515
 s    1 1.00
             0.1687144                   1
 p    3 1.00
             7.8682724   0.068999095584993
             1.8812885    0.31642397975315
             0.5442493    0.74430825237435
 p    1 1.00
             0.1687144                   1
 d    1 1.00
                   0.8                   1

17 0
 s    6 1.00
             3047.5249  0.0018347001629433
             457.36951    0.01403730124668
             103.94869   0.068842606114048
             29.210155    0.23218442062076
              9.286663    0.46794134155879
              3.163927    0.36231203217765
 s    3 1.00
             7.8682724   -0.11933240861517
             1.8812885   -0.16085421161283
             0.5442493     1.1434564825515
 s    1 1.00
             0.1687144                   1
 p    3 1.00
             7.8682724   0.068999095584993
             1.8812885    0.31642397975315
             0.5442493    0.74430825237435
 p    1 1.00
             0.1687144                   1
 d    1 1.00
                   0.8                   1

18 0
 s    6 1.00
             3047.5249  0.0018347001629433
             457.36951    0.01403730124668
             103.94869   0.068842606114048
             29.210155    0.23218442062076
              9.286663    0.46794134155879
              3.163927    0.36231203217765
 s    3 1.00
             7.8682724   -0.11933240861517
             1.8812885   -0.16085421161283
             0.5442493     1.1434564825515
 s    1 1.00
             0.1687144                   1
 p    3 1.00
             7.8682724   0.068999095584993
             1.8812885    0.31642397975315
             0.5442493    0.74430825237435
 p    1 1.00
             0.1687144                   1
 d    1 1.00
                   0.8                   1

19 0
 s    6 1.00
             3047.5249  0.0018347001629433
             457.36951    0.01403730124668
             103.94869   0.068842606114048
             29.210155    0.23218442062076
              9.286663    0.46794134155879
              3.163927    0.36231203217765
 s    3 1.00
             7.8682724   -0.11933240861517
             1.8812885   -0.16085421161283
             0.5442493     1.1434564825515
 s    1 1.00
             0.1687144                   1
 p    3 1.00
             7.8682724   0.068999095584993
             1.8812885    0.31642397975315
             0.5442493    0.74430825237435
 p    1 1.00
             0.1687144                   1
 d    1 1.00
                   0.8                   1

20 0
 s    6 1.00
             3047.5249  0.0018347001629433
             457.36951    0.01403730124668
             103.94869   0.068842606114048
             29.210155    0.23218442062076
              9.286663    0.46794134155879
              3.163927    0.36231203217765
 s    3 1.00
             7.8682724   -0.11933240861517
             1.8812885   -0.16085421161283
             0.5442493     1.1434564825515
 s    1 1.00
             0.1687144                   1
 p    3 1.00
             7.8682724   0.068999095584993
             1.8812885    0.31642397975315
             0.5442493    0.74430825237435
 p    1 1.00
             0.1687144                   1
 d    1 1.00
                   0.8                   1

21 0
 s    6 1.00
             3047.5249  0.0018347001629433
             457.36951    0.01403730124668
             103.94869   0.068842606114048
             29.210155    0.23218442062076
              9.286663    0.46794134155879
              3.163927    0.36231203217765
 s    3 1.00
             7.8682724   -0.11933240861517
             1.8812885   -0.16085421161283
             0.5442493     1.1434564825515
 s    1 1.00
             0.1687144                   1
 p    3 1.00
             7.8682724   0.068999095584993
             1.8812885    0.31642397975315
             0.5442493    0.74430825237435
 p    1 1.00
             0.1687144                   1
 d    1 1.00
                   0.8                   1

22 0
 s    3 1.00
             18.731137    0.03349459952309
             2.8253937    0.23472694665786
             0.6401217    0.81375731841339
 s    1 1.00
             0.1612778                   1

23 0
 s    3 1.00
             18.731137    0.03349459952309
             2.8253937    0.23472694665786
             0.6401217    0.81375731841339
 s    1 1.00
             0.1612778                   1

24 0
 s    3 1.00
             18.731137    0.03349459952309
             2.8253937    0.23472694665786
             0.6401217    0.81375731841339
 s    1 1.00
             0.1612778                   1

25 0
 s    3 1.00
             18.731137    0.03349459952309
             2.8253937    0.23472694665786
             0.6401217    0.81375731841339
 s    1 1.00
             0.1612778                   1

26 0
 s    3 1.00
             18.731137    0.03349459952309
             2.8253937    0.23472694665786
             0.6401217    0.81375731841339
 s    1 1.00
             0.1612778                   1

27 0
 s    3 1.00
             18.731137    0.03349459952309
             2.8253937    0.23472694665786
             0.6401217    0.81375731841339
 s    1 1.00
             0.1612778                   1

28 0
 s    3 1.00
             18.731137    0.03349459952309
             2.8253937    0.23472694665786
             0.6401217    0.81375731841339
 s    1 1.00
             0.1612778                   1

29 0
 s    3 1.00
             18.731137    0.03349459952309
             2.8253937    0.23472694665786
             0.6401217    0.81375731841339
 s    1 1.00
             0.1612778                   1

30 0
 s    3 1.00
             18.731137    0.03349459952309
             2.8253937    0.23472694665786
             0.6401217    0.81375731841339
 s    1 1.00
             0.1612778                   1

31 0
 s    3 1.00
             18.731137    0.03349459952309
             2.8253937    0.23472694665786
             0.6401217    0.81375731841339
 s    1 1.00
             0.1612778                   1

32 0
 s    3 1.00
             18.731137    0.03349459952309
             2.8253937    0.23472694665786
             0.6401217    0.81375731841339
 s    1 1.00
             0.1612778                   1

33 0
 s    6 1.00
             3047.5249  0.0018347001629433
             457.36951    0.01403730124668
             103.94869   0.068842606114048
             29.210155    0.23218442062076
              9.286663    0.46794134155879
              3.163927    0.36231203217765
 s    3 1.00
             7.8682724   -0.11933240861517
             1.8812885   -0.16085421161283
             0.5442493     1.1434564825515
 s    1 1.00
             0.1687144                   1
 p    3 1.00
             7.8682724   0.068999095584993
             1.8812885    0.31642397975315
             0.5442493    0.74430825237435
 p    1 1.00
             0.1687144                   1
 d    1 1.00
                   0.8                   1

34 0
 s    6 1.00
             3047.5249  0.0018347001629433
             457.36951    0.01403730124668
             103.94869   0.068842606114048
             29.210155    0.23218442062076
              9.286663    0.46794134155879
              3.163927    0.36231203217765
 s    3 1.00
             7.8682724   -0.11933240861517
             1.8812885   -0.16085421161283
             0.5442493     1.1434564825515
 s    1 1.00
             0.1687144                   1
 p    3 1.00
             7.8682724   0.068999095584993
             1.8812885    0.31642397975315
             0.5442493    0.74430825237435
 p    1 1.00
             0.1687144                   1
 d    1 1.00
                   0.8                   1

35 0
 s    3 1.00
             18.731137    0.03349459952309
             2.8253937    0.23472694665786
             0.6401217    0.81375731841339
 s    1 1.00
             0.1612778                   1

36 0
 s    6 1.00
             3047.5249  0.0018347001629433
             457.36951    0.01403730124668
             103.94869   0.068842606114048
             29.210155    0.23218442062076
              9.286663    0.46794134155879
              3.163927    0.36231203217765
 s    3 1.00
             7.8682724   -0.11933240861517
             1.8812885   -0.16085421161283
             0.5442493     1.1434564825515
 s    1 1.00
             0.1687144                   1
 p    3 1.00
             7.8682724   0.068999095584993
             1.8812885    0.31642397975315
             0.5442493    0.74430825237435
 p    1 1.00
             0.1687144                   1
 d    1 1.00
                   0.8                   1

37 0
 s    3 1.00
             18.731137    0.03349459952309
             2.8253937    0.23472694665786
             0.6401217    0.81375731841339
 s    1 1.00
             0.1612778                   1

38 0
 s    3 1.00
             18.731137    0.03349459952309
             2.8253937    0.23472694665786
             0.6401217    0.81375731841339
 s    1 1.00
             0.1612778                   1

39 0
 s    6 1.00
             3047.5249  0.0018347001629433
             457.36951    0.01403730124668
             103.94869   0.068842606114048
             29.210155    0.23218442062076
              9.286663    0.46794134155879
              3.163927    0.36231203217765
 s    3 1.00
             7.8682724   -0.11933240861517
             1.8812885   -0.16085421161283
             0.5442493     1.1434564825515
 s    1 1.00
             0.1687144                   1
 p    3 1.00
             7.8682724   0.068999095584993
             1.8812885    0.31642397975315
             0.5442493    0.74430825237435
 p    1 1.00
             0.1687144                   1
 d    1 1.00
                   0.8                   1

40 0
 s    6 1.00
             3047.5249  0.0018347001629433
             457.36951    0.01403730124668
             103.94869   0.068842606114048
             29.210155    0.23218442062076
              9.286663    0.46794134155879
              3.163927    0.36231203217765
 s    3 1.00
             7.8682724   -0.11933240861517
             1.8812885   -0.16085421161283
             0.5442493     1.1434564825515
 s    1 1.00
             0.1687144                   1
 p    3 1.00
             7.8682724   0.068999095584993
             1.8812885    0.31642397975315
             0.5442493    0.74430825237435
 p    1 1.00
             0.1687144                   1
 d    1 1.00
                   0.8                   1

41 0
 s    3 1.00
             18.731137    0.03349459952309
             2.8253937    0.23472694665786
             0.6401217    0.81375731841339
 s    1 1.00
             0.1612778                   1

42 0
 s    6 1.00
             5484.6717   0.001831099805527
             825.23495   0.013950098518422
             188.04696    0.06844509273075
               52.9645    0.23271427528445
              16.89757    0.47019295006289
             5.7996353    0.35852086192309
 s    3 1.00
             15.539616   -0.11077750382508
             3.5999336   -0.14802630511126
             1.0137618     1.1307670390447
 s    1 1.00
             0.2700058                   1
 p    3 1.00
             15.539616   0.070874299543311
             3.5999336    0.33975279781076
             1.0137618    0.72715859531445
 p    1 1.00
             0.2700058                   1
 d    1 1.00
                   0.8                   1

43 0
 s    3 1.00
             18.731137    0.03349459952309
             2.8253937    0.23472694665786
             0.6401217    0.81375731841339
 s    1 1.00
             0.1612778                   1

[5d]
[7f]
[9g]

[MO]
 Sym= A
 Ene=               0
 Spin= Alpha
 Occup=    1.00000
   1    -3.5906865588803e-06
   2    -8.4210348816008e-06
   3    -0.00013172059401498
   4    -5.9890999405319e-06
   5    -2.9472066906285e-05
   6    3.2616106547749e-06
   7    0.00016447112597294
   8    0.00019632003622424
   9    -0.00036144119256105
  10    1.1526891738867e-05
  11    1.175887754824e-05
  12    -1.1209245351524e-06
  13    -2.6011979784492e-06
  14    2.2076534207186e-06
  15    -2.2318660863421e-05
  16    -3.3386164261512e-05
  17    9.7353055241518e-06
  18    -2.1486696725227e-05
  19    -0.0013199162223141
  20    -2.8707007886031e-05
  21    1.1396207992419e-05
  22    7.2219209288547e-05
  23    -0.00029594917456717
  24    -8.0519918789791e-05
  25    0.00070481317866674
  26    -3.9397822479715e-05
  27    1.9676059579697e-05
  28    1.7096468724683e-05
  29    -2.8482151596889e-05
  30    2.9744154010769e-05
  31    1.2064767835443e-06
  32    3.7062712700952e-05
  33    -6.7942070680063e-05
  34    -0.00031995476665704
  35    0.0047290790020974
  36    3.5958212265282e-05
  37    -2.3329863513664e-05
  38    -0.00015849848287548
  39    -0.0010534324413471
  40    -0.0014615644808925
  41    -0.0011841954884227
  42    0.00012525365447127
  43    -1.3684814334895e-05
  44    8.0620902908744e-05
  45    -1.5159518591993e-05
  46    4.1956100003085e-05
  47    1.5515466642953e-05
  48    0.00028986360379789
  49    2.2377108295108e-05
  50    -0.00015842901556607
  51    -0.0037136722208446
  52    1.4745210969122e-05
  53    0.00015239751923086
  54    0.00040826259303613
  55    -0.00057702357005807
  56    -0.0017656382202046
  57    -0.0033170537219615
  58    -8.0153335377207e-05
  59    -0.00011606504940954
  60    -0.00014721104826331
  61    3.3321648185046e-05
  62    9.9762980643531e-05
  63    -0.00030364647992658
  64    -9.589145103346e-05
  65    5.0513406361288e-08
  66    1.1205836087305e-06
  67    -4.6432433418327e-08
  68    -4.8408396929864e-07
  69    -1.5545617231719e-06
  70    3.043176442608e-07
  71    -3.4773275272565e-07
  72    2.1369871119389e-07
  73    1.1258450663647e-06
  74    -2.6217744208036e-07
  75    -1.5383599714008e-06
  76    1.3914962530119e-07
  77    8.7250195295798e-08
  78    5.1650627550867e-08
  79    1.809245958473e-08
  80    7.2693403798037e-08
  81    6.1902556289897e-08
  82    3.4380238550252e-07
  83    1.2402263194849e-07
  84    8.8283488321399e-07
  85    -2.1400481354512e-06
  86    9.1600975824542e-08
  87    -8.3676285973004e-08
  88    1.4069283252429e-07
  89    1.394755027094e-06
  90    -2.51042809019e-06
  91    -1.996895899044e-07
  92    -1.0364254919591e-07
  93    -1.5783545180037e-07
  94    3.7387917557753e-07
  95    -1.4926673948261e-07
  96    3.7387060989765e-08
  97    5.002364735921e-07
  98    -5.354232796364e-09
  99    -8.5623007543299e-08
 100    -3.7646787952878e-07
 101    -2.4492103678867e-07
 102    -4.7841830798203e-07
 103    3.1900146094632e-05
 104    -4.3389702042998e-07
 105    3.0839273403993e-07
 106    -1.1324031483957e-06
 107    -1.0807642469788e-05
 108    1.2210815002716e-05
 109    -7.4624373939154e-06
 110    5.066048283158e-07
 111    7.1115890048152e-07
 112    -3.254704792696e-07
 113    -6.0684629407848e-07
 114    -6.8377071844944e-07
 115    3.650076721202e-07
 116    3.7414678523862e-06
 117    -1.5124288785199e-05
 118    -6.6148836043973e-09
 119    2.7209753270169e-07
 120    -8.7788950806492e-07
 121    3.2404363291299e-06
 122    -3.8132852009228e-06
 123    9.3710922099931e-06
 124    2.524267551983e-07
 125    -3.6438905344172e-07
 126    -1.9909926596975e-07
 127    3.8024450331399e-08
 128    -5.2451325557104e-08
 129    3.9026191283881e-07
 130    4.6233292217824e-06
 131    1.5240091443426e-05
 132    2.7289865634746e-06
 133    1.6426704929185e-06
 134    -3.427701941511e-06
 135    -4.6027465233118e-05
 136    2.3050485369338e-07
 137    2.4436468351922e-07
 138    -1.2811284128687e-07
 139    2.3920920404766e-07
 140    1.1591238356491e-06
 141    -2.7823916722548e-07
 142    7.6363995381204e-07
 143    3.7544689249484e-09
 144    -1.1870535061627e-06
 145    -1.6434703714282e-05
 146    -4.5161809383794e-07
 147    -1.095519478927e-06
 148    2.6039079426688e-06
 149    -6.3688521082422e-06
 150    2.1993428009892e-05
 151    -1.0601110412761e-05
 152    -9.3984053173157e-08
 153    1.0749836623694e-07
 154    -1.0213243422246e-06
 155    -2.6347727386878e-07
 156    -4.3123471947478e-07
 157    3.3505559526258e-07
 158    2.3936717322477e-06
 159    -1.8103228554403e-05
 160    -1.4108315780121e-07
 161    6.4955787399474e-07
 162    -6.227943368834e-07
 163    -4.0924125312279e-06
 164    6.8783787943494e-06
 165    8.5308294169647e-07
 166    5.255198787638e-07
 167    -2.5049457066286e-07
 168    1.2495513090617e-07
 169    2.8044653866567e-07
 170    3.9733196751615e-07
 171    5.2033021391091e-09
 172    2.4592256778103e-07
 173    3.2285749817537e-06
 174    2.0828730453403e-07
 175    -9.2587901130804e-08
 176    4.7552826100135e-07
 177    6.2803016941114e-06
 178    2.0633535725058e-06
 179    3.8828708713558e-06
 180    -2.4573582672465e-07
 181    6.5704546001415e-07
 182    8.796469113892e-08
 183    4.822848660358e-07
 184    4.8047229237236e-07
 185    -2.6647145771289e-07
 186    -2.0336363307513e-06
 187    1.2858741039263e-05
 188    -4.798333486435e-07
 189    -7.9932136965061e-08
 190    -3.5612967837981e-07
 191    -1.3953087769927e-06
 192    -5.761825774699e-06
 193    -4.4193747692204e-06
 194    9.1097311780515e-08
 195    4.1743635471307e-07
 196    7.9844711277839e-07
 197    -2.108896005039e-07
 198    1.9275213716671e-07
 199    -5.7080631198199e-07
 200    1.5011029222456e-06
 201    -2.9046750174446e-07
 202    -3.3530286354179e-07
 203    2.5328917736548e-07
 204    -1.9176038812329e-06
 205    1.5421994257681e-06
 206    1.0000754605116e-06
 207    -1.3881097338543e-06
 208    1.6098135628679e-05
 209    9.4744251624335e-07
 210    1.3102243908201e-06
 211    9.846342040536e-07
 212    8.8449202368498e-07
 213    3.2164507127338e-07
 214    -9.6532662307308e-07
 215    -1.1635881149025e-06
 216    8.7493372774611e-06
 217    1.8770655002808e-07
 218    -4.5121695452508e-07
 219    3.7499834927048e-07
 220    -1.5057982768089e-06
 221    -1.368313918423e-06
 222    -8.1705975358546e-06
 223    0.00011545977715416
 224    3.3783365321355e-06
 225    -4.2455914514085e-07
 226    -7.2933499205885e-08
 227    8.8509702355089e-06
 228    1.9618333023588e-05
 229    -0.00011397095063913
 230    3.3010990209891e-06
 231    -3.6302349684264e-06
 232    -2.2403501960107e-06
 233    1.1895769012139e-06
 234    6.1264806658513e-08
 235    4.2240770469356e-06
 236    2.7974108804919e-05
 237    -0.00039117350161704
 238    -1.3862830510945e-06
 239    -5.3038669405157e-06
 240    7.0647678923837e-06
 241    0.00012077016382351
 242    3.6061853031412e-05
 243    9.8244109462552e-05
 244    -1.194279747452e-05
 245    -6.9850229466624e-07
 246    1.237259121175e-06
 247    -1.3471264726667e-06
 248    -3.5334950280359e-06
 249    -5.185463157124e-06
 250    -1.5189719413105e-05
 251    -2.729050479894e-06
 252    -2.0910965361998e-05
 253    0.00052144253818394
 254    -1.1189406157639e-05
 255    1.2622097324588e-05
 256    -1.7512330074962e-05
 257    0.00022883728660534
 258    -2.5815599616533e-05
 259    0.00011092835306905
 260    1.1085212886136e-05
 261    3.3834414261245e-07
 262     2.80078306103e-07
 263    2.5772399612507e-06
 264    -4.111964349634e-06
 265    -1.3835629465949e-06
 266    -1.2773090759131e-05
 267    1.6540963122844e-05
 268    1.9961194788382e-05
 269    6.8108786349691e-05
 270    7.5889681873539e-05
 271    -0.0029937907089266
 272    0.00014767081771622
 273    0.00015310670889328
 274    4.8039766419909e-06
 275    -0.0016649911173988
 276    -0.00070767562334443
 277    0.0034964032714424
 278    -0.00034560885355442
 279    0.00010929871500051
 280    -2.2624808389585e-05