[Molden Format]
made by pyscf v[2.0.1]
[Atoms] (AU)
C   1   6     0.69100024066471     0.64692934207205    -3.48223131169301
H   2   1     2.68052439830868     1.13355088658700    -3.25784032593313
C   3   6    -0.36286361513219     0.85440132524594    -5.97030179418974
H   4   1    -2.35448549047279     0.36322488579172    -6.17995817793143
C   5   6     0.93697958957450     1.61209284601821    -8.05828437677121
H   6   1     1.25179717896080     3.62344259528190    -8.36861463213972
C   7   6     1.93299030663405    -0.10622024085708    -9.90534865945394
H   8   1     1.60367989661651    -2.11561190296467    -9.56827000221191
H   9   1     1.55630230933075    -1.92953025305990    12.99630010416247
C   10   6     0.75233899775814    -2.21270439606481    11.10705728102219
H   11   1    -0.43433408177274    -3.90944857546550    11.22216085340412
C   12   6     2.86362581178706    -2.63237380607947     9.17926416456045
H   13   1     4.39038949912609    -1.24955421540245     9.49899813497433
H   14   1     3.74629220191363    -4.48798724300892     9.47414880959024
C   15   6     2.02478325613682    -2.42177285709634     6.44560829588644
C   16   6     3.88048732735477    -3.58795445234514     4.61402886975252
C   17   6    -0.18412382258602    -1.30464291234259     5.76021113872346
C   18   6    -2.10044360464350    -0.26837831858460     7.71610340967100
C   19   6    -3.08956938670431     2.35282328359417     6.88693925039594
C   20   6    -4.37372924086464    -2.09766595989678     7.93610724222001
C   21   6    -0.83850430601230     0.06372213486173    10.33002307638377
H   22   1     0.38411922151109     1.74281358582432    10.27380136542181
H   23   1    -2.30980003007874     0.45460143924521    11.73986301809809
H   24   1     4.58527064644668    -5.38706904487420     5.36778158031719
H   25   1     5.54944938085014    -2.37631462192748     4.35398898413318
H   26   1     3.06633019150423    -3.94118377050688     2.75255466040884
H   27   1    -4.17727778763735     2.26573369139522     5.12914900961283
H   28   1    -1.52662344944051     3.68001877445626     6.59540397144508
H   29   1    -4.32916174397830     3.13643051467482     8.35225460090378
H   30   1    -5.32329548508442    -2.36691813602939     6.11583672749896
H   31   1    -5.77989366602257    -1.33896741843465     9.25748940450990
H   32   1    -3.79310905208926    -3.96389819310853     8.61386170102686
C   33   6    -1.01100794811226    -1.06331657314144     3.11929490449947
C   34   6     0.37686231036534    -0.33275864505552     1.09165013605873
H   35   1    -3.01671213906703    -1.40297922279997     2.77827895090944
C   36   6    -0.64382707979370    -0.11591880174385    -1.42063131251064
H   37   1     2.35569259782137     0.17174499283897     1.33641070251401
H   38   1    -2.63317482980319    -0.60229203511219    -1.66119700387645
C   39   6     3.23483881481583     0.56109494848388   -12.01167590238676
C   40   6     4.17213386166354    -1.33546547775814   -13.78129708499957
H   41   1     3.62751071831436     2.52907164005278   -12.45960989181140
O   42   8     5.35190984410731    -0.86987395658954   -15.70799822813352
H   43   1     3.72751838268070    -3.32497850208065   -13.24806737881206
[GTO]
1 0
 s    6 1.00
             3047.5249  0.0018347001629433
             457.36951    0.01403730124668
             103.94869   0.068842606114048
             29.210155    0.23218442062076
              9.286663    0.46794134155879
              3.163927    0.36231203217765
 s    3 1.00
             7.8682724   -0.11933240861517
             1.8812885   -0.16085421161283
             0.5442493     1.1434564825515
 s    1 1.00
             0.1687144                   1
 p    3 1.00
             7.8682724   0.068999095584993
             1.8812885    0.31642397975315
             0.5442493    0.74430825237435
 p    1 1.00
             0.1687144                   1
 d    1 1.00
                   0.8                   1

2 0
 s    3 1.00
             18.731137    0.03349459952309
             2.8253937    0.23472694665786
             0.6401217    0.81375731841339
 s    1 1.00
             0.1612778                   1

3 0
 s    6 1.00
             3047.5249  0.0018347001629433
             457.36951    0.01403730124668
             103.94869   0.068842606114048
             29.210155    0.23218442062076
              9.286663    0.46794134155879
              3.163927    0.36231203217765
 s    3 1.00
             7.8682724   -0.11933240861517
             1.8812885   -0.16085421161283
             0.5442493     1.1434564825515
 s    1 1.00
             0.1687144                   1
 p    3 1.00
             7.8682724   0.068999095584993
             1.8812885    0.31642397975315
             0.5442493    0.74430825237435
 p    1 1.00
             0.1687144                   1
 d    1 1.00
                   0.8                   1

4 0
 s    3 1.00
             18.731137    0.03349459952309
             2.8253937    0.23472694665786
             0.6401217    0.81375731841339
 s    1 1.00
             0.1612778                   1

5 0
 s    6 1.00
             3047.5249  0.0018347001629433
             457.36951    0.01403730124668
             103.94869   0.068842606114048
             29.210155    0.23218442062076
              9.286663    0.46794134155879
              3.163927    0.36231203217765
 s    3 1.00
             7.8682724   -0.11933240861517
             1.8812885   -0.16085421161283
             0.5442493     1.1434564825515
 s    1 1.00
             0.1687144                   1
 p    3 1.00
             7.8682724   0.068999095584993
             1.8812885    0.31642397975315
             0.5442493    0.74430825237435
 p    1 1.00
             0.1687144                   1
 d    1 1.00
                   0.8                   1

6 0
 s    3 1.00
             18.731137    0.03349459952309
             2.8253937    0.23472694665786
             0.6401217    0.81375731841339
 s    1 1.00
             0.1612778                   1

7 0
 s    6 1.00
             3047.5249  0.0018347001629433
             457.36951    0.01403730124668
             103.94869   0.068842606114048
             29.210155    0.23218442062076
              9.286663    0.46794134155879
              3.163927    0.36231203217765
 s    3 1.00
             7.8682724   -0.11933240861517
             1.8812885   -0.16085421161283
             0.5442493     1.1434564825515
 s    1 1.00
             0.1687144                   1
 p    3 1.00
             7.8682724   0.068999095584993
             1.8812885    0.31642397975315
             0.5442493    0.74430825237435
 p    1 1.00
             0.1687144                   1
 d    1 1.00
                   0.8                   1

8 0
 s    3 1.00
             18.731137    0.03349459952309
             2.8253937    0.23472694665786
             0.6401217    0.81375731841339
 s    1 1.00
             0.1612778                   1

9 0
 s    3 1.00
             18.731137    0.03349459952309
             2.8253937    0.23472694665786
             0.6401217    0.81375731841339
 s    1 1.00
             0.1612778                   1

10 0
 s    6 1.00
             3047.5249  0.0018347001629433
             457.36951    0.01403730124668
             103.94869   0.068842606114048
             29.210155    0.23218442062076
              9.286663    0.46794134155879
              3.163927    0.36231203217765
 s    3 1.00
             7.8682724   -0.11933240861517
             1.8812885   -0.16085421161283
             0.5442493     1.1434564825515
 s    1 1.00
             0.1687144                   1
 p    3 1.00
             7.8682724   0.068999095584993
             1.8812885    0.31642397975315
             0.5442493    0.74430825237435
 p    1 1.00
             0.1687144                   1
 d    1 1.00
                   0.8                   1

11 0
 s    3 1.00
             18.731137    0.03349459952309
             2.8253937    0.23472694665786
             0.6401217    0.81375731841339
 s    1 1.00
             0.1612778                   1

12 0
 s    6 1.00
             3047.5249  0.0018347001629433
             457.36951    0.01403730124668
             103.94869   0.068842606114048
             29.210155    0.23218442062076
              9.286663    0.46794134155879
              3.163927    0.36231203217765
 s    3 1.00
             7.8682724   -0.11933240861517
             1.8812885   -0.16085421161283
             0.5442493     1.1434564825515
 s    1 1.00
             0.1687144                   1
 p    3 1.00
             7.8682724   0.068999095584993
             1.8812885    0.31642397975315
             0.5442493    0.74430825237435
 p    1 1.00
             0.1687144                   1
 d    1 1.00
                   0.8                   1

13 0
 s    3 1.00
             18.731137    0.03349459952309
             2.8253937    0.23472694665786
             0.6401217    0.81375731841339
 s    1 1.00
             0.1612778                   1

14 0
 s    3 1.00
             18.731137    0.03349459952309
             2.8253937    0.23472694665786
             0.6401217    0.81375731841339
 s    1 1.00
             0.1612778                   1

15 0
 s    6 1.00
             3047.5249  0.0018347001629433
             457.36951    0.01403730124668
             103.94869   0.068842606114048
             29.210155    0.23218442062076
              9.286663    0.46794134155879
              3.163927    0.36231203217765
 s    3 1.00
             7.8682724   -0.11933240861517
             1.8812885   -0.16085421161283
             0.5442493     1.1434564825515
 s    1 1.00
             0.1687144                   1
 p    3 1.00
             7.8682724   0.068999095584993
             1.8812885    0.31642397975315
             0.5442493    0.74430825237435
 p    1 1.00
             0.1687144                   1
 d    1 1.00
                   0.8                   1

16 0
 s    6 1.00
             3047.5249  0.0018347001629433
             457.36951    0.01403730124668
             103.94869   0.068842606114048
             29.210155    0.23218442062076
              9.286663    0.46794134155879
              3.163927    0.36231203217765
 s    3 1.00
             7.8682724   -0.11933240861517
             1.8812885   -0.16085421161283
             0.5442493     1.1434564825515
 s    1 1.00
             0.1687144                   1
 p    3 1.00
             7.8682724   0.068999095584993
             1.8812885    0.31642397975315
             0.5442493    0.74430825237435
 p    1 1.00
             0.1687144                   1
 d    1 1.00
                   0.8                   1

17 0
 s    6 1.00
             3047.5249  0.0018347001629433
             457.36951    0.01403730124668
             103.94869   0.068842606114048
             29.210155    0.23218442062076
              9.286663    0.46794134155879
              3.163927    0.36231203217765
 s    3 1.00
             7.8682724   -0.11933240861517
             1.8812885   -0.16085421161283
             0.5442493     1.1434564825515
 s    1 1.00
             0.1687144                   1
 p    3 1.00
             7.8682724   0.068999095584993
             1.8812885    0.31642397975315
             0.5442493    0.74430825237435
 p    1 1.00
             0.1687144                   1
 d    1 1.00
                   0.8                   1

18 0
 s    6 1.00
             3047.5249  0.0018347001629433
             457.36951    0.01403730124668
             103.94869   0.068842606114048
             29.210155    0.23218442062076
              9.286663    0.46794134155879
              3.163927    0.36231203217765
 s    3 1.00
             7.8682724   -0.11933240861517
             1.8812885   -0.16085421161283
             0.5442493     1.1434564825515
 s    1 1.00
             0.1687144                   1
 p    3 1.00
             7.8682724   0.068999095584993
             1.8812885    0.31642397975315
             0.5442493    0.74430825237435
 p    1 1.00
             0.1687144                   1
 d    1 1.00
                   0.8                   1

19 0
 s    6 1.00
             3047.5249  0.0018347001629433
             457.36951    0.01403730124668
             103.94869   0.068842606114048
             29.210155    0.23218442062076
              9.286663    0.46794134155879
              3.163927    0.36231203217765
 s    3 1.00
             7.8682724   -0.11933240861517
             1.8812885   -0.16085421161283
             0.5442493     1.1434564825515
 s    1 1.00
             0.1687144                   1
 p    3 1.00
             7.8682724   0.068999095584993
             1.8812885    0.31642397975315
             0.5442493    0.74430825237435
 p    1 1.00
             0.1687144                   1
 d    1 1.00
                   0.8                   1

20 0
 s    6 1.00
             3047.5249  0.0018347001629433
             457.36951    0.01403730124668
             103.94869   0.068842606114048
             29.210155    0.23218442062076
              9.286663    0.46794134155879
              3.163927    0.36231203217765
 s    3 1.00
             7.8682724   -0.11933240861517
             1.8812885   -0.16085421161283
             0.5442493     1.1434564825515
 s    1 1.00
             0.1687144                   1
 p    3 1.00
             7.8682724   0.068999095584993
             1.8812885    0.31642397975315
             0.5442493    0.74430825237435
 p    1 1.00
             0.1687144                   1
 d    1 1.00
                   0.8                   1

21 0
 s    6 1.00
             3047.5249  0.0018347001629433
             457.36951    0.01403730124668
             103.94869   0.068842606114048
             29.210155    0.23218442062076
              9.286663    0.46794134155879
              3.163927    0.36231203217765
 s    3 1.00
             7.8682724   -0.11933240861517
             1.8812885   -0.16085421161283
             0.5442493     1.1434564825515
 s    1 1.00
             0.1687144                   1
 p    3 1.00
             7.8682724   0.068999095584993
             1.8812885    0.31642397975315
             0.5442493    0.74430825237435
 p    1 1.00
             0.1687144                   1
 d    1 1.00
                   0.8                   1

22 0
 s    3 1.00
             18.731137    0.03349459952309
             2.8253937    0.23472694665786
             0.6401217    0.81375731841339
 s    1 1.00
             0.1612778                   1

23 0
 s    3 1.00
             18.731137    0.03349459952309
             2.8253937    0.23472694665786
             0.6401217    0.81375731841339
 s    1 1.00
             0.1612778                   1

24 0
 s    3 1.00
             18.731137    0.03349459952309
             2.8253937    0.23472694665786
             0.6401217    0.81375731841339
 s    1 1.00
             0.1612778                   1

25 0
 s    3 1.00
             18.731137    0.03349459952309
             2.8253937    0.23472694665786
             0.6401217    0.81375731841339
 s    1 1.00
             0.1612778                   1

26 0
 s    3 1.00
             18.731137    0.03349459952309
             2.8253937    0.23472694665786
             0.6401217    0.81375731841339
 s    1 1.00
             0.1612778                   1

27 0
 s    3 1.00
             18.731137    0.03349459952309
             2.8253937    0.23472694665786
             0.6401217    0.81375731841339
 s    1 1.00
             0.1612778                   1

28 0
 s    3 1.00
             18.731137    0.03349459952309
             2.8253937    0.23472694665786
             0.6401217    0.81375731841339
 s    1 1.00
             0.1612778                   1

29 0
 s    3 1.00
             18.731137    0.03349459952309
             2.8253937    0.23472694665786
             0.6401217    0.81375731841339
 s    1 1.00
             0.1612778                   1

30 0
 s    3 1.00
             18.731137    0.03349459952309
             2.8253937    0.23472694665786
             0.6401217    0.81375731841339
 s    1 1.00
             0.1612778                   1

31 0
 s    3 1.00
             18.731137    0.03349459952309
             2.8253937    0.23472694665786
             0.6401217    0.81375731841339
 s    1 1.00
             0.1612778                   1

32 0
 s    3 1.00
             18.731137    0.03349459952309
             2.8253937    0.23472694665786
             0.6401217    0.81375731841339
 s    1 1.00
             0.1612778                   1

33 0
 s    6 1.00
             3047.5249  0.0018347001629433
             457.36951    0.01403730124668
             103.94869   0.068842606114048
             29.210155    0.23218442062076
              9.286663    0.46794134155879
              3.163927    0.36231203217765
 s    3 1.00
             7.8682724   -0.11933240861517
             1.8812885   -0.16085421161283
             0.5442493     1.1434564825515
 s    1 1.00
             0.1687144                   1
 p    3 1.00
             7.8682724   0.068999095584993
             1.8812885    0.31642397975315
             0.5442493    0.74430825237435
 p    1 1.00
             0.1687144                   1
 d    1 1.00
                   0.8                   1

34 0
 s    6 1.00
             3047.5249  0.0018347001629433
             457.36951    0.01403730124668
             103.94869   0.068842606114048
             29.210155    0.23218442062076
              9.286663    0.46794134155879
              3.163927    0.36231203217765
 s    3 1.00
             7.8682724   -0.11933240861517
             1.8812885   -0.16085421161283
             0.5442493     1.1434564825515
 s    1 1.00
             0.1687144                   1
 p    3 1.00
             7.8682724   0.068999095584993
             1.8812885    0.31642397975315
             0.5442493    0.74430825237435
 p    1 1.00
             0.1687144                   1
 d    1 1.00
                   0.8                   1

35 0
 s    3 1.00
             18.731137    0.03349459952309
             2.8253937    0.23472694665786
             0.6401217    0.81375731841339
 s    1 1.00
             0.1612778                   1

36 0
 s    6 1.00
             3047.5249  0.0018347001629433
             457.36951    0.01403730124668
             103.94869   0.068842606114048
             29.210155    0.23218442062076
              9.286663    0.46794134155879
              3.163927    0.36231203217765
 s    3 1.00
             7.8682724   -0.11933240861517
             1.8812885   -0.16085421161283
             0.5442493     1.1434564825515
 s    1 1.00
             0.1687144                   1
 p    3 1.00
             7.8682724   0.068999095584993
             1.8812885    0.31642397975315
             0.5442493    0.74430825237435
 p    1 1.00
             0.1687144                   1
 d    1 1.00
                   0.8                   1

37 0
 s    3 1.00
             18.731137    0.03349459952309
             2.8253937    0.23472694665786
             0.6401217    0.81375731841339
 s    1 1.00
             0.1612778                   1

38 0
 s    3 1.00
             18.731137    0.03349459952309
             2.8253937    0.23472694665786
             0.6401217    0.81375731841339
 s    1 1.00
             0.1612778                   1

39 0
 s    6 1.00
             3047.5249  0.0018347001629433
             457.36951    0.01403730124668
             103.94869   0.068842606114048
             29.210155    0.23218442062076
              9.286663    0.46794134155879
              3.163927    0.36231203217765
 s    3 1.00
             7.8682724   -0.11933240861517
             1.8812885   -0.16085421161283
             0.5442493     1.1434564825515
 s    1 1.00
             0.1687144                   1
 p    3 1.00
             7.8682724   0.068999095584993
             1.8812885    0.31642397975315
             0.5442493    0.74430825237435
 p    1 1.00
             0.1687144                   1
 d    1 1.00
                   0.8                   1

40 0
 s    6 1.00
             3047.5249  0.0018347001629433
             457.36951    0.01403730124668
             103.94869   0.068842606114048
             29.210155    0.23218442062076
              9.286663    0.46794134155879
              3.163927    0.36231203217765
 s    3 1.00
             7.8682724   -0.11933240861517
             1.8812885   -0.16085421161283
             0.5442493     1.1434564825515
 s    1 1.00
             0.1687144                   1
 p    3 1.00
             7.8682724   0.068999095584993
             1.8812885    0.31642397975315
             0.5442493    0.74430825237435
 p    1 1.00
             0.1687144                   1
 d    1 1.00
                   0.8                   1

41 0
 s    3 1.00
             18.731137    0.03349459952309
             2.8253937    0.23472694665786
             0.6401217    0.81375731841339
 s    1 1.00
             0.1612778                   1

42 0
 s    6 1.00
             5484.6717   0.001831099805527
             825.23495   0.013950098518422
             188.04696    0.06844509273075
               52.9645    0.23271427528445
              16.89757    0.47019295006289
             5.7996353    0.35852086192309
 s    3 1.00
             15.539616   -0.11077750382508
             3.5999336   -0.14802630511126
             1.0137618     1.1307670390447
 s    1 1.00
             0.2700058                   1
 p    3 1.00
             15.539616   0.070874299543311
             3.5999336    0.33975279781076
             1.0137618    0.72715859531445
 p    1 1.00
             0.2700058                   1
 d    1 1.00
                   0.8                   1

43 0
 s    3 1.00
             18.731137    0.03349459952309
             2.8253937    0.23472694665786
             0.6401217    0.81375731841339
 s    1 1.00
             0.1612778                   1

[5d]
[7f]
[9g]

[MO]
 Sym= A
 Ene=               0
 Spin= Alpha
 Occup=    1.00000
   1    7.4693235469702e-07
   2    2.297109705388e-05
   3    -5.9110096774244e-05
   4    2.9981109906758e-06
   5    -8.0860417039003e-07
   6    -1.7538350841932e-05
   7    -1.8027192368767e-06
   8    -4.9986412836136e-05
   9    0.00033658603328571
  10    6.3815830797867e-08
  11    -1.0628290786124e-05
  12    -3.3003805362114e-06
  13    -1.3119953753788e-05
  14    7.0475566987622e-06
  15    1.2547274478967e-05
  16    -2.3128540957599e-05
  17    -4.0825246218591e-06
  18    -0.00015651662344522
  19    -0.00044946960837687
  20    -5.5551342940331e-05
  21    1.1551018098318e-05
  22    7.7279928541784e-05
  23    -0.00014909689309577
  24    7.6437107270282e-05
  25    0.00064405391680392
  26    -2.1441023635758e-05
  27    2.2294246430011e-05
  28    -5.0041068144277e-06
  29    -4.1847511606712e-05
  30    8.9115849552927e-06
  31    9.2183604876547e-06
  32    -2.3231464997168e-05
  33    -6.6358448136667e-05
  34    -0.00033351269070406
  35    0.0043091338635824
  36    8.1924651006686e-05
  37    -4.7507914727441e-05
  38    -0.00016838940720546
  39    0.00022774011276575
  40    -0.0018811005378708
  41    -0.00064830154540526
  42    3.8966642697195e-05
  43    -9.7265886535742e-05
  44    7.8919880795009e-05
  45    -3.6796060921907e-05
  46    -3.5444471010744e-05
  47     3.14898391077e-06
  48    0.00025868722617155
  49    1.9625500809529e-05
  50    -0.00017243270965997
  51    -0.0034751927331308
  52    -0.0001733960326056
  53    0.00023685062576086
  54    0.00032893050261512
  55    0.0012827182308163
  56    -0.0025034628939606
  57    -0.0024060588178101
  58    2.5530931902629e-06
  59    -4.6222577444734e-05
  60    -0.00018583345422426
  61    -1.4962291013268e-05
  62    0.00011649217742861
  63    -0.0003028283521649
  64    -8.3113668113962e-05
  65    2.2936209809213e-07
  66    4.1530261517496e-07
  67    4.6321825275031e-08
  68    4.9252349663868e-07
  69    -2.8947876617322e-06
  70    -2.4185266322997e-07
  71    3.3116980875276e-07
  72    -7.945817116664e-08
  73    -2.1358697355418e-07
  74    -1.4194280803853e-06
  75    -2.7016487666584e-07
  76    4.9727675055105e-08
  77    1.1989043157357e-07
  78    -4.7408401839809e-08
  79    -7.194336554078e-08
  80    9.5361337474499e-08
  81    -7.5819897473265e-08
  82    -7.8104404352016e-08
  83    -2.1077512977841e-10
  84    9.3747274860209e-08
  85    1.1263098617293e-05
  86    -5.1787600203126e-07
  87    -1.2223693289441e-07
  88    -6.9994994380931e-07
  89    -3.1299000860023e-06
  90    4.366462584951e-06
  91    -2.4260289568147e-06
  92    -1.6493082052319e-07
  93    2.6971209174298e-07
  94    -2.8213496228429e-07
  95    -1.9912749512318e-08
  96    1.5370018424555e-07
  97    -4.847318975301e-07
  98    -4.9427104253365e-07
  99    3.7009706609629e-09
 100    8.9555276428757e-07
 101    3.0920431651848e-08
 102    1.1781445190131e-06
 103    -1.4238791045714e-05
 104    -4.8133387178092e-07
 105    4.0855764581655e-07
 106    4.2334028819038e-07
 107    1.7427408892085e-05
 108    -1.6340075723565e-05
 109    -2.5565703690788e-05
 110    5.3460555274732e-07
 111    4.6678655950395e-07
 112    -2.2448052944259e-07
 113    -4.6037028503745e-07
 114    4.3458504895301e-07
 115    4.7651059871828e-07
 116    4.3180344825839e-06
 117    -3.3687629942286e-05
 118    6.0764804416689e-07
 119    -1.0405728476615e-06
 120    -6.629138354766e-07
 121    7.1781104813342e-06
 122    -1.9288393031007e-07
 123    -1.3365604363055e-06
 124    4.4029236902755e-08
 125    1.1835253875504e-07
 126    1.4022966588736e-07
 127    -1.522415890466e-08
 128    2.9921008520275e-07
 129    8.1159579537724e-07
 130    8.2555334019464e-06
 131    -4.178555111094e-05
 132    1.152546885097e-07
 133    1.1885842167711e-06
 134    -3.5274780649526e-06
 135    2.2939289175165e-05
 136    -2.5926242213272e-06
 137    6.9436794551993e-05
 138    -2.214804770278e-06
 139    -1.2668434150457e-06
 140    -3.0018960360204e-07
 141    -3.8420108459394e-07
 142    -1.4571277269682e-07
 143    3.7285180143532e-07
 144    2.701109675407e-06
 145    -1.4777384084224e-05
 146    -4.9120504818082e-07
 147    -6.8524933575639e-07
 148    -3.7417572565053e-08
 149    -9.4874240255702e-06
 150    7.257667139626e-06
 151    1.2218856865959e-06
 152    9.6977005828315e-07
 153    2.9278235423435e-07
 154    4.8973141128577e-08
 155    -6.3504725126946e-07
 156    6.0305348058149e-07
 157    -1.3404342817603e-08
 158    -7.9740107786555e-07
 159    -2.3948958349236e-06
 160    -7.358361852748e-07
 161    3.0713805792976e-07
 162    5.9770293089354e-08
 163     5.27892059798e-06
 164    4.0014687047707e-07
 165    -6.8845714538342e-07
 166    -3.2347029714438e-07
 167    5.4551011493734e-08
 168    1.5172804006571e-08
 169    1.1588409274102e-07
 170    -2.0866365261819e-07
 171    -5.3699087350676e-08
 172    4.2717581489528e-07
 173    2.0910592796748e-06
 174    7.4707839013689e-07
 175    1.8408426665079e-07
 176    -7.2130311219945e-07
 177    5.4590576888264e-07
 178    -1.0372744385251e-06
 179    2.062067719659e-06
 180    -1.5266689871914e-07
 181    -1.5410082021193e-07
 182    1.8268792864542e-08
 183    3.5289015329406e-07
 184    -1.4067447107146e-07
 185    2.4995161408883e-07
 186    2.7182848037881e-06
 187    -1.953467806207e-06
 188    1.7197558507712e-07
 189    -1.3092958311019e-07
 190    -1.0525514381183e-06
 191    -2.4194499805537e-06
 192    -1.1787650522521e-06
 193    5.2153906346296e-06
 194    -3.4699964782061e-07
 195    5.4520765195594e-08
 196    -9.305718507939e-08
 197    -5.6461998031404e-08
 198    8.6926951064223e-08
 199    7.2748346288857e-07
 200    1.4241797251171e-06
 201    -1.274545855353e-07
 202    -3.1983948639451e-06
 203    1.5923414027018e-06
 204    1.8407551468244e-06
 205    4.0508811956544e-07
 206    2.3766479321838e-06
 207    -1.5988038222629e-06
 208    1.2996178347908e-05
 209    -9.4064076449183e-07
 210    3.8617434590726e-06
 211    -3.3501847135835e-07
 212    -2.4602050173519e-06
 213    2.8227205004073e-07
 214    2.2158074955559e-06
 215    4.8083244421455e-07
 216    -2.0272559999551e-07
 217    -3.7381280321213e-07
 218    -1.104017231123e-06
 219    -1.7942690979477e-07
 220    -1.006369673607e-06
 221    7.7811915559658e-07
 222    7.3671443396466e-06
 223    2.3047749134186e-06
 224    -4.6875803869588e-07
 225    1.4892819291633e-06
 226    -2.5785146074486e-06
 227    -1.5793647021948e-05
 228    -2.1613511269325e-05
 229    7.9899482486157e-05
 230    1.1304985029656e-06
 231    3.4374616791689e-06
 232    1.9457498843769e-06
 233    -1.5552724781414e-06
 234    -2.6730460959768e-06
 235    1.1533636603868e-06
 236    1.2841978841775e-05
 237    -3.9996409264275e-05
 238    1.4788416340375e-06
 239    -4.8945091938437e-06
 240    -4.7864934524123e-06
 241    2.229056585074e-05
 242    8.2944571635349e-06
 243    9.3704934516441e-05
 244    -2.5286549648733e-06
 245    -6.3813419811132e-06
 246    -2.0880665661014e-06
 247    -2.330345293953e-06
 248    -1.9937625582284e-06
 249    3.089600497214e-06
 250    -1.0981067169767e-05
 251    3.7586655333773e-06
 252    2.5478570576161e-05
 253    -0.00018284272396143
 254    -4.3604266114758e-06
 255    8.5974281401778e-06
 256    -6.631617460973e-06
 257    -8.1818538156466e-05
 258    -0.0001065695507937
 259    0.00021458020882078
 260    -6.0007387626017e-07
 261    1.0876283918594e-05
 262    5.5948131056504e-06
 263    -6.2204262753293e-06
 264    -6.8216464661658e-06
 265    4.8578904708518e-06
 266    -2.5634959260033e-05
 267    8.3453894056304e-06
 268    -3.6833322775402e-05
 269    6.9144700150995e-05
 270    8.3406583825393e-05
 271    -0.003051743705396
 272    5.1623282593851e-05
 273    0.00020641200322563
 274    -3.5801784421497e-05
 275    -0.0019714218749699
 276    -0.00057532231265563
 277    0.0032725049870878
 278    -0.00024377441851738
 279    0.00019168596017799
 280    -0.0001358233895461