[Molden Format]
made by pyscf v[2.0.1]
[Atoms] (AU)
C   1   6     0.69100024066471     0.64692934207205    -3.48223131169301
H   2   1     2.68052439830868     1.13355088658700    -3.25784032593313
C   3   6    -0.36286361513219     0.85440132524594    -5.97030179418974
H   4   1    -2.35448549047279     0.36322488579172    -6.17995817793143
C   5   6     0.93697958957450     1.61209284601821    -8.05828437677121
H   6   1     2.04771873455416     3.34419409619576    -7.97445952172335
C   7   6     0.93181860145248     0.24539724069794   -10.40101785795171
H   8   1    -0.18866463604211    -1.48700602985521   -10.45595821195799
H   9   1     1.55630230933075    -1.92953025305990    12.99630010416247
C   10   6     0.75233899775814    -2.21270439606481    11.10705728102219
H   11   1    -0.43433408177274    -3.90944857546550    11.22216085340412
C   12   6     2.86362581178706    -2.63237380607947     9.17926416456045
H   13   1     4.39038949912609    -1.24955421540245     9.49899813497433
H   14   1     3.74629220191363    -4.48798724300892     9.47414880959024
C   15   6     2.02478325613682    -2.42177285709634     6.44560829588644
C   16   6     3.88048732735477    -3.58795445234514     4.61402886975252
C   17   6    -0.18412382258602    -1.30464291234259     5.76021113872346
C   18   6    -2.10044360464350    -0.26837831858460     7.71610340967100
C   19   6    -3.08956938670431     2.35282328359417     6.88693925039594
C   20   6    -4.37372924086464    -2.09766595989678     7.93610724222001
C   21   6    -0.83850430601230     0.06372213486173    10.33002307638377
H   22   1     0.38411922151109     1.74281358582432    10.27380136542181
H   23   1    -2.30980003007874     0.45460143924521    11.73986301809809
H   24   1     4.58527064644668    -5.38706904487420     5.36778158031719
H   25   1     5.54944938085014    -2.37631462192748     4.35398898413318
H   26   1     3.06633019150423    -3.94118377050688     2.75255466040884
H   27   1    -4.17727778763735     2.26573369139522     5.12914900961283
H   28   1    -1.52662344944051     3.68001877445626     6.59540397144508
H   29   1    -4.32916174397830     3.13643051467482     8.35225460090378
H   30   1    -5.32329548508442    -2.36691813602939     6.11583672749896
H   31   1    -5.77989366602257    -1.33896741843465     9.25748940450990
H   32   1    -3.79310905208926    -3.96389819310853     8.61386170102686
C   33   6    -1.01100794811226    -1.06331657314144     3.11929490449947
C   34   6     0.37686231036534    -0.33275864505552     1.09165013605873
H   35   1    -3.01671213906703    -1.40297922279997     2.77827895090944
C   36   6    -0.64382707979370    -0.11591880174385    -1.42063131251064
H   37   1     2.35569259782137     0.17174499283897     1.33641070251401
H   38   1    -2.63317482980319    -0.60229203511219    -1.66119700387645
C   39   6     2.19331151370285     0.92821726401642   -12.52684146370420
C   40   6     2.06658501336205    -0.59430170292716   -14.82312084011087
H   41   1     3.34297492540252     2.63137484242591   -12.59961951178576
O   42   8     3.14891962090165    -0.09254461622574   -16.79735885819125
H   43   1     0.86886987612456    -2.32059369084518   -14.66320417409860
[GTO]
1 0
 s    6 1.00
             3047.5249  0.0018347001629433
             457.36951    0.01403730124668
             103.94869   0.068842606114048
             29.210155    0.23218442062076
              9.286663    0.46794134155879
              3.163927    0.36231203217765
 s    3 1.00
             7.8682724   -0.11933240861517
             1.8812885   -0.16085421161283
             0.5442493     1.1434564825515
 s    1 1.00
             0.1687144                   1
 p    3 1.00
             7.8682724   0.068999095584993
             1.8812885    0.31642397975315
             0.5442493    0.74430825237435
 p    1 1.00
             0.1687144                   1
 d    1 1.00
                   0.8                   1

2 0
 s    3 1.00
             18.731137    0.03349459952309
             2.8253937    0.23472694665786
             0.6401217    0.81375731841339
 s    1 1.00
             0.1612778                   1

3 0
 s    6 1.00
             3047.5249  0.0018347001629433
             457.36951    0.01403730124668
             103.94869   0.068842606114048
             29.210155    0.23218442062076
              9.286663    0.46794134155879
              3.163927    0.36231203217765
 s    3 1.00
             7.8682724   -0.11933240861517
             1.8812885   -0.16085421161283
             0.5442493     1.1434564825515
 s    1 1.00
             0.1687144                   1
 p    3 1.00
             7.8682724   0.068999095584993
             1.8812885    0.31642397975315
             0.5442493    0.74430825237435
 p    1 1.00
             0.1687144                   1
 d    1 1.00
                   0.8                   1

4 0
 s    3 1.00
             18.731137    0.03349459952309
             2.8253937    0.23472694665786
             0.6401217    0.81375731841339
 s    1 1.00
             0.1612778                   1

5 0
 s    6 1.00
             3047.5249  0.0018347001629433
             457.36951    0.01403730124668
             103.94869   0.068842606114048
             29.210155    0.23218442062076
              9.286663    0.46794134155879
              3.163927    0.36231203217765
 s    3 1.00
             7.8682724   -0.11933240861517
             1.8812885   -0.16085421161283
             0.5442493     1.1434564825515
 s    1 1.00
             0.1687144                   1
 p    3 1.00
             7.8682724   0.068999095584993
             1.8812885    0.31642397975315
             0.5442493    0.74430825237435
 p    1 1.00
             0.1687144                   1
 d    1 1.00
                   0.8                   1

6 0
 s    3 1.00
             18.731137    0.03349459952309
             2.8253937    0.23472694665786
             0.6401217    0.81375731841339
 s    1 1.00
             0.1612778                   1

7 0
 s    6 1.00
             3047.5249  0.0018347001629433
             457.36951    0.01403730124668
             103.94869   0.068842606114048
             29.210155    0.23218442062076
              9.286663    0.46794134155879
              3.163927    0.36231203217765
 s    3 1.00
             7.8682724   -0.11933240861517
             1.8812885   -0.16085421161283
             0.5442493     1.1434564825515
 s    1 1.00
             0.1687144                   1
 p    3 1.00
             7.8682724   0.068999095584993
             1.8812885    0.31642397975315
             0.5442493    0.74430825237435
 p    1 1.00
             0.1687144                   1
 d    1 1.00
                   0.8                   1

8 0
 s    3 1.00
             18.731137    0.03349459952309
             2.8253937    0.23472694665786
             0.6401217    0.81375731841339
 s    1 1.00
             0.1612778                   1

9 0
 s    3 1.00
             18.731137    0.03349459952309
             2.8253937    0.23472694665786
             0.6401217    0.81375731841339
 s    1 1.00
             0.1612778                   1

10 0
 s    6 1.00
             3047.5249  0.0018347001629433
             457.36951    0.01403730124668
             103.94869   0.068842606114048
             29.210155    0.23218442062076
              9.286663    0.46794134155879
              3.163927    0.36231203217765
 s    3 1.00
             7.8682724   -0.11933240861517
             1.8812885   -0.16085421161283
             0.5442493     1.1434564825515
 s    1 1.00
             0.1687144                   1
 p    3 1.00
             7.8682724   0.068999095584993
             1.8812885    0.31642397975315
             0.5442493    0.74430825237435
 p    1 1.00
             0.1687144                   1
 d    1 1.00
                   0.8                   1

11 0
 s    3 1.00
             18.731137    0.03349459952309
             2.8253937    0.23472694665786
             0.6401217    0.81375731841339
 s    1 1.00
             0.1612778                   1

12 0
 s    6 1.00
             3047.5249  0.0018347001629433
             457.36951    0.01403730124668
             103.94869   0.068842606114048
             29.210155    0.23218442062076
              9.286663    0.46794134155879
              3.163927    0.36231203217765
 s    3 1.00
             7.8682724   -0.11933240861517
             1.8812885   -0.16085421161283
             0.5442493     1.1434564825515
 s    1 1.00
             0.1687144                   1
 p    3 1.00
             7.8682724   0.068999095584993
             1.8812885    0.31642397975315
             0.5442493    0.74430825237435
 p    1 1.00
             0.1687144                   1
 d    1 1.00
                   0.8                   1

13 0
 s    3 1.00
             18.731137    0.03349459952309
             2.8253937    0.23472694665786
             0.6401217    0.81375731841339
 s    1 1.00
             0.1612778                   1

14 0
 s    3 1.00
             18.731137    0.03349459952309
             2.8253937    0.23472694665786
             0.6401217    0.81375731841339
 s    1 1.00
             0.1612778                   1

15 0
 s    6 1.00
             3047.5249  0.0018347001629433
             457.36951    0.01403730124668
             103.94869   0.068842606114048
             29.210155    0.23218442062076
              9.286663    0.46794134155879
              3.163927    0.36231203217765
 s    3 1.00
             7.8682724   -0.11933240861517
             1.8812885   -0.16085421161283
             0.5442493     1.1434564825515
 s    1 1.00
             0.1687144                   1
 p    3 1.00
             7.8682724   0.068999095584993
             1.8812885    0.31642397975315
             0.5442493    0.74430825237435
 p    1 1.00
             0.1687144                   1
 d    1 1.00
                   0.8                   1

16 0
 s    6 1.00
             3047.5249  0.0018347001629433
             457.36951    0.01403730124668
             103.94869   0.068842606114048
             29.210155    0.23218442062076
              9.286663    0.46794134155879
              3.163927    0.36231203217765
 s    3 1.00
             7.8682724   -0.11933240861517
             1.8812885   -0.16085421161283
             0.5442493     1.1434564825515
 s    1 1.00
             0.1687144                   1
 p    3 1.00
             7.8682724   0.068999095584993
             1.8812885    0.31642397975315
             0.5442493    0.74430825237435
 p    1 1.00
             0.1687144                   1
 d    1 1.00
                   0.8                   1

17 0
 s    6 1.00
             3047.5249  0.0018347001629433
             457.36951    0.01403730124668
             103.94869   0.068842606114048
             29.210155    0.23218442062076
              9.286663    0.46794134155879
              3.163927    0.36231203217765
 s    3 1.00
             7.8682724   -0.11933240861517
             1.8812885   -0.16085421161283
             0.5442493     1.1434564825515
 s    1 1.00
             0.1687144                   1
 p    3 1.00
             7.8682724   0.068999095584993
             1.8812885    0.31642397975315
             0.5442493    0.74430825237435
 p    1 1.00
             0.1687144                   1
 d    1 1.00
                   0.8                   1

18 0
 s    6 1.00
             3047.5249  0.0018347001629433
             457.36951    0.01403730124668
             103.94869   0.068842606114048
             29.210155    0.23218442062076
              9.286663    0.46794134155879
              3.163927    0.36231203217765
 s    3 1.00
             7.8682724   -0.11933240861517
             1.8812885   -0.16085421161283
             0.5442493     1.1434564825515
 s    1 1.00
             0.1687144                   1
 p    3 1.00
             7.8682724   0.068999095584993
             1.8812885    0.31642397975315
             0.5442493    0.74430825237435
 p    1 1.00
             0.1687144                   1
 d    1 1.00
                   0.8                   1

19 0
 s    6 1.00
             3047.5249  0.0018347001629433
             457.36951    0.01403730124668
             103.94869   0.068842606114048
             29.210155    0.23218442062076
              9.286663    0.46794134155879
              3.163927    0.36231203217765
 s    3 1.00
             7.8682724   -0.11933240861517
             1.8812885   -0.16085421161283
             0.5442493     1.1434564825515
 s    1 1.00
             0.1687144                   1
 p    3 1.00
             7.8682724   0.068999095584993
             1.8812885    0.31642397975315
             0.5442493    0.74430825237435
 p    1 1.00
             0.1687144                   1
 d    1 1.00
                   0.8                   1

20 0
 s    6 1.00
             3047.5249  0.0018347001629433
             457.36951    0.01403730124668
             103.94869   0.068842606114048
             29.210155    0.23218442062076
              9.286663    0.46794134155879
              3.163927    0.36231203217765
 s    3 1.00
             7.8682724   -0.11933240861517
             1.8812885   -0.16085421161283
             0.5442493     1.1434564825515
 s    1 1.00
             0.1687144                   1
 p    3 1.00
             7.8682724   0.068999095584993
             1.8812885    0.31642397975315
             0.5442493    0.74430825237435
 p    1 1.00
             0.1687144                   1
 d    1 1.00
                   0.8                   1

21 0
 s    6 1.00
             3047.5249  0.0018347001629433
             457.36951    0.01403730124668
             103.94869   0.068842606114048
             29.210155    0.23218442062076
              9.286663    0.46794134155879
              3.163927    0.36231203217765
 s    3 1.00
             7.8682724   -0.11933240861517
             1.8812885   -0.16085421161283
             0.5442493     1.1434564825515
 s    1 1.00
             0.1687144                   1
 p    3 1.00
             7.8682724   0.068999095584993
             1.8812885    0.31642397975315
             0.5442493    0.74430825237435
 p    1 1.00
             0.1687144                   1
 d    1 1.00
                   0.8                   1

22 0
 s    3 1.00
             18.731137    0.03349459952309
             2.8253937    0.23472694665786
             0.6401217    0.81375731841339
 s    1 1.00
             0.1612778                   1

23 0
 s    3 1.00
             18.731137    0.03349459952309
             2.8253937    0.23472694665786
             0.6401217    0.81375731841339
 s    1 1.00
             0.1612778                   1

24 0
 s    3 1.00
             18.731137    0.03349459952309
             2.8253937    0.23472694665786
             0.6401217    0.81375731841339
 s    1 1.00
             0.1612778                   1

25 0
 s    3 1.00
             18.731137    0.03349459952309
             2.8253937    0.23472694665786
             0.6401217    0.81375731841339
 s    1 1.00
             0.1612778                   1

26 0
 s    3 1.00
             18.731137    0.03349459952309
             2.8253937    0.23472694665786
             0.6401217    0.81375731841339
 s    1 1.00
             0.1612778                   1

27 0
 s    3 1.00
             18.731137    0.03349459952309
             2.8253937    0.23472694665786
             0.6401217    0.81375731841339
 s    1 1.00
             0.1612778                   1

28 0
 s    3 1.00
             18.731137    0.03349459952309
             2.8253937    0.23472694665786
             0.6401217    0.81375731841339
 s    1 1.00
             0.1612778                   1

29 0
 s    3 1.00
             18.731137    0.03349459952309
             2.8253937    0.23472694665786
             0.6401217    0.81375731841339
 s    1 1.00
             0.1612778                   1

30 0
 s    3 1.00
             18.731137    0.03349459952309
             2.8253937    0.23472694665786
             0.6401217    0.81375731841339
 s    1 1.00
             0.1612778                   1

31 0
 s    3 1.00
             18.731137    0.03349459952309
             2.8253937    0.23472694665786
             0.6401217    0.81375731841339
 s    1 1.00
             0.1612778                   1

32 0
 s    3 1.00
             18.731137    0.03349459952309
             2.8253937    0.23472694665786
             0.6401217    0.81375731841339
 s    1 1.00
             0.1612778                   1

33 0
 s    6 1.00
             3047.5249  0.0018347001629433
             457.36951    0.01403730124668
             103.94869   0.068842606114048
             29.210155    0.23218442062076
              9.286663    0.46794134155879
              3.163927    0.36231203217765
 s    3 1.00
             7.8682724   -0.11933240861517
             1.8812885   -0.16085421161283
             0.5442493     1.1434564825515
 s    1 1.00
             0.1687144                   1
 p    3 1.00
             7.8682724   0.068999095584993
             1.8812885    0.31642397975315
             0.5442493    0.74430825237435
 p    1 1.00
             0.1687144                   1
 d    1 1.00
                   0.8                   1

34 0
 s    6 1.00
             3047.5249  0.0018347001629433
             457.36951    0.01403730124668
             103.94869   0.068842606114048
             29.210155    0.23218442062076
              9.286663    0.46794134155879
              3.163927    0.36231203217765
 s    3 1.00
             7.8682724   -0.11933240861517
             1.8812885   -0.16085421161283
             0.5442493     1.1434564825515
 s    1 1.00
             0.1687144                   1
 p    3 1.00
             7.8682724   0.068999095584993
             1.8812885    0.31642397975315
             0.5442493    0.74430825237435
 p    1 1.00
             0.1687144                   1
 d    1 1.00
                   0.8                   1

35 0
 s    3 1.00
             18.731137    0.03349459952309
             2.8253937    0.23472694665786
             0.6401217    0.81375731841339
 s    1 1.00
             0.1612778                   1

36 0
 s    6 1.00
             3047.5249  0.0018347001629433
             457.36951    0.01403730124668
             103.94869   0.068842606114048
             29.210155    0.23218442062076
              9.286663    0.46794134155879
              3.163927    0.36231203217765
 s    3 1.00
             7.8682724   -0.11933240861517
             1.8812885   -0.16085421161283
             0.5442493     1.1434564825515
 s    1 1.00
             0.1687144                   1
 p    3 1.00
             7.8682724   0.068999095584993
             1.8812885    0.31642397975315
             0.5442493    0.74430825237435
 p    1 1.00
             0.1687144                   1
 d    1 1.00
                   0.8                   1

37 0
 s    3 1.00
             18.731137    0.03349459952309
             2.8253937    0.23472694665786
             0.6401217    0.81375731841339
 s    1 1.00
             0.1612778                   1

38 0
 s    3 1.00
             18.731137    0.03349459952309
             2.8253937    0.23472694665786
             0.6401217    0.81375731841339
 s    1 1.00
             0.1612778                   1

39 0
 s    6 1.00
             3047.5249  0.0018347001629433
             457.36951    0.01403730124668
             103.94869   0.068842606114048
             29.210155    0.23218442062076
              9.286663    0.46794134155879
              3.163927    0.36231203217765
 s    3 1.00
             7.8682724   -0.11933240861517
             1.8812885   -0.16085421161283
             0.5442493     1.1434564825515
 s    1 1.00
             0.1687144                   1
 p    3 1.00
             7.8682724   0.068999095584993
             1.8812885    0.31642397975315
             0.5442493    0.74430825237435
 p    1 1.00
             0.1687144                   1
 d    1 1.00
                   0.8                   1

40 0
 s    6 1.00
             3047.5249  0.0018347001629433
             457.36951    0.01403730124668
             103.94869   0.068842606114048
             29.210155    0.23218442062076
              9.286663    0.46794134155879
              3.163927    0.36231203217765
 s    3 1.00
             7.8682724   -0.11933240861517
             1.8812885   -0.16085421161283
             0.5442493     1.1434564825515
 s    1 1.00
             0.1687144                   1
 p    3 1.00
             7.8682724   0.068999095584993
             1.8812885    0.31642397975315
             0.5442493    0.74430825237435
 p    1 1.00
             0.1687144                   1
 d    1 1.00
                   0.8                   1

41 0
 s    3 1.00
             18.731137    0.03349459952309
             2.8253937    0.23472694665786
             0.6401217    0.81375731841339
 s    1 1.00
             0.1612778                   1

42 0
 s    6 1.00
             5484.6717   0.001831099805527
             825.23495   0.013950098518422
             188.04696    0.06844509273075
               52.9645    0.23271427528445
              16.89757    0.47019295006289
             5.7996353    0.35852086192309
 s    3 1.00
             15.539616   -0.11077750382508
             3.5999336   -0.14802630511126
             1.0137618     1.1307670390447
 s    1 1.00
             0.2700058                   1
 p    3 1.00
             15.539616   0.070874299543311
             3.5999336    0.33975279781076
             1.0137618    0.72715859531445
 p    1 1.00
             0.2700058                   1
 d    1 1.00
                   0.8                   1

43 0
 s    3 1.00
             18.731137    0.03349459952309
             2.8253937    0.23472694665786
             0.6401217    0.81375731841339
 s    1 1.00
             0.1612778                   1

[5d]
[7f]
[9g]

[MO]
 Sym= A
 Ene=               0
 Spin= Alpha
 Occup=    1.00000
   1    -1.9957465055702e-06
   2    5.6342588052303e-06
   3    -0.00013848069080975
   4    -1.9476038366782e-06
   5    -2.5444007431068e-05
   6    -5.4970503391971e-06
   7    0.00012156238287788
   8    0.00013813928677998
   9    -0.00013346144179564
  10    7.8493864761413e-06
  11    3.4024215075161e-06
  12    -2.3461140324323e-06
  13    -5.9871966130489e-06
  14    3.6490904466187e-06
  15    -1.0738712636006e-05
  16    -3.2635504417788e-05
  17    5.2341635061024e-06
  18    -6.3589365189345e-05
  19    -0.0010205142292019
  20    -3.4730289948401e-05
  21    1.3623139712811e-05
  22    7.3536005462716e-05
  23    -0.00023963678259249
  24    -3.8522556958691e-05
  25    0.00069923871149447
  26    -3.3068238469434e-05
  27    2.0492089550018e-05
  28    1.2567876350095e-05
  29    -3.4042862093746e-05
  30    2.8087741826821e-05
  31    2.2222778555332e-06
  32    1.4960378365818e-05
  33    -6.6214332179938e-05
  34    -0.0003125232219956
  35    0.0045271331080069
  36    4.4778799615877e-05
  37    -3.258773883259e-05
  38    -0.00016458511646556
  39    -0.00072784581577574
  40    -0.0016156290257462
  41    -0.0010611127818339
  42    0.0001039389848055
  43    -3.8669379373386e-05
  44    9.0863166904915e-05
  45    -2.8922673032757e-05
  46    2.9181803724876e-05
  47    9.2279837513073e-06
  48    0.00027895197944921
  49    2.0800561543467e-05
  50    -0.00016764992563411
  51    -0.0035952829037227
  52    -2.7565961599851e-05
  53    0.00018473569958508
  54    0.00039490544806981
  55    -0.00014314254878406
  56    -0.0020549437477782
  57    -0.0030965266393102
  58    -6.1802275785912e-05
  59    -9.64990032167e-05
  60    -0.00016190802305096
  61    2.2308355479765e-05
  62    0.00010651294457377
  63    -0.00030509481267558
  64    -8.8486403654978e-05
  65    1.1693964005809e-07
  66    8.648297846294e-07
  67    -1.5692118252997e-08
  68    -1.4874667345926e-07
  69    -2.0744894151754e-06
  70    1.1534740232238e-07
  71    -1.249257294387e-07
  72    1.3022196721515e-07
  73    7.1543430382792e-07
  74    -6.4686407725066e-07
  75    -1.1258291149603e-06
  76    1.0440152648005e-07
  77    9.6029018850909e-08
  78    1.5707264952259e-08
  79    -1.73163986065e-08
  80    7.488647389364e-08
  81    2.8089193171296e-08
  82    2.0161053875712e-07
  83    7.2907230056893e-08
  84    5.4578796937634e-07
  85    1.6195298442372e-06
  86    -6.7480228338261e-08
  87    -1.2891848825506e-07
  88    -1.1839385404381e-07
  89    -1.2064178782056e-07
  90    -1.5436796925826e-07
  91    -6.4824222395109e-07
  92    -1.1232648628429e-07
  93    -2.1894779223317e-08
  94    1.582117645552e-07
  95    -9.3339603744146e-08
  96    6.3476140502648e-08
  97    1.6406638380242e-07
  98    -2.4614396489275e-07
  99    -1.4002593330595e-08
 100    9.7106663962909e-08
 101    -1.1802260979246e-07
 102    2.3286989777266e-07
 103    1.4108549501631e-05
 104    -3.0449867738571e-07
 105    3.7762103723427e-07
 106    -6.4850188015791e-07
 107    -1.498557526955e-06
 108    3.1926960229267e-06
 109    -1.0845971164335e-05
 110    4.796003087637e-07
 111    5.8705012452876e-07
 112    -2.7517309679321e-07
 113    -6.1580571604277e-07
 114    -3.1417014601708e-07
 115    3.8831192153381e-07
 116    3.8399652733468e-06
 117    -2.0071999983868e-05
 118    1.8061796326337e-07
 119    -2.2174684078023e-07
 120    -7.5020788489543e-07
 121    3.7969650150609e-06
 122    -1.7504624327073e-06
 123    6.3781533717573e-06
 124    1.6001514216945e-07
 125    -2.4665414633552e-07
 126    -4.6532770767415e-08
 127    6.9335720102154e-08
 128    2.7471240114231e-08
 129    4.8809941506812e-07
 130    5.6054240312085e-06
 131    1.4379850829996e-07
 132    1.7709195709373e-06
 133    1.6215493222086e-06
 134    -3.4101845568616e-06
 135    -2.1724780906088e-05
 136    -2.4744056979135e-06
 137    1.8107890791056e-05
 138    -7.0889759661475e-07
 139    -1.4474386240589e-07
 140    6.4992496834373e-07
 141    -2.8297229963479e-07
 142    4.2296670369749e-07
 143    5.4386957953209e-08
 144    -4.246077821307e-07
 145    -1.2192381984007e-05
 146    -4.7067101594154e-07
 147    -1.0318551796629e-06
 148    1.702929533436e-06
 149    -5.768944475489e-06
 150    1.7223261144589e-05
 151    -7.6568990249546e-06
 152    2.6046608823887e-07
 153    1.2198301848614e-07
 154    -6.6311484158787e-07
 155    -3.5826170640364e-07
 156    -1.6052329817286e-07
 157    2.1931295887483e-07
 158    1.3792028932316e-06
 159    -1.3371224838176e-05
 160    -3.5226394008971e-07
 161    5.6495908932149e-07
 162    -4.6179861297517e-07
 163    -1.4109282959153e-06
 164    4.9762318340951e-06
 165    4.1299350029549e-07
 166    2.900744624077e-07
 167    -1.9852138860172e-07
 168    9.2632700942139e-08
 169     2.25682850261e-07
 170    2.2751032380107e-07
 171    -1.4307968149376e-08
 172    2.6603388263585e-07
 173    3.0924243692493e-06
 174    3.7409739857352e-07
 175    -2.5239288665141e-08
 176    8.696842736171e-08
 177    4.3440983617893e-06
 178    1.2213316669127e-06
 179    3.3819269718725e-06
 180    -2.2143408650273e-07
 181    3.8687672350566e-07
 182    9.4564955102316e-08
 183    4.2402313891139e-07
 184    2.7551333597311e-07
 185    -9.5365955310605e-08
 186    -5.0432861599464e-07
 187    7.5244763237441e-06
 188    -2.419533420371e-07
 189    -8.8867785903531e-08
 190    -5.0908667102372e-07
 191    -1.7791648982953e-06
 192    -4.3541498602367e-06
 193    -1.0352270336455e-06
 194    -8.2450725903577e-08
 195    2.8955325326808e-07
 196    5.3025515813069e-07
 197    -1.3712704560265e-07
 198    1.4683059189635e-07
 199    -1.2369420052583e-07
 200    1.5361977149378e-06
 201    -2.3935750456783e-07
 202    -1.1859601999673e-06
 203    7.2865469615765e-07
 204    -3.5644868467167e-07
 205    1.1089285909755e-06
 206    1.319900685187e-06
 207    -1.68402653405e-06
 208    1.6031578002293e-05
 209    3.9072971165971e-07
 210    1.9748747931958e-06
 211    6.1318999289475e-07
 212    -1.5915804244218e-07
 213    2.740520762066e-07
 214    4.1852472481646e-09
 215    -6.0431008051456e-07
 216    5.7700330661857e-06
 217    -1.3353750436424e-08
 218    -6.8213463608307e-07
 219    2.1251453450549e-07
 220    -1.311327255006e-06
 221    -6.2322575182782e-07
 222    -2.8589239187342e-06
 223    7.2145369920215e-05
 224    2.3397907863183e-06
 225    -3.608325653887e-07
 226    -6.7910220016781e-07
 227    -2.2269382683379e-06
 228    6.580167874609e-06
 229    -5.3247997494401e-05
 230    2.5011741975759e-06
 231    -1.4653033055479e-06
 232    -7.8144547217714e-07
 233    3.4884778924549e-07
 234    -8.4860634806686e-07
 235    3.2312543321357e-06
 236    2.323680170484e-05
 237    -0.00027462368301233
 238    -3.4740823697429e-07
 239    -4.9260806627791e-06
 240    3.1389721203753e-06
 241    8.5503113970455e-05
 242    2.809564736059e-05
 243    9.9933445347286e-05
 244    -9.1103611828827e-06
 245    -2.5095361930256e-06
 246    -2.5875059921716e-07
 247    -1.5395244461119e-06
 248    -3.3582979893927e-06
 249    -2.8376047604443e-06
 250    -1.3998031092273e-05
 251    -7.465388835818e-07
 252    -7.1976935914521e-06
 253    0.00031113183518151
 254    -9.5027132951045e-06
 255    1.2854695074592e-05
 256    -1.3448397947978e-05
 257    0.00013466512512976
 258    -5.7644981324274e-05
 259    0.00013205799853018
 260    7.7526635814773e-06
 261    3.2807406491828e-06
 262    2.5904321231213e-06
 263    4.3722716653992e-07
 264    -5.8509960049029e-06
 265    1.0392942264467e-06
 266    -1.647996868456e-05
 267    1.3520757882218e-05
 268    1.4096803393851e-06
 269    6.8272870267664e-05
 270    7.6774172714452e-05
 271    -0.0029921109613475
 272    0.00012601726593969
 273    0.00017316700013798
 274    -1.2010739153207e-06
 275    -0.001746725002627
 276    -0.00066648816582249
 277    0.0034442259428183
 278    -0.00032971198658218
 279    0.00012826439062602
 280    -5.3695573683768e-05