[Molden Format]
made by pyscf v[2.0.1]
[Atoms] (AU)
C   1   6     0.69100024066471     0.64692934207205    -3.48223131169301
H   2   1     2.68052439830868     1.13355088658700    -3.25784032593313
C   3   6    -0.36286361513219     0.85440132524594    -5.97030179418974
H   4   1    -2.35448549047279     0.36322488579172    -6.17995817793143
C   5   6     0.93697958957450     1.61209284601821    -8.05828437677121
H   6   1     1.01317567978386     3.61775130597871    -8.51923024455703
C   7   6     2.23318006711868    -0.09916996805052    -9.71591146992396
H   8   1     2.14101227267567    -2.10272353634710    -9.22908458474476
H   9   1     1.55630230933075    -1.92953025305990    12.99630010416247
C   10   6     0.75233899775814    -2.21270439606481    11.10705728102219
H   11   1    -0.43433408177274    -3.90944857546550    11.22216085340412
C   12   6     2.86362581178706    -2.63237380607947     9.17926416456045
H   13   1     4.39038949912609    -1.24955421540245     9.49899813497433
H   14   1     3.74629220191363    -4.48798724300892     9.47414880959024
C   15   6     2.02478325613682    -2.42177285709634     6.44560829588644
C   16   6     3.88048732735477    -3.58795445234514     4.61402886975252
C   17   6    -0.18412382258602    -1.30464291234259     5.76021113872346
C   18   6    -2.10044360464350    -0.26837831858460     7.71610340967100
C   19   6    -3.08956938670431     2.35282328359417     6.88693925039594
C   20   6    -4.37372924086464    -2.09766595989678     7.93610724222001
C   21   6    -0.83850430601230     0.06372213486173    10.33002307638377
H   22   1     0.38411922151109     1.74281358582432    10.27380136542181
H   23   1    -2.30980003007874     0.45460143924521    11.73986301809809
H   24   1     4.58527064644668    -5.38706904487420     5.36778158031719
H   25   1     5.54944938085014    -2.37631462192748     4.35398898413318
H   26   1     3.06633019150423    -3.94118377050688     2.75255466040884
H   27   1    -4.17727778763735     2.26573369139522     5.12914900961283
H   28   1    -1.52662344944051     3.68001877445626     6.59540397144508
H   29   1    -4.32916174397830     3.13643051467482     8.35225460090378
H   30   1    -5.32329548508442    -2.36691813602939     6.11583672749896
H   31   1    -5.77989366602257    -1.33896741843465     9.25748940450990
H   32   1    -3.79310905208926    -3.96389819310853     8.61386170102686
C   33   6    -1.01100794811226    -1.06331657314144     3.11929490449947
C   34   6     0.37686231036534    -0.33275864505552     1.09165013605873
H   35   1    -3.01671213906703    -1.40297922279997     2.77827895090944
C   36   6    -0.64382707979370    -0.11591880174385    -1.42063131251064
H   37   1     2.35569259782137     0.17174499283897     1.33641070251401
H   38   1    -2.63317482980319    -0.60229203511219    -1.66119700387645
C   39   6     3.54725246111133     0.56802416581284   -11.81467283923754
C   40   6     4.80361465317200    -1.32115012773234   -13.38298311351627
H   41   1     3.71304591439982     2.53035338251259   -12.40589607739641
O   42   8     6.01278787963721    -0.85546385399510   -15.29134904549642
H   43   1     4.58468921437884    -3.30497271823068   -12.70718839688766
[GTO]
1 0
 s    6 1.00
             3047.5249  0.0018347001629433
             457.36951    0.01403730124668
             103.94869   0.068842606114048
             29.210155    0.23218442062076
              9.286663    0.46794134155879
              3.163927    0.36231203217765
 s    3 1.00
             7.8682724   -0.11933240861517
             1.8812885   -0.16085421161283
             0.5442493     1.1434564825515
 s    1 1.00
             0.1687144                   1
 p    3 1.00
             7.8682724   0.068999095584993
             1.8812885    0.31642397975315
             0.5442493    0.74430825237435
 p    1 1.00
             0.1687144                   1
 d    1 1.00
                   0.8                   1

2 0
 s    3 1.00
             18.731137    0.03349459952309
             2.8253937    0.23472694665786
             0.6401217    0.81375731841339
 s    1 1.00
             0.1612778                   1

3 0
 s    6 1.00
             3047.5249  0.0018347001629433
             457.36951    0.01403730124668
             103.94869   0.068842606114048
             29.210155    0.23218442062076
              9.286663    0.46794134155879
              3.163927    0.36231203217765
 s    3 1.00
             7.8682724   -0.11933240861517
             1.8812885   -0.16085421161283
             0.5442493     1.1434564825515
 s    1 1.00
             0.1687144                   1
 p    3 1.00
             7.8682724   0.068999095584993
             1.8812885    0.31642397975315
             0.5442493    0.74430825237435
 p    1 1.00
             0.1687144                   1
 d    1 1.00
                   0.8                   1

4 0
 s    3 1.00
             18.731137    0.03349459952309
             2.8253937    0.23472694665786
             0.6401217    0.81375731841339
 s    1 1.00
             0.1612778                   1

5 0
 s    6 1.00
             3047.5249  0.0018347001629433
             457.36951    0.01403730124668
             103.94869   0.068842606114048
             29.210155    0.23218442062076
              9.286663    0.46794134155879
              3.163927    0.36231203217765
 s    3 1.00
             7.8682724   -0.11933240861517
             1.8812885   -0.16085421161283
             0.5442493     1.1434564825515
 s    1 1.00
             0.1687144                   1
 p    3 1.00
             7.8682724   0.068999095584993
             1.8812885    0.31642397975315
             0.5442493    0.74430825237435
 p    1 1.00
             0.1687144                   1
 d    1 1.00
                   0.8                   1

6 0
 s    3 1.00
             18.731137    0.03349459952309
             2.8253937    0.23472694665786
             0.6401217    0.81375731841339
 s    1 1.00
             0.1612778                   1

7 0
 s    6 1.00
             3047.5249  0.0018347001629433
             457.36951    0.01403730124668
             103.94869   0.068842606114048
             29.210155    0.23218442062076
              9.286663    0.46794134155879
              3.163927    0.36231203217765
 s    3 1.00
             7.8682724   -0.11933240861517
             1.8812885   -0.16085421161283
             0.5442493     1.1434564825515
 s    1 1.00
             0.1687144                   1
 p    3 1.00
             7.8682724   0.068999095584993
             1.8812885    0.31642397975315
             0.5442493    0.74430825237435
 p    1 1.00
             0.1687144                   1
 d    1 1.00
                   0.8                   1

8 0
 s    3 1.00
             18.731137    0.03349459952309
             2.8253937    0.23472694665786
             0.6401217    0.81375731841339
 s    1 1.00
             0.1612778                   1

9 0
 s    3 1.00
             18.731137    0.03349459952309
             2.8253937    0.23472694665786
             0.6401217    0.81375731841339
 s    1 1.00
             0.1612778                   1

10 0
 s    6 1.00
             3047.5249  0.0018347001629433
             457.36951    0.01403730124668
             103.94869   0.068842606114048
             29.210155    0.23218442062076
              9.286663    0.46794134155879
              3.163927    0.36231203217765
 s    3 1.00
             7.8682724   -0.11933240861517
             1.8812885   -0.16085421161283
             0.5442493     1.1434564825515
 s    1 1.00
             0.1687144                   1
 p    3 1.00
             7.8682724   0.068999095584993
             1.8812885    0.31642397975315
             0.5442493    0.74430825237435
 p    1 1.00
             0.1687144                   1
 d    1 1.00
                   0.8                   1

11 0
 s    3 1.00
             18.731137    0.03349459952309
             2.8253937    0.23472694665786
             0.6401217    0.81375731841339
 s    1 1.00
             0.1612778                   1

12 0
 s    6 1.00
             3047.5249  0.0018347001629433
             457.36951    0.01403730124668
             103.94869   0.068842606114048
             29.210155    0.23218442062076
              9.286663    0.46794134155879
              3.163927    0.36231203217765
 s    3 1.00
             7.8682724   -0.11933240861517
             1.8812885   -0.16085421161283
             0.5442493     1.1434564825515
 s    1 1.00
             0.1687144                   1
 p    3 1.00
             7.8682724   0.068999095584993
             1.8812885    0.31642397975315
             0.5442493    0.74430825237435
 p    1 1.00
             0.1687144                   1
 d    1 1.00
                   0.8                   1

13 0
 s    3 1.00
             18.731137    0.03349459952309
             2.8253937    0.23472694665786
             0.6401217    0.81375731841339
 s    1 1.00
             0.1612778                   1

14 0
 s    3 1.00
             18.731137    0.03349459952309
             2.8253937    0.23472694665786
             0.6401217    0.81375731841339
 s    1 1.00
             0.1612778                   1

15 0
 s    6 1.00
             3047.5249  0.0018347001629433
             457.36951    0.01403730124668
             103.94869   0.068842606114048
             29.210155    0.23218442062076
              9.286663    0.46794134155879
              3.163927    0.36231203217765
 s    3 1.00
             7.8682724   -0.11933240861517
             1.8812885   -0.16085421161283
             0.5442493     1.1434564825515
 s    1 1.00
             0.1687144                   1
 p    3 1.00
             7.8682724   0.068999095584993
             1.8812885    0.31642397975315
             0.5442493    0.74430825237435
 p    1 1.00
             0.1687144                   1
 d    1 1.00
                   0.8                   1

16 0
 s    6 1.00
             3047.5249  0.0018347001629433
             457.36951    0.01403730124668
             103.94869   0.068842606114048
             29.210155    0.23218442062076
              9.286663    0.46794134155879
              3.163927    0.36231203217765
 s    3 1.00
             7.8682724   -0.11933240861517
             1.8812885   -0.16085421161283
             0.5442493     1.1434564825515
 s    1 1.00
             0.1687144                   1
 p    3 1.00
             7.8682724   0.068999095584993
             1.8812885    0.31642397975315
             0.5442493    0.74430825237435
 p    1 1.00
             0.1687144                   1
 d    1 1.00
                   0.8                   1

17 0
 s    6 1.00
             3047.5249  0.0018347001629433
             457.36951    0.01403730124668
             103.94869   0.068842606114048
             29.210155    0.23218442062076
              9.286663    0.46794134155879
              3.163927    0.36231203217765
 s    3 1.00
             7.8682724   -0.11933240861517
             1.8812885   -0.16085421161283
             0.5442493     1.1434564825515
 s    1 1.00
             0.1687144                   1
 p    3 1.00
             7.8682724   0.068999095584993
             1.8812885    0.31642397975315
             0.5442493    0.74430825237435
 p    1 1.00
             0.1687144                   1
 d    1 1.00
                   0.8                   1

18 0
 s    6 1.00
             3047.5249  0.0018347001629433
             457.36951    0.01403730124668
             103.94869   0.068842606114048
             29.210155    0.23218442062076
              9.286663    0.46794134155879
              3.163927    0.36231203217765
 s    3 1.00
             7.8682724   -0.11933240861517
             1.8812885   -0.16085421161283
             0.5442493     1.1434564825515
 s    1 1.00
             0.1687144                   1
 p    3 1.00
             7.8682724   0.068999095584993
             1.8812885    0.31642397975315
             0.5442493    0.74430825237435
 p    1 1.00
             0.1687144                   1
 d    1 1.00
                   0.8                   1

19 0
 s    6 1.00
             3047.5249  0.0018347001629433
             457.36951    0.01403730124668
             103.94869   0.068842606114048
             29.210155    0.23218442062076
              9.286663    0.46794134155879
              3.163927    0.36231203217765
 s    3 1.00
             7.8682724   -0.11933240861517
             1.8812885   -0.16085421161283
             0.5442493     1.1434564825515
 s    1 1.00
             0.1687144                   1
 p    3 1.00
             7.8682724   0.068999095584993
             1.8812885    0.31642397975315
             0.5442493    0.74430825237435
 p    1 1.00
             0.1687144                   1
 d    1 1.00
                   0.8                   1

20 0
 s    6 1.00
             3047.5249  0.0018347001629433
             457.36951    0.01403730124668
             103.94869   0.068842606114048
             29.210155    0.23218442062076
              9.286663    0.46794134155879
              3.163927    0.36231203217765
 s    3 1.00
             7.8682724   -0.11933240861517
             1.8812885   -0.16085421161283
             0.5442493     1.1434564825515
 s    1 1.00
             0.1687144                   1
 p    3 1.00
             7.8682724   0.068999095584993
             1.8812885    0.31642397975315
             0.5442493    0.74430825237435
 p    1 1.00
             0.1687144                   1
 d    1 1.00
                   0.8                   1

21 0
 s    6 1.00
             3047.5249  0.0018347001629433
             457.36951    0.01403730124668
             103.94869   0.068842606114048
             29.210155    0.23218442062076
              9.286663    0.46794134155879
              3.163927    0.36231203217765
 s    3 1.00
             7.8682724   -0.11933240861517
             1.8812885   -0.16085421161283
             0.5442493     1.1434564825515
 s    1 1.00
             0.1687144                   1
 p    3 1.00
             7.8682724   0.068999095584993
             1.8812885    0.31642397975315
             0.5442493    0.74430825237435
 p    1 1.00
             0.1687144                   1
 d    1 1.00
                   0.8                   1

22 0
 s    3 1.00
             18.731137    0.03349459952309
             2.8253937    0.23472694665786
             0.6401217    0.81375731841339
 s    1 1.00
             0.1612778                   1

23 0
 s    3 1.00
             18.731137    0.03349459952309
             2.8253937    0.23472694665786
             0.6401217    0.81375731841339
 s    1 1.00
             0.1612778                   1

24 0
 s    3 1.00
             18.731137    0.03349459952309
             2.8253937    0.23472694665786
             0.6401217    0.81375731841339
 s    1 1.00
             0.1612778                   1

25 0
 s    3 1.00
             18.731137    0.03349459952309
             2.8253937    0.23472694665786
             0.6401217    0.81375731841339
 s    1 1.00
             0.1612778                   1

26 0
 s    3 1.00
             18.731137    0.03349459952309
             2.8253937    0.23472694665786
             0.6401217    0.81375731841339
 s    1 1.00
             0.1612778                   1

27 0
 s    3 1.00
             18.731137    0.03349459952309
             2.8253937    0.23472694665786
             0.6401217    0.81375731841339
 s    1 1.00
             0.1612778                   1

28 0
 s    3 1.00
             18.731137    0.03349459952309
             2.8253937    0.23472694665786
             0.6401217    0.81375731841339
 s    1 1.00
             0.1612778                   1

29 0
 s    3 1.00
             18.731137    0.03349459952309
             2.8253937    0.23472694665786
             0.6401217    0.81375731841339
 s    1 1.00
             0.1612778                   1

30 0
 s    3 1.00
             18.731137    0.03349459952309
             2.8253937    0.23472694665786
             0.6401217    0.81375731841339
 s    1 1.00
             0.1612778                   1

31 0
 s    3 1.00
             18.731137    0.03349459952309
             2.8253937    0.23472694665786
             0.6401217    0.81375731841339
 s    1 1.00
             0.1612778                   1

32 0
 s    3 1.00
             18.731137    0.03349459952309
             2.8253937    0.23472694665786
             0.6401217    0.81375731841339
 s    1 1.00
             0.1612778                   1

33 0
 s    6 1.00
             3047.5249  0.0018347001629433
             457.36951    0.01403730124668
             103.94869   0.068842606114048
             29.210155    0.23218442062076
              9.286663    0.46794134155879
              3.163927    0.36231203217765
 s    3 1.00
             7.8682724   -0.11933240861517
             1.8812885   -0.16085421161283
             0.5442493     1.1434564825515
 s    1 1.00
             0.1687144                   1
 p    3 1.00
             7.8682724   0.068999095584993
             1.8812885    0.31642397975315
             0.5442493    0.74430825237435
 p    1 1.00
             0.1687144                   1
 d    1 1.00
                   0.8                   1

34 0
 s    6 1.00
             3047.5249  0.0018347001629433
             457.36951    0.01403730124668
             103.94869   0.068842606114048
             29.210155    0.23218442062076
              9.286663    0.46794134155879
              3.163927    0.36231203217765
 s    3 1.00
             7.8682724   -0.11933240861517
             1.8812885   -0.16085421161283
             0.5442493     1.1434564825515
 s    1 1.00
             0.1687144                   1
 p    3 1.00
             7.8682724   0.068999095584993
             1.8812885    0.31642397975315
             0.5442493    0.74430825237435
 p    1 1.00
             0.1687144                   1
 d    1 1.00
                   0.8                   1

35 0
 s    3 1.00
             18.731137    0.03349459952309
             2.8253937    0.23472694665786
             0.6401217    0.81375731841339
 s    1 1.00
             0.1612778                   1

36 0
 s    6 1.00
             3047.5249  0.0018347001629433
             457.36951    0.01403730124668
             103.94869   0.068842606114048
             29.210155    0.23218442062076
              9.286663    0.46794134155879
              3.163927    0.36231203217765
 s    3 1.00
             7.8682724   -0.11933240861517
             1.8812885   -0.16085421161283
             0.5442493     1.1434564825515
 s    1 1.00
             0.1687144                   1
 p    3 1.00
             7.8682724   0.068999095584993
             1.8812885    0.31642397975315
             0.5442493    0.74430825237435
 p    1 1.00
             0.1687144                   1
 d    1 1.00
                   0.8                   1

37 0
 s    3 1.00
             18.731137    0.03349459952309
             2.8253937    0.23472694665786
             0.6401217    0.81375731841339
 s    1 1.00
             0.1612778                   1

38 0
 s    3 1.00
             18.731137    0.03349459952309
             2.8253937    0.23472694665786
             0.6401217    0.81375731841339
 s    1 1.00
             0.1612778                   1

39 0
 s    6 1.00
             3047.5249  0.0018347001629433
             457.36951    0.01403730124668
             103.94869   0.068842606114048
             29.210155    0.23218442062076
              9.286663    0.46794134155879
              3.163927    0.36231203217765
 s    3 1.00
             7.8682724   -0.11933240861517
             1.8812885   -0.16085421161283
             0.5442493     1.1434564825515
 s    1 1.00
             0.1687144                   1
 p    3 1.00
             7.8682724   0.068999095584993
             1.8812885    0.31642397975315
             0.5442493    0.74430825237435
 p    1 1.00
             0.1687144                   1
 d    1 1.00
                   0.8                   1

40 0
 s    6 1.00
             3047.5249  0.0018347001629433
             457.36951    0.01403730124668
             103.94869   0.068842606114048
             29.210155    0.23218442062076
              9.286663    0.46794134155879
              3.163927    0.36231203217765
 s    3 1.00
             7.8682724   -0.11933240861517
             1.8812885   -0.16085421161283
             0.5442493     1.1434564825515
 s    1 1.00
             0.1687144                   1
 p    3 1.00
             7.8682724   0.068999095584993
             1.8812885    0.31642397975315
             0.5442493    0.74430825237435
 p    1 1.00
             0.1687144                   1
 d    1 1.00
                   0.8                   1

41 0
 s    3 1.00
             18.731137    0.03349459952309
             2.8253937    0.23472694665786
             0.6401217    0.81375731841339
 s    1 1.00
             0.1612778                   1

42 0
 s    6 1.00
             5484.6717   0.001831099805527
             825.23495   0.013950098518422
             188.04696    0.06844509273075
               52.9645    0.23271427528445
              16.89757    0.47019295006289
             5.7996353    0.35852086192309
 s    3 1.00
             15.539616   -0.11077750382508
             3.5999336   -0.14802630511126
             1.0137618     1.1307670390447
 s    1 1.00
             0.2700058                   1
 p    3 1.00
             15.539616   0.070874299543311
             3.5999336    0.33975279781076
             1.0137618    0.72715859531445
 p    1 1.00
             0.2700058                   1
 d    1 1.00
                   0.8                   1

43 0
 s    3 1.00
             18.731137    0.03349459952309
             2.8253937    0.23472694665786
             0.6401217    0.81375731841339
 s    1 1.00
             0.1612778                   1

[5d]
[7f]
[9g]

[MO]
 Sym= A
 Ene=               0
 Spin= Alpha
 Occup=    1.00000
   1    7.3442176715976e-07
   2    1.9440577449594e-05
   3    5.4586637106809e-06
   4    1.982111028582e-06
   5    8.713685787967e-06
   6    -1.6378598111958e-05
   7    -3.2959661000108e-05
   8    -9.826646598367e-05
   9    0.00036951710875718
  10    -4.2569070725596e-07
  11    -1.0676465675303e-05
  12    -2.099249710174e-06
  13    -1.3675465754477e-05
  14    7.5163602831337e-06
  15    1.407128604911e-05
  16    -1.5871336986853e-05
  17    -4.6425608992567e-06
  18    -0.00016278105013246
  19    -0.00041790444366252
  20    -6.0001436300418e-05
  21    8.2765835915774e-06
  22    7.6552217739636e-05
  23    -0.00017204747583576
  24    0.00010425683365872
  25    0.00059565493332924
  26    -2.0367106018838e-05
  27    2.3060616277042e-05
  28    -1.0228994460846e-05
  29    -4.1210440903715e-05
  30    9.6620872598445e-07
  31    1.0928402515496e-05
  32    -3.1985285369666e-05
  33    -6.6697903059452e-05
  34    -0.00033848499313944
  35    0.0042963795761337
  36    9.4751359314815e-05
  37    -4.7741179957596e-05
  38    -0.00016303073537223
  39    0.00051030194728703
  40    -0.0018860959175141
  41    -0.00049263175353069
  42    2.134678089538e-05
  43    -0.00010626630110374
  44    6.4837782890739e-05
  45    -2.5906220410161e-05
  46    -5.6484788714597e-05
  47    4.3103830509782e-06
  48    0.0002596725808367
  49    1.9755914944459e-05
  50    -0.00017193888545174
  51    -0.0034821254822748
  52    -0.00021865195227904
  53    0.00023677206847083
  54    0.00030083131854979
  55    0.0017159640028371
  56    -0.0024968873418546
  57    -0.002148392815693
  58    2.4513015419978e-05
  59    -3.3525249109126e-05
  60    -0.00018577064621263
  61    -2.7698760871579e-05
  62    0.00011626388235507
  63    -0.00030255506050847
  64    -8.3251451605668e-05
  65    2.2264607776547e-07
  66    3.9856408829545e-07
  67    5.3339708556459e-08
  68    5.2978232769614e-07
  69    -2.8459078460394e-06
  70    -2.6510508439786e-07
  71    3.6977655945094e-07
  72    -1.1657732534064e-07
  73    -3.151533122914e-07
  74    -1.435874876284e-06
  75    -1.5860087252196e-07
  76    5.1656369616625e-08
  77    1.2451049632267e-07
  78    -4.720696735133e-08
  79    -6.7441473829768e-08
  80    1.0442789028065e-07
  81    -9.397012253961e-08
  82    -7.5523645815269e-08
  83    8.3520559859991e-09
  84    1.4816934409434e-07
  85    1.2915320293376e-05
  86    -6.0466128028832e-07
  87    -6.8474358811926e-08
  88    -7.6021751242839e-07
  89    -3.3184077037701e-06
  90    4.5533362050606e-06
  91    -2.9628047848466e-06
  92    -1.811671646863e-07
  93    2.9988497948954e-07
  94    -3.1727970418047e-07
  95    -3.1959493338465e-08
  96    1.7857806601069e-07
  97    -5.0521074481174e-07
  98    -3.5285525206211e-07
  99    -6.4225107271679e-08
 100    8.3514175797518e-07
 101    -7.4332089681132e-09
 102    1.0397610570641e-06
 103    -1.3167856374353e-05
 104    -7.3513428641103e-07
 105    2.9200319767843e-07
 106    5.5803527276729e-07
 107    1.8780970905059e-05
 108    -1.8501096431785e-05
 109    -3.0073707618935e-05
 110    5.7136800660811e-07
 111    5.1544574009467e-07
 112    -2.4113568732401e-07
 113    -3.6418835153128e-07
 114    4.9516578409956e-07
 115    4.9440757116134e-07
 116    4.3963088401168e-06
 117    -3.6035770226072e-05
 118    6.7069471870222e-07
 119    -1.0518406798404e-06
 120    -6.9754949196916e-07
 121    8.3493774479587e-06
 122    -1.0383550960554e-06
 123    -2.7708521928507e-06
 124    6.6798564199892e-08
 125    1.9968777445424e-07
 126    1.0460301512211e-07
 127    -8.0649939084518e-08
 128    3.7292060471001e-07
 129    8.9061181541933e-07
 130    8.7028301422556e-06
 131    -5.0393258378144e-05
 132    1.0936959863266e-07
 133    9.8493373444876e-07
 134    -3.5548882052239e-06
 135    2.462763681781e-05
 136    -2.7410250977786e-08
 137    8.0101494021802e-05
 138    -2.4814285890777e-06
 139    -1.5070536357927e-06
 140    -3.5705406179434e-07
 141    -4.3333300728729e-07
 142    -1.3752347210371e-07
 143    4.9697043386596e-07
 144    3.6360387740748e-06
 145    -1.9922334425985e-05
 146    -4.7674576080172e-07
 147    -5.4053898774126e-07
 148    -1.2166469963416e-07
 149    -1.2055858502976e-05
 150    6.053067620845e-06
 151    3.1438318584326e-06
 152    1.0162321312662e-06
 153    3.5927857461813e-07
 154    1.069097001314e-07
 155    -6.8935138928217e-07
 156    7.6251445086376e-07
 157    -2.893804435209e-08
 158    -1.0480315727979e-06
 159    -8.0556782171443e-07
 160    -7.4384525960825e-07
 161    2.5375127115891e-07
 162    2.0157761542009e-07
 163    6.4341425424452e-06
 164    -3.3458774209645e-07
 165    -8.2745363084407e-07
 166    -4.3234106093901e-07
 167    1.4196432942967e-07
 168    -1.4008878027987e-09
 169    1.088912721064e-07
 170    -2.9046527031101e-07
 171    -5.7243098590058e-08
 172    4.9846473497884e-07
 173    1.5278744821403e-06
 174    7.8007875289535e-07
 175    2.357219087885e-07
 176    -7.8865439297602e-07
 177    2.9142314279241e-07
 178    -1.4945541840938e-06
 179    1.8080048345263e-06
 180    -1.3670965988759e-07
 181    -1.9206950864937e-07
 182    -2.5736308955582e-08
 183    3.6320099469254e-07
 184    -1.7634417117604e-07
 185    2.7495173474035e-07
 186    3.0208612827882e-06
 187    -2.0197137704804e-06
 188    1.7325294549805e-07
 189    -1.4544598047779e-07
 190    -1.2041724074324e-06
 191    -2.4356539702602e-06
 192    -7.386432966691e-07
 193    5.3698361637907e-06
 194    -3.238677263582e-07
 195    4.7616114820169e-08
 196    -1.8430999579851e-07
 197    -7.9638780156154e-08
 198    9.5837818846878e-08
 199    7.6970609225996e-07
 200    1.3221042580284e-06
 201    -1.2007587367426e-07
 202    -3.4922277525079e-06
 203    1.6132507875956e-06
 204    1.6688640024581e-06
 205    4.0256372665559e-07
 206    2.6264894277144e-06
 207    -1.2927383222542e-06
 208    1.1322610125881e-05
 209    -1.1484219199906e-06
 210    4.3039823833894e-06
 211    -4.9995354094858e-07
 212    -2.7437962522305e-06
 213    3.3511751318762e-07
 214    2.5206992485777e-06
 215    5.4468796315321e-07
 216    -6.1920399058972e-07
 217    -3.7818548888522e-07
 218    -1.0940079994112e-06
 219    -2.4006912330929e-07
 220    -1.0084535349939e-06
 221    8.3437913614431e-07
 222    7.9039843429299e-06
 223    5.2660112490103e-06
 224    -1.0441259983458e-06
 225    2.5528079471153e-06
 226    -3.0278650563808e-06
 227    -1.2501401118485e-05
 228    -2.464202353781e-05
 229    9.5128563375883e-05
 230    1.1280178763844e-06
 231    4.047597937259e-06
 232    2.0716822467626e-06
 233    -1.7716724376667e-06
 234    -2.8079060775959e-06
 235    9.0677100240175e-07
 236    1.120462411364e-05
 237    -1.9551853445463e-05
 238    1.5114017413121e-06
 239    -5.4339639766591e-06
 240    -5.3781694088121e-06
 241    2.0562668269088e-05
 242    5.4409252403419e-06
 243    8.6800000046659e-05
 244    -1.4967805184172e-06
 245    -6.6864365360241e-06
 246    -1.7042614934803e-06
 247    -2.5113712339512e-06
 248    -1.3998907104458e-06
 249    4.1524016733649e-06
 250    -1.0442341918239e-05
 251    4.3466026023985e-06
 252    3.0315205607443e-05
 253    -0.00025627627971666
 254    -3.1564894860457e-06
 255    6.0369886830276e-06
 256    -6.4621628385913e-06
 257    -0.00011024568695787
 258    -0.00010290946261704
 259    0.00023789454096358
 260    -2.1772402617873e-06
 261    1.2134069227518e-05
 262    5.1085069738056e-06
 263    -7.7094881956926e-06
 264    -5.6291976572603e-06
 265    4.6116129900249e-06
 266    -2.7192826175111e-05
 267    8.1864327244311e-06
 268    -3.8795675734331e-05
 269    6.9207604260939e-05
 270    8.4200872903062e-05
 271    -0.0030584084186241
 272    2.8919120020766e-05
 273    0.0002082484040011
 274    -4.9077067617607e-05
 275    -0.0020463626535475
 276    -0.0005717915374211
 277    0.0032203935518572
 278    -0.00020782782841355
 279    0.00021224845151919