[Molden Format]
made by pyscf v[2.0.1]
[Atoms] (AU)
C   1   6     0.69100024066471     0.64692934207205    -3.48223131169301
H   2   1     2.68052439830868     1.13355088658700    -3.25784032593313
C   3   6    -0.36286361513219     0.85440132524594    -5.97030179418974
H   4   1    -2.35448549047279     0.36322488579172    -6.17995817793143
C   5   6     0.93697958957450     1.61209284601821    -8.05828437677121
H   6   1     0.50725181311820     3.44287068169954    -8.89764684313250
C   7   6     2.86970100877903     0.12057508237944    -9.23991306333710
H   8   1     3.28022106466413    -1.70875314533660    -8.37692190559989
H   9   1     1.55630230933075    -1.92953025305990    12.99630010416247
C   10   6     0.75233899775814    -2.21270439606481    11.10705728102219
H   11   1    -0.43433408177274    -3.90944857546550    11.22216085340412
C   12   6     2.86362581178706    -2.63237380607947     9.17926416456045
H   13   1     4.39038949912609    -1.24955421540245     9.49899813497433
H   14   1     3.74629220191363    -4.48798724300892     9.47414880959024
C   15   6     2.02478325613682    -2.42177285709634     6.44560829588644
C   16   6     3.88048732735477    -3.58795445234514     4.61402886975252
C   17   6    -0.18412382258602    -1.30464291234259     5.76021113872346
C   18   6    -2.10044360464350    -0.26837831858460     7.71610340967100
C   19   6    -3.08956938670431     2.35282328359417     6.88693925039594
C   20   6    -4.37372924086464    -2.09766595989678     7.93610724222001
C   21   6    -0.83850430601230     0.06372213486173    10.33002307638377
H   22   1     0.38411922151109     1.74281358582432    10.27380136542181
H   23   1    -2.30980003007874     0.45460143924521    11.73986301809809
H   24   1     4.58527064644668    -5.38706904487420     5.36778158031719
H   25   1     5.54944938085014    -2.37631462192748     4.35398898413318
H   26   1     3.06633019150423    -3.94118377050688     2.75255466040884
H   27   1    -4.17727778763735     2.26573369139522     5.12914900961283
H   28   1    -1.52662344944051     3.68001877445626     6.59540397144508
H   29   1    -4.32916174397830     3.13643051467482     8.35225460090378
H   30   1    -5.32329548508442    -2.36691813602939     6.11583672749896
H   31   1    -5.77989366602257    -1.33896741843465     9.25748940450990
H   32   1    -3.79310905208926    -3.96389819310853     8.61386170102686
C   33   6    -1.01100794811226    -1.06331657314144     3.11929490449947
C   34   6     0.37686231036534    -0.33275864505552     1.09165013605873
H   35   1    -3.01671213906703    -1.40297922279997     2.77827895090944
C   36   6    -0.64382707979370    -0.11591880174385    -1.42063131251064
H   37   1     2.35569259782137     0.17174499283897     1.33641070251401
H   38   1    -2.63317482980319    -0.60229203511219    -1.66119700387645
C   39   6     4.20991814769739     0.79575668965015   -11.31949989075694
C   40   6     6.14288813089389    -0.86010693489370   -12.38193355267250
H   41   1     3.89481568247576     2.59125541029260   -12.27063769452772
O   42   8     7.41472391465697    -0.37430332261595   -14.24398959848541
H   43   1     6.40229959564941    -2.67780216203268   -11.34807250251721
[GTO]
1 0
 s    6 1.00
             3047.5249  0.0018347001629433
             457.36951    0.01403730124668
             103.94869   0.068842606114048
             29.210155    0.23218442062076
              9.286663    0.46794134155879
              3.163927    0.36231203217765
 s    3 1.00
             7.8682724   -0.11933240861517
             1.8812885   -0.16085421161283
             0.5442493     1.1434564825515
 s    1 1.00
             0.1687144                   1
 p    3 1.00
             7.8682724   0.068999095584993
             1.8812885    0.31642397975315
             0.5442493    0.74430825237435
 p    1 1.00
             0.1687144                   1
 d    1 1.00
                   0.8                   1

2 0
 s    3 1.00
             18.731137    0.03349459952309
             2.8253937    0.23472694665786
             0.6401217    0.81375731841339
 s    1 1.00
             0.1612778                   1

3 0
 s    6 1.00
             3047.5249  0.0018347001629433
             457.36951    0.01403730124668
             103.94869   0.068842606114048
             29.210155    0.23218442062076
              9.286663    0.46794134155879
              3.163927    0.36231203217765
 s    3 1.00
             7.8682724   -0.11933240861517
             1.8812885   -0.16085421161283
             0.5442493     1.1434564825515
 s    1 1.00
             0.1687144                   1
 p    3 1.00
             7.8682724   0.068999095584993
             1.8812885    0.31642397975315
             0.5442493    0.74430825237435
 p    1 1.00
             0.1687144                   1
 d    1 1.00
                   0.8                   1

4 0
 s    3 1.00
             18.731137    0.03349459952309
             2.8253937    0.23472694665786
             0.6401217    0.81375731841339
 s    1 1.00
             0.1612778                   1

5 0
 s    6 1.00
             3047.5249  0.0018347001629433
             457.36951    0.01403730124668
             103.94869   0.068842606114048
             29.210155    0.23218442062076
              9.286663    0.46794134155879
              3.163927    0.36231203217765
 s    3 1.00
             7.8682724   -0.11933240861517
             1.8812885   -0.16085421161283
             0.5442493     1.1434564825515
 s    1 1.00
             0.1687144                   1
 p    3 1.00
             7.8682724   0.068999095584993
             1.8812885    0.31642397975315
             0.5442493    0.74430825237435
 p    1 1.00
             0.1687144                   1
 d    1 1.00
                   0.8                   1

6 0
 s    3 1.00
             18.731137    0.03349459952309
             2.8253937    0.23472694665786
             0.6401217    0.81375731841339
 s    1 1.00
             0.1612778                   1

7 0
 s    6 1.00
             3047.5249  0.0018347001629433
             457.36951    0.01403730124668
             103.94869   0.068842606114048
             29.210155    0.23218442062076
              9.286663    0.46794134155879
              3.163927    0.36231203217765
 s    3 1.00
             7.8682724   -0.11933240861517
             1.8812885   -0.16085421161283
             0.5442493     1.1434564825515
 s    1 1.00
             0.1687144                   1
 p    3 1.00
             7.8682724   0.068999095584993
             1.8812885    0.31642397975315
             0.5442493    0.74430825237435
 p    1 1.00
             0.1687144                   1
 d    1 1.00
                   0.8                   1

8 0
 s    3 1.00
             18.731137    0.03349459952309
             2.8253937    0.23472694665786
             0.6401217    0.81375731841339
 s    1 1.00
             0.1612778                   1

9 0
 s    3 1.00
             18.731137    0.03349459952309
             2.8253937    0.23472694665786
             0.6401217    0.81375731841339
 s    1 1.00
             0.1612778                   1

10 0
 s    6 1.00
             3047.5249  0.0018347001629433
             457.36951    0.01403730124668
             103.94869   0.068842606114048
             29.210155    0.23218442062076
              9.286663    0.46794134155879
              3.163927    0.36231203217765
 s    3 1.00
             7.8682724   -0.11933240861517
             1.8812885   -0.16085421161283
             0.5442493     1.1434564825515
 s    1 1.00
             0.1687144                   1
 p    3 1.00
             7.8682724   0.068999095584993
             1.8812885    0.31642397975315
             0.5442493    0.74430825237435
 p    1 1.00
             0.1687144                   1
 d    1 1.00
                   0.8                   1

11 0
 s    3 1.00
             18.731137    0.03349459952309
             2.8253937    0.23472694665786
             0.6401217    0.81375731841339
 s    1 1.00
             0.1612778                   1

12 0
 s    6 1.00
             3047.5249  0.0018347001629433
             457.36951    0.01403730124668
             103.94869   0.068842606114048
             29.210155    0.23218442062076
              9.286663    0.46794134155879
              3.163927    0.36231203217765
 s    3 1.00
             7.8682724   -0.11933240861517
             1.8812885   -0.16085421161283
             0.5442493     1.1434564825515
 s    1 1.00
             0.1687144                   1
 p    3 1.00
             7.8682724   0.068999095584993
             1.8812885    0.31642397975315
             0.5442493    0.74430825237435
 p    1 1.00
             0.1687144                   1
 d    1 1.00
                   0.8                   1

13 0
 s    3 1.00
             18.731137    0.03349459952309
             2.8253937    0.23472694665786
             0.6401217    0.81375731841339
 s    1 1.00
             0.1612778                   1

14 0
 s    3 1.00
             18.731137    0.03349459952309
             2.8253937    0.23472694665786
             0.6401217    0.81375731841339
 s    1 1.00
             0.1612778                   1

15 0
 s    6 1.00
             3047.5249  0.0018347001629433
             457.36951    0.01403730124668
             103.94869   0.068842606114048
             29.210155    0.23218442062076
              9.286663    0.46794134155879
              3.163927    0.36231203217765
 s    3 1.00
             7.8682724   -0.11933240861517
             1.8812885   -0.16085421161283
             0.5442493     1.1434564825515
 s    1 1.00
             0.1687144                   1
 p    3 1.00
             7.8682724   0.068999095584993
             1.8812885    0.31642397975315
             0.5442493    0.74430825237435
 p    1 1.00
             0.1687144                   1
 d    1 1.00
                   0.8                   1

16 0
 s    6 1.00
             3047.5249  0.0018347001629433
             457.36951    0.01403730124668
             103.94869   0.068842606114048
             29.210155    0.23218442062076
              9.286663    0.46794134155879
              3.163927    0.36231203217765
 s    3 1.00
             7.8682724   -0.11933240861517
             1.8812885   -0.16085421161283
             0.5442493     1.1434564825515
 s    1 1.00
             0.1687144                   1
 p    3 1.00
             7.8682724   0.068999095584993
             1.8812885    0.31642397975315
             0.5442493    0.74430825237435
 p    1 1.00
             0.1687144                   1
 d    1 1.00
                   0.8                   1

17 0
 s    6 1.00
             3047.5249  0.0018347001629433
             457.36951    0.01403730124668
             103.94869   0.068842606114048
             29.210155    0.23218442062076
              9.286663    0.46794134155879
              3.163927    0.36231203217765
 s    3 1.00
             7.8682724   -0.11933240861517
             1.8812885   -0.16085421161283
             0.5442493     1.1434564825515
 s    1 1.00
             0.1687144                   1
 p    3 1.00
             7.8682724   0.068999095584993
             1.8812885    0.31642397975315
             0.5442493    0.74430825237435
 p    1 1.00
             0.1687144                   1
 d    1 1.00
                   0.8                   1

18 0
 s    6 1.00
             3047.5249  0.0018347001629433
             457.36951    0.01403730124668
             103.94869   0.068842606114048
             29.210155    0.23218442062076
              9.286663    0.46794134155879
              3.163927    0.36231203217765
 s    3 1.00
             7.8682724   -0.11933240861517
             1.8812885   -0.16085421161283
             0.5442493     1.1434564825515
 s    1 1.00
             0.1687144                   1
 p    3 1.00
             7.8682724   0.068999095584993
             1.8812885    0.31642397975315
             0.5442493    0.74430825237435
 p    1 1.00
             0.1687144                   1
 d    1 1.00
                   0.8                   1

19 0
 s    6 1.00
             3047.5249  0.0018347001629433
             457.36951    0.01403730124668
             103.94869   0.068842606114048
             29.210155    0.23218442062076
              9.286663    0.46794134155879
              3.163927    0.36231203217765
 s    3 1.00
             7.8682724   -0.11933240861517
             1.8812885   -0.16085421161283
             0.5442493     1.1434564825515
 s    1 1.00
             0.1687144                   1
 p    3 1.00
             7.8682724   0.068999095584993
             1.8812885    0.31642397975315
             0.5442493    0.74430825237435
 p    1 1.00
             0.1687144                   1
 d    1 1.00
                   0.8                   1

20 0
 s    6 1.00
             3047.5249  0.0018347001629433
             457.36951    0.01403730124668
             103.94869   0.068842606114048
             29.210155    0.23218442062076
              9.286663    0.46794134155879
              3.163927    0.36231203217765
 s    3 1.00
             7.8682724   -0.11933240861517
             1.8812885   -0.16085421161283
             0.5442493     1.1434564825515
 s    1 1.00
             0.1687144                   1
 p    3 1.00
             7.8682724   0.068999095584993
             1.8812885    0.31642397975315
             0.5442493    0.74430825237435
 p    1 1.00
             0.1687144                   1
 d    1 1.00
                   0.8                   1

21 0
 s    6 1.00
             3047.5249  0.0018347001629433
             457.36951    0.01403730124668
             103.94869   0.068842606114048
             29.210155    0.23218442062076
              9.286663    0.46794134155879
              3.163927    0.36231203217765
 s    3 1.00
             7.8682724   -0.11933240861517
             1.8812885   -0.16085421161283
             0.5442493     1.1434564825515
 s    1 1.00
             0.1687144                   1
 p    3 1.00
             7.8682724   0.068999095584993
             1.8812885    0.31642397975315
             0.5442493    0.74430825237435
 p    1 1.00
             0.1687144                   1
 d    1 1.00
                   0.8                   1

22 0
 s    3 1.00
             18.731137    0.03349459952309
             2.8253937    0.23472694665786
             0.6401217    0.81375731841339
 s    1 1.00
             0.1612778                   1

23 0
 s    3 1.00
             18.731137    0.03349459952309
             2.8253937    0.23472694665786
             0.6401217    0.81375731841339
 s    1 1.00
             0.1612778                   1

24 0
 s    3 1.00
             18.731137    0.03349459952309
             2.8253937    0.23472694665786
             0.6401217    0.81375731841339
 s    1 1.00
             0.1612778                   1

25 0
 s    3 1.00
             18.731137    0.03349459952309
             2.8253937    0.23472694665786
             0.6401217    0.81375731841339
 s    1 1.00
             0.1612778                   1

26 0
 s    3 1.00
             18.731137    0.03349459952309
             2.8253937    0.23472694665786
             0.6401217    0.81375731841339
 s    1 1.00
             0.1612778                   1

27 0
 s    3 1.00
             18.731137    0.03349459952309
             2.8253937    0.23472694665786
             0.6401217    0.81375731841339
 s    1 1.00
             0.1612778                   1

28 0
 s    3 1.00
             18.731137    0.03349459952309
             2.8253937    0.23472694665786
             0.6401217    0.81375731841339
 s    1 1.00
             0.1612778                   1

29 0
 s    3 1.00
             18.731137    0.03349459952309
             2.8253937    0.23472694665786
             0.6401217    0.81375731841339
 s    1 1.00
             0.1612778                   1

30 0
 s    3 1.00
             18.731137    0.03349459952309
             2.8253937    0.23472694665786
             0.6401217    0.81375731841339
 s    1 1.00
             0.1612778                   1

31 0
 s    3 1.00
             18.731137    0.03349459952309
             2.8253937    0.23472694665786
             0.6401217    0.81375731841339
 s    1 1.00
             0.1612778                   1

32 0
 s    3 1.00
             18.731137    0.03349459952309
             2.8253937    0.23472694665786
             0.6401217    0.81375731841339
 s    1 1.00
             0.1612778                   1

33 0
 s    6 1.00
             3047.5249  0.0018347001629433
             457.36951    0.01403730124668
             103.94869   0.068842606114048
             29.210155    0.23218442062076
              9.286663    0.46794134155879
              3.163927    0.36231203217765
 s    3 1.00
             7.8682724   -0.11933240861517
             1.8812885   -0.16085421161283
             0.5442493     1.1434564825515
 s    1 1.00
             0.1687144                   1
 p    3 1.00
             7.8682724   0.068999095584993
             1.8812885    0.31642397975315
             0.5442493    0.74430825237435
 p    1 1.00
             0.1687144                   1
 d    1 1.00
                   0.8                   1

34 0
 s    6 1.00
             3047.5249  0.0018347001629433
             457.36951    0.01403730124668
             103.94869   0.068842606114048
             29.210155    0.23218442062076
              9.286663    0.46794134155879
              3.163927    0.36231203217765
 s    3 1.00
             7.8682724   -0.11933240861517
             1.8812885   -0.16085421161283
             0.5442493     1.1434564825515
 s    1 1.00
             0.1687144                   1
 p    3 1.00
             7.8682724   0.068999095584993
             1.8812885    0.31642397975315
             0.5442493    0.74430825237435
 p    1 1.00
             0.1687144                   1
 d    1 1.00
                   0.8                   1

35 0
 s    3 1.00
             18.731137    0.03349459952309
             2.8253937    0.23472694665786
             0.6401217    0.81375731841339
 s    1 1.00
             0.1612778                   1

36 0
 s    6 1.00
             3047.5249  0.0018347001629433
             457.36951    0.01403730124668
             103.94869   0.068842606114048
             29.210155    0.23218442062076
              9.286663    0.46794134155879
              3.163927    0.36231203217765
 s    3 1.00
             7.8682724   -0.11933240861517
             1.8812885   -0.16085421161283
             0.5442493     1.1434564825515
 s    1 1.00
             0.1687144                   1
 p    3 1.00
             7.8682724   0.068999095584993
             1.8812885    0.31642397975315
             0.5442493    0.74430825237435
 p    1 1.00
             0.1687144                   1
 d    1 1.00
                   0.8                   1

37 0
 s    3 1.00
             18.731137    0.03349459952309
             2.8253937    0.23472694665786
             0.6401217    0.81375731841339
 s    1 1.00
             0.1612778                   1

38 0
 s    3 1.00
             18.731137    0.03349459952309
             2.8253937    0.23472694665786
             0.6401217    0.81375731841339
 s    1 1.00
             0.1612778                   1

39 0
 s    6 1.00
             3047.5249  0.0018347001629433
             457.36951    0.01403730124668
             103.94869   0.068842606114048
             29.210155    0.23218442062076
              9.286663    0.46794134155879
              3.163927    0.36231203217765
 s    3 1.00
             7.8682724   -0.11933240861517
             1.8812885   -0.16085421161283
             0.5442493     1.1434564825515
 s    1 1.00
             0.1687144                   1
 p    3 1.00
             7.8682724   0.068999095584993
             1.8812885    0.31642397975315
             0.5442493    0.74430825237435
 p    1 1.00
             0.1687144                   1
 d    1 1.00
                   0.8                   1

40 0
 s    6 1.00
             3047.5249  0.0018347001629433
             457.36951    0.01403730124668
             103.94869   0.068842606114048
             29.210155    0.23218442062076
              9.286663    0.46794134155879
              3.163927    0.36231203217765
 s    3 1.00
             7.8682724   -0.11933240861517
             1.8812885   -0.16085421161283
             0.5442493     1.1434564825515
 s    1 1.00
             0.1687144                   1
 p    3 1.00
             7.8682724   0.068999095584993
             1.8812885    0.31642397975315
             0.5442493    0.74430825237435
 p    1 1.00
             0.1687144                   1
 d    1 1.00
                   0.8                   1

41 0
 s    3 1.00
             18.731137    0.03349459952309
             2.8253937    0.23472694665786
             0.6401217    0.81375731841339
 s    1 1.00
             0.1612778                   1

42 0
 s    6 1.00
             5484.6717   0.001831099805527
             825.23495   0.013950098518422
             188.04696    0.06844509273075
               52.9645    0.23271427528445
              16.89757    0.47019295006289
             5.7996353    0.35852086192309
 s    3 1.00
             15.539616   -0.11077750382508
             3.5999336   -0.14802630511126
             1.0137618     1.1307670390447
 s    1 1.00
             0.2700058                   1
 p    3 1.00
             15.539616   0.070874299543311
             3.5999336    0.33975279781076
             1.0137618    0.72715859531445
 p    1 1.00
             0.2700058                   1
 d    1 1.00
                   0.8                   1

43 0
 s    3 1.00
             18.731137    0.03349459952309
             2.8253937    0.23472694665786
             0.6401217    0.81375731841339
 s    1 1.00
             0.1612778                   1

[5d]
[7f]
[9g]

[MO]
 Sym= A
 Ene=               0
 Spin= Alpha
 Occup=    1.00000
   1    4.5737174397431e-07
   2    4.6722593173096e-06
   3    -0.00024213220266088
   4    3.0662859134833e-06
   5    -2.3273649708153e-05
   6    5.4607574044871e-06
   7    7.840028614212e-05
   8    0.00015875677411223
   9    -0.00020040330217426
  10    -4.027930437835e-06
  11    4.1095075039316e-06
  12    -2.338265771789e-06
  13    1.125444578737e-05
  14    -6.9628840196268e-06
  15    -8.6976639711846e-06
  16    -1.0468811176042e-06
  17    7.3850192138258e-07
  18    0.00012339547046431
  19    0.00064407591184685
  20    6.1074783092527e-05
  21    1.3051424907074e-06
  22    -7.2155032286272e-05
  23     0.000364169184555
  24    -0.00013092319907334
  25    -0.00039496162942818
  26    2.3570191705445e-05
  27    -2.4455770125027e-05
  28    1.8175724927183e-05
  29    3.4788717920751e-05
  30    1.4858907574629e-05
  31    -1.0671634623924e-05
  32    5.8108335747896e-05
  33    6.6404131647069e-05
  34    0.00033100184921934
  35    -0.0042949911355957
  36    -0.00013513728708406
  37    3.3151335750584e-05
  38    0.00012766546358819
  39    -0.0011437636809452
  40    0.0017122763897186
  41    5.2647579004831e-05
  42    9.1757355115223e-06
  43    0.00010641313880218
  44    -2.3912341425163e-05
  45    -2.0534666716071e-05
  46    8.8901720581549e-05
  47    -7.8913464922862e-06
  48    -0.00027535951282265
  49    -2.0061403238574e-05
  50    0.00017172448726927
  51    0.0035343208183329
  52    0.00032151005335819
  53    -0.00020206122204851
  54    -0.00022026676476984
  55    -0.0026101664854651
  56    0.0022120751558595
  57    0.0014594029435893
  58    -7.9203959204633e-05
  59    1.2846766033133e-05
  60    0.00017222150660467
  61    5.961355063739e-05
  62    -0.00010432632340858
  63    0.00030373193284584
  64    9.2102215003376e-05
  65    -1.1942060959016e-07
  66    -4.6058243824765e-07
  67    -3.6130086079886e-08
  68    -3.7831837358984e-07
  69    2.3126148152968e-06
  70    1.3263077103071e-07
  71    -2.1441198010818e-07
  72    1.5748682171571e-07
  73    4.9618776170604e-08
  74    1.0812113332706e-06
  75    4.3809619360507e-08
  76    -9.1124757151479e-08
  77    -1.3212338345134e-07
  78    1.9764713818258e-08
  79    2.5500010105501e-08
  80    -1.271200394735e-07
  81    7.5531509009141e-08
  82    -7.3809201002773e-08
  83    -5.0839488181152e-08
  84    -6.0215467746249e-07
  85    -1.3984147817475e-05
  86    6.877863837789e-07
  87    -1.4487937427128e-07
  88    7.6286601537681e-07
  89    2.5078783341952e-06
  90    -2.6947435338547e-06
  91    4.1299287748895e-06
  92    1.9167861265249e-07
  93    -2.3654965050198e-07
  94    2.3066599813053e-07
  95    1.2210267635832e-07
  96    -1.9410383163675e-07
  97    3.4749253901895e-07
  98    5.1041930085186e-08
  99    2.5660104152595e-07
 100    -3.3287630083666e-07
 101    1.5539603989247e-07
 102    -3.5275425600183e-09
 103    -4.0128672343439e-06
 104    1.0938157122394e-06
 105    -3.8700644120616e-07
 106    -5.3127226165425e-07
 107    -1.4137257753609e-05
 108    1.474636658624e-05
 109    3.794124521061e-05
 110    -6.3423851144863e-07
 111    -7.5629602982569e-07
 112    3.1623451056375e-07
 113    1.1134525947357e-07
 114    -3.2995658172085e-07
 115    -4.7051086889616e-07
 116    -4.2455764805529e-06
 117    3.6036147027645e-05
 118    -6.5979261530996e-07
 119    6.5166006834737e-07
 120    9.5033695625966e-07
 121    -1.0379510454888e-05
 122    4.6222042948402e-06
 123    3.7939341903527e-06
 124    -2.1206295295692e-07
 125    -2.9669261505596e-07
 126    1.0918381772672e-07
 127    2.6832302174404e-07
 128    -4.5950853309719e-07
 129    -1.0290593422532e-06
 130    -8.6334523032368e-06
 131    5.9820171546663e-05
 132    -6.8082245485695e-07
 133    6.6137003187206e-08
 134    3.3372895551187e-06
 135    -7.4239207121432e-06
 136    -7.5399726529781e-06
 137    -9.0972620023738e-05
 138    2.6758796250605e-06
 139    1.7194463956919e-06
 140    -3.6517899874825e-08
 141    4.8751052953574e-07
 142    -2.8852887904584e-07
 143    -6.7894473914685e-07
 144    -5.2011119826508e-06
 145    3.523124850443e-05
 146    1.9456768510171e-07
 147    1.6829089435763e-07
 148     -3.7178206832e-07
 149    1.8889222735743e-05
 150    -7.6740729305209e-06
 151    -3.8567318057109e-06
 152    -8.0743046081038e-07
 153    -4.6037330241921e-07
 154    6.9894750443189e-08
 155    7.5017735056262e-07
 156    -8.8302932116909e-07
 157    1.1078420030791e-09
 158    4.6475789719161e-07
 159    1.6263950224201e-06
 160    5.0521540188258e-07
 161    -9.2138369081841e-08
 162    -2.7776069767928e-07
 163    -6.4497437058293e-06
 164    -5.1720820510542e-09
 165    4.7440986710667e-07
 166    4.6813488881304e-07
 167    -3.0700900850153e-07
 168    3.8690571550113e-08
 169    -1.7274458646676e-07
 170    3.448971461277e-07
 171    3.3937956515476e-08
 172    -4.6579175732717e-07
 173    -1.9615903374963e-07
 174    -5.162257800407e-07
 175    -2.3498184016526e-07
 176    4.8895014632773e-07
 177    -1.7813861966327e-06
 178    2.1102701265711e-06
 179    -1.4668477206092e-06
 180    1.1504009791464e-07
 181    2.2754418069381e-08
 182    1.2839456469659e-07
 183    -4.5937241681866e-07
 184    6.3744753672725e-08
 185    -1.8228078706071e-07
 186    -2.2893955017448e-06
 187    -3.2369784342862e-06
 188    6.7181198793896e-09
 189    1.7731248694623e-07
 190    1.4106515670868e-06
 191    2.2467612185293e-06
 192    1.0228783037381e-06
 193    -2.4751017788004e-06
 194    9.5264521697283e-08
 195    -1.5717222638872e-07
 196    1.5249613941627e-07
 197    2.0162649189293e-07
 198    -1.6311627355305e-07
 199    -4.2545763600212e-07
 200    -9.7009408944828e-07
 201    1.3313602529129e-07
 202    3.3080919274055e-06
 203    -1.2224955703787e-06
 204    -1.0249193778804e-07
 205    -6.8565445250266e-07
 206    -2.4178008248758e-06
 207    1.1857272573695e-07
 208    -6.873737426082e-06
 209    1.0176668385631e-06
 210    -4.7596461291438e-06
 211     4.97124205116e-07
 212    2.4599814569065e-06
 213    -4.2052437058997e-07
 214    -1.9251375373789e-06
 215    -7.4023647253419e-08
 216    -1.1929350303042e-06
 217    1.0583183663554e-07
 218    3.9132468883936e-07
 219    2.8476843293694e-07
 220    1.3700668327729e-06
 221    -1.0468851066343e-07
 222    -3.675957343642e-06
 223    -6.284227424212e-05
 224    1.1151575491294e-06
 225    -3.9255017473567e-06
 226    4.1505388471037e-06
 227    -1.0967766053034e-05
 228    2.0144025866017e-05
 229    -7.5632693919194e-05
 230    -1.9421491773896e-06
 231    -3.3947743180091e-06
 232    -8.6810819324445e-07
 233    1.4002118391999e-06
 234    2.1357354446264e-06
 235    -1.0835184846985e-06
 236    -1.0176161464495e-05
 237    7.4023355310151e-05
 238    1.6197722773565e-08
 239    5.5326327377192e-06
 240    2.3432204635361e-06
 241    -4.8260897190799e-05
 242    -1.049251475069e-05
 243    -5.6072482045912e-05
 244    1.2376739514435e-06
 245    5.216257138269e-06
 246    -3.8166273067584e-07
 247    2.5776360370093e-06
 248    1.4957201904992e-07
 249    -4.7200296886002e-06
 250    9.4877913212953e-06
 251    -3.8995258219782e-06
 252    -3.0658254187079e-05
 253    0.00024902064393585
 254    4.5092178732878e-07
 255    -1.6138278505628e-06
 256    9.4091929069394e-06
 257    8.9763101334582e-05
 258    6.254562316466e-05
 259    -0.00026888678893358
 260    3.5915306791329e-06
 261    -1.2290872804008e-05
 262    -2.4597196721843e-06
 263    8.8376722994149e-06
 264    1.1993164968999e-06
 265    -7.4257334137556e-07
 266    2.6464071751456e-05
 267    -9.8288528367082e-06
 268    2.1047919473971e-05
 269    -6.8841531629791e-05
 270    -8.1566629658827e-05
 271    0.0030226812825213
 272    4.5961051274397e-05
 273    -0.00018277527809598
 274    0.00010385663200573
 275    0.0022451519858329
 276    0.00063472804310275
 277    -0.0030986675859213
 278    0.00011021433926595
 279    -0.00025988781775337
 280    0.00017289419573056