[Molden Format]
made by pyscf v[2.0.1]
[Atoms] (AU)
C   1   6     0.69100024066471     0.64692934207205    -3.48223131169301
H   2   1     2.68052439830868     1.13355088658700    -3.25784032593313
C   3   6    -0.36286361513219     0.85440132524594    -5.97030179418974
H   4   1    -2.35448549047279     0.36322488579172    -6.17995817793143
C   5   6     0.93697958957450     1.61209284601821    -8.05828437677121
H   6   1     1.09182490265505     3.62435627880799    -8.46787148771875
C   7   6     2.13423629966321    -0.10744231105711    -9.78050935942977
H   8   1     1.96390963868834    -2.11762116447114    -9.34474333768613
H   9   1     1.55630230933075    -1.92953025305990    12.99630010416247
C   10   6     0.75233899775814    -2.21270439606481    11.10705728102219
H   11   1    -0.43433408177274    -3.90944857546550    11.22216085340412
C   12   6     2.86362581178706    -2.63237380607947     9.17926416456045
H   13   1     4.39038949912609    -1.24955421540245     9.49899813497433
H   14   1     3.74629220191363    -4.48798724300892     9.47414880959024
C   15   6     2.02478325613682    -2.42177285709634     6.44560829588644
C   16   6     3.88048732735477    -3.58795445234514     4.61402886975252
C   17   6    -0.18412382258602    -1.30464291234259     5.76021113872346
C   18   6    -2.10044360464350    -0.26837831858460     7.71610340967100
C   19   6    -3.08956938670431     2.35282328359417     6.88693925039594
C   20   6    -4.37372924086464    -2.09766595989678     7.93610724222001
C   21   6    -0.83850430601230     0.06372213486173    10.33002307638377
H   22   1     0.38411922151109     1.74281358582432    10.27380136542181
H   23   1    -2.30980003007874     0.45460143924521    11.73986301809809
H   24   1     4.58527064644668    -5.38706904487420     5.36778158031719
H   25   1     5.54944938085014    -2.37631462192748     4.35398898413318
H   26   1     3.06633019150423    -3.94118377050688     2.75255466040884
H   27   1    -4.17727778763735     2.26573369139522     5.12914900961283
H   28   1    -1.52662344944051     3.68001877445626     6.59540397144508
H   29   1    -4.32916174397830     3.13643051467482     8.35225460090378
H   30   1    -5.32329548508442    -2.36691813602939     6.11583672749896
H   31   1    -5.77989366602257    -1.33896741843465     9.25748940450990
H   32   1    -3.79310905208926    -3.96389819310853     8.61386170102686
C   33   6    -1.01100794811226    -1.06331657314144     3.11929490449947
C   34   6     0.37686231036534    -0.33275864505552     1.09165013605873
H   35   1    -3.01671213906703    -1.40297922279997     2.77827895090944
C   36   6    -0.64382707979370    -0.11591880174385    -1.42063131251064
H   37   1     2.35569259782137     0.17174499283897     1.33641070251401
H   38   1    -2.63317482980319    -0.60229203511219    -1.66119700387645
C   39   6     3.44427310754987     0.55955226130243   -11.88185544133447
C   40   6     4.59546774580895    -1.33837842065929   -13.51881378425706
H   41   1     3.68484150802705     2.52824088205540   -12.42422090941845
O   42   8     5.79494197127018    -0.87330187518197   -15.43343894779829
H   43   1     4.30216020100717    -3.32855150553013   -12.89162904717628
[GTO]
1 0
 s    6 1.00
             3047.5249  0.0018347001629433
             457.36951    0.01403730124668
             103.94869   0.068842606114048
             29.210155    0.23218442062076
              9.286663    0.46794134155879
              3.163927    0.36231203217765
 s    3 1.00
             7.8682724   -0.11933240861517
             1.8812885   -0.16085421161283
             0.5442493     1.1434564825515
 s    1 1.00
             0.1687144                   1
 p    3 1.00
             7.8682724   0.068999095584993
             1.8812885    0.31642397975315
             0.5442493    0.74430825237435
 p    1 1.00
             0.1687144                   1
 d    1 1.00
                   0.8                   1

2 0
 s    3 1.00
             18.731137    0.03349459952309
             2.8253937    0.23472694665786
             0.6401217    0.81375731841339
 s    1 1.00
             0.1612778                   1

3 0
 s    6 1.00
             3047.5249  0.0018347001629433
             457.36951    0.01403730124668
             103.94869   0.068842606114048
             29.210155    0.23218442062076
              9.286663    0.46794134155879
              3.163927    0.36231203217765
 s    3 1.00
             7.8682724   -0.11933240861517
             1.8812885   -0.16085421161283
             0.5442493     1.1434564825515
 s    1 1.00
             0.1687144                   1
 p    3 1.00
             7.8682724   0.068999095584993
             1.8812885    0.31642397975315
             0.5442493    0.74430825237435
 p    1 1.00
             0.1687144                   1
 d    1 1.00
                   0.8                   1

4 0
 s    3 1.00
             18.731137    0.03349459952309
             2.8253937    0.23472694665786
             0.6401217    0.81375731841339
 s    1 1.00
             0.1612778                   1

5 0
 s    6 1.00
             3047.5249  0.0018347001629433
             457.36951    0.01403730124668
             103.94869   0.068842606114048
             29.210155    0.23218442062076
              9.286663    0.46794134155879
              3.163927    0.36231203217765
 s    3 1.00
             7.8682724   -0.11933240861517
             1.8812885   -0.16085421161283
             0.5442493     1.1434564825515
 s    1 1.00
             0.1687144                   1
 p    3 1.00
             7.8682724   0.068999095584993
             1.8812885    0.31642397975315
             0.5442493    0.74430825237435
 p    1 1.00
             0.1687144                   1
 d    1 1.00
                   0.8                   1

6 0
 s    3 1.00
             18.731137    0.03349459952309
             2.8253937    0.23472694665786
             0.6401217    0.81375731841339
 s    1 1.00
             0.1612778                   1

7 0
 s    6 1.00
             3047.5249  0.0018347001629433
             457.36951    0.01403730124668
             103.94869   0.068842606114048
             29.210155    0.23218442062076
              9.286663    0.46794134155879
              3.163927    0.36231203217765
 s    3 1.00
             7.8682724   -0.11933240861517
             1.8812885   -0.16085421161283
             0.5442493     1.1434564825515
 s    1 1.00
             0.1687144                   1
 p    3 1.00
             7.8682724   0.068999095584993
             1.8812885    0.31642397975315
             0.5442493    0.74430825237435
 p    1 1.00
             0.1687144                   1
 d    1 1.00
                   0.8                   1

8 0
 s    3 1.00
             18.731137    0.03349459952309
             2.8253937    0.23472694665786
             0.6401217    0.81375731841339
 s    1 1.00
             0.1612778                   1

9 0
 s    3 1.00
             18.731137    0.03349459952309
             2.8253937    0.23472694665786
             0.6401217    0.81375731841339
 s    1 1.00
             0.1612778                   1

10 0
 s    6 1.00
             3047.5249  0.0018347001629433
             457.36951    0.01403730124668
             103.94869   0.068842606114048
             29.210155    0.23218442062076
              9.286663    0.46794134155879
              3.163927    0.36231203217765
 s    3 1.00
             7.8682724   -0.11933240861517
             1.8812885   -0.16085421161283
             0.5442493     1.1434564825515
 s    1 1.00
             0.1687144                   1
 p    3 1.00
             7.8682724   0.068999095584993
             1.8812885    0.31642397975315
             0.5442493    0.74430825237435
 p    1 1.00
             0.1687144                   1
 d    1 1.00
                   0.8                   1

11 0
 s    3 1.00
             18.731137    0.03349459952309
             2.8253937    0.23472694665786
             0.6401217    0.81375731841339
 s    1 1.00
             0.1612778                   1

12 0
 s    6 1.00
             3047.5249  0.0018347001629433
             457.36951    0.01403730124668
             103.94869   0.068842606114048
             29.210155    0.23218442062076
              9.286663    0.46794134155879
              3.163927    0.36231203217765
 s    3 1.00
             7.8682724   -0.11933240861517
             1.8812885   -0.16085421161283
             0.5442493     1.1434564825515
 s    1 1.00
             0.1687144                   1
 p    3 1.00
             7.8682724   0.068999095584993
             1.8812885    0.31642397975315
             0.5442493    0.74430825237435
 p    1 1.00
             0.1687144                   1
 d    1 1.00
                   0.8                   1

13 0
 s    3 1.00
             18.731137    0.03349459952309
             2.8253937    0.23472694665786
             0.6401217    0.81375731841339
 s    1 1.00
             0.1612778                   1

14 0
 s    3 1.00
             18.731137    0.03349459952309
             2.8253937    0.23472694665786
             0.6401217    0.81375731841339
 s    1 1.00
             0.1612778                   1

15 0
 s    6 1.00
             3047.5249  0.0018347001629433
             457.36951    0.01403730124668
             103.94869   0.068842606114048
             29.210155    0.23218442062076
              9.286663    0.46794134155879
              3.163927    0.36231203217765
 s    3 1.00
             7.8682724   -0.11933240861517
             1.8812885   -0.16085421161283
             0.5442493     1.1434564825515
 s    1 1.00
             0.1687144                   1
 p    3 1.00
             7.8682724   0.068999095584993
             1.8812885    0.31642397975315
             0.5442493    0.74430825237435
 p    1 1.00
             0.1687144                   1
 d    1 1.00
                   0.8                   1

16 0
 s    6 1.00
             3047.5249  0.0018347001629433
             457.36951    0.01403730124668
             103.94869   0.068842606114048
             29.210155    0.23218442062076
              9.286663    0.46794134155879
              3.163927    0.36231203217765
 s    3 1.00
             7.8682724   -0.11933240861517
             1.8812885   -0.16085421161283
             0.5442493     1.1434564825515
 s    1 1.00
             0.1687144                   1
 p    3 1.00
             7.8682724   0.068999095584993
             1.8812885    0.31642397975315
             0.5442493    0.74430825237435
 p    1 1.00
             0.1687144                   1
 d    1 1.00
                   0.8                   1

17 0
 s    6 1.00
             3047.5249  0.0018347001629433
             457.36951    0.01403730124668
             103.94869   0.068842606114048
             29.210155    0.23218442062076
              9.286663    0.46794134155879
              3.163927    0.36231203217765
 s    3 1.00
             7.8682724   -0.11933240861517
             1.8812885   -0.16085421161283
             0.5442493     1.1434564825515
 s    1 1.00
             0.1687144                   1
 p    3 1.00
             7.8682724   0.068999095584993
             1.8812885    0.31642397975315
             0.5442493    0.74430825237435
 p    1 1.00
             0.1687144                   1
 d    1 1.00
                   0.8                   1

18 0
 s    6 1.00
             3047.5249  0.0018347001629433
             457.36951    0.01403730124668
             103.94869   0.068842606114048
             29.210155    0.23218442062076
              9.286663    0.46794134155879
              3.163927    0.36231203217765
 s    3 1.00
             7.8682724   -0.11933240861517
             1.8812885   -0.16085421161283
             0.5442493     1.1434564825515
 s    1 1.00
             0.1687144                   1
 p    3 1.00
             7.8682724   0.068999095584993
             1.8812885    0.31642397975315
             0.5442493    0.74430825237435
 p    1 1.00
             0.1687144                   1
 d    1 1.00
                   0.8                   1

19 0
 s    6 1.00
             3047.5249  0.0018347001629433
             457.36951    0.01403730124668
             103.94869   0.068842606114048
             29.210155    0.23218442062076
              9.286663    0.46794134155879
              3.163927    0.36231203217765
 s    3 1.00
             7.8682724   -0.11933240861517
             1.8812885   -0.16085421161283
             0.5442493     1.1434564825515
 s    1 1.00
             0.1687144                   1
 p    3 1.00
             7.8682724   0.068999095584993
             1.8812885    0.31642397975315
             0.5442493    0.74430825237435
 p    1 1.00
             0.1687144                   1
 d    1 1.00
                   0.8                   1

20 0
 s    6 1.00
             3047.5249  0.0018347001629433
             457.36951    0.01403730124668
             103.94869   0.068842606114048
             29.210155    0.23218442062076
              9.286663    0.46794134155879
              3.163927    0.36231203217765
 s    3 1.00
             7.8682724   -0.11933240861517
             1.8812885   -0.16085421161283
             0.5442493     1.1434564825515
 s    1 1.00
             0.1687144                   1
 p    3 1.00
             7.8682724   0.068999095584993
             1.8812885    0.31642397975315
             0.5442493    0.74430825237435
 p    1 1.00
             0.1687144                   1
 d    1 1.00
                   0.8                   1

21 0
 s    6 1.00
             3047.5249  0.0018347001629433
             457.36951    0.01403730124668
             103.94869   0.068842606114048
             29.210155    0.23218442062076
              9.286663    0.46794134155879
              3.163927    0.36231203217765
 s    3 1.00
             7.8682724   -0.11933240861517
             1.8812885   -0.16085421161283
             0.5442493     1.1434564825515
 s    1 1.00
             0.1687144                   1
 p    3 1.00
             7.8682724   0.068999095584993
             1.8812885    0.31642397975315
             0.5442493    0.74430825237435
 p    1 1.00
             0.1687144                   1
 d    1 1.00
                   0.8                   1

22 0
 s    3 1.00
             18.731137    0.03349459952309
             2.8253937    0.23472694665786
             0.6401217    0.81375731841339
 s    1 1.00
             0.1612778                   1

23 0
 s    3 1.00
             18.731137    0.03349459952309
             2.8253937    0.23472694665786
             0.6401217    0.81375731841339
 s    1 1.00
             0.1612778                   1

24 0
 s    3 1.00
             18.731137    0.03349459952309
             2.8253937    0.23472694665786
             0.6401217    0.81375731841339
 s    1 1.00
             0.1612778                   1

25 0
 s    3 1.00
             18.731137    0.03349459952309
             2.8253937    0.23472694665786
             0.6401217    0.81375731841339
 s    1 1.00
             0.1612778                   1

26 0
 s    3 1.00
             18.731137    0.03349459952309
             2.8253937    0.23472694665786
             0.6401217    0.81375731841339
 s    1 1.00
             0.1612778                   1

27 0
 s    3 1.00
             18.731137    0.03349459952309
             2.8253937    0.23472694665786
             0.6401217    0.81375731841339
 s    1 1.00
             0.1612778                   1

28 0
 s    3 1.00
             18.731137    0.03349459952309
             2.8253937    0.23472694665786
             0.6401217    0.81375731841339
 s    1 1.00
             0.1612778                   1

29 0
 s    3 1.00
             18.731137    0.03349459952309
             2.8253937    0.23472694665786
             0.6401217    0.81375731841339
 s    1 1.00
             0.1612778                   1

30 0
 s    3 1.00
             18.731137    0.03349459952309
             2.8253937    0.23472694665786
             0.6401217    0.81375731841339
 s    1 1.00
             0.1612778                   1

31 0
 s    3 1.00
             18.731137    0.03349459952309
             2.8253937    0.23472694665786
             0.6401217    0.81375731841339
 s    1 1.00
             0.1612778                   1

32 0
 s    3 1.00
             18.731137    0.03349459952309
             2.8253937    0.23472694665786
             0.6401217    0.81375731841339
 s    1 1.00
             0.1612778                   1

33 0
 s    6 1.00
             3047.5249  0.0018347001629433
             457.36951    0.01403730124668
             103.94869   0.068842606114048
             29.210155    0.23218442062076
              9.286663    0.46794134155879
              3.163927    0.36231203217765
 s    3 1.00
             7.8682724   -0.11933240861517
             1.8812885   -0.16085421161283
             0.5442493     1.1434564825515
 s    1 1.00
             0.1687144                   1
 p    3 1.00
             7.8682724   0.068999095584993
             1.8812885    0.31642397975315
             0.5442493    0.74430825237435
 p    1 1.00
             0.1687144                   1
 d    1 1.00
                   0.8                   1

34 0
 s    6 1.00
             3047.5249  0.0018347001629433
             457.36951    0.01403730124668
             103.94869   0.068842606114048
             29.210155    0.23218442062076
              9.286663    0.46794134155879
              3.163927    0.36231203217765
 s    3 1.00
             7.8682724   -0.11933240861517
             1.8812885   -0.16085421161283
             0.5442493     1.1434564825515
 s    1 1.00
             0.1687144                   1
 p    3 1.00
             7.8682724   0.068999095584993
             1.8812885    0.31642397975315
             0.5442493    0.74430825237435
 p    1 1.00
             0.1687144                   1
 d    1 1.00
                   0.8                   1

35 0
 s    3 1.00
             18.731137    0.03349459952309
             2.8253937    0.23472694665786
             0.6401217    0.81375731841339
 s    1 1.00
             0.1612778                   1

36 0
 s    6 1.00
             3047.5249  0.0018347001629433
             457.36951    0.01403730124668
             103.94869   0.068842606114048
             29.210155    0.23218442062076
              9.286663    0.46794134155879
              3.163927    0.36231203217765
 s    3 1.00
             7.8682724   -0.11933240861517
             1.8812885   -0.16085421161283
             0.5442493     1.1434564825515
 s    1 1.00
             0.1687144                   1
 p    3 1.00
             7.8682724   0.068999095584993
             1.8812885    0.31642397975315
             0.5442493    0.74430825237435
 p    1 1.00
             0.1687144                   1
 d    1 1.00
                   0.8                   1

37 0
 s    3 1.00
             18.731137    0.03349459952309
             2.8253937    0.23472694665786
             0.6401217    0.81375731841339
 s    1 1.00
             0.1612778                   1

38 0
 s    3 1.00
             18.731137    0.03349459952309
             2.8253937    0.23472694665786
             0.6401217    0.81375731841339
 s    1 1.00
             0.1612778                   1

39 0
 s    6 1.00
             3047.5249  0.0018347001629433
             457.36951    0.01403730124668
             103.94869   0.068842606114048
             29.210155    0.23218442062076
              9.286663    0.46794134155879
              3.163927    0.36231203217765
 s    3 1.00
             7.8682724   -0.11933240861517
             1.8812885   -0.16085421161283
             0.5442493     1.1434564825515
 s    1 1.00
             0.1687144                   1
 p    3 1.00
             7.8682724   0.068999095584993
             1.8812885    0.31642397975315
             0.5442493    0.74430825237435
 p    1 1.00
             0.1687144                   1
 d    1 1.00
                   0.8                   1

40 0
 s    6 1.00
             3047.5249  0.0018347001629433
             457.36951    0.01403730124668
             103.94869   0.068842606114048
             29.210155    0.23218442062076
              9.286663    0.46794134155879
              3.163927    0.36231203217765
 s    3 1.00
             7.8682724   -0.11933240861517
             1.8812885   -0.16085421161283
             0.5442493     1.1434564825515
 s    1 1.00
             0.1687144                   1
 p    3 1.00
             7.8682724   0.068999095584993
             1.8812885    0.31642397975315
             0.5442493    0.74430825237435
 p    1 1.00
             0.1687144                   1
 d    1 1.00
                   0.8                   1

41 0
 s    3 1.00
             18.731137    0.03349459952309
             2.8253937    0.23472694665786
             0.6401217    0.81375731841339
 s    1 1.00
             0.1612778                   1

42 0
 s    6 1.00
             5484.6717   0.001831099805527
             825.23495   0.013950098518422
             188.04696    0.06844509273075
               52.9645    0.23271427528445
              16.89757    0.47019295006289
             5.7996353    0.35852086192309
 s    3 1.00
             15.539616   -0.11077750382508
             3.5999336   -0.14802630511126
             1.0137618     1.1307670390447
 s    1 1.00
             0.2700058                   1
 p    3 1.00
             15.539616   0.070874299543311
             3.5999336    0.33975279781076
             1.0137618    0.72715859531445
 p    1 1.00
             0.2700058                   1
 d    1 1.00
                   0.8                   1

43 0
 s    3 1.00
             18.731137    0.03349459952309
             2.8253937    0.23472694665786
             0.6401217    0.81375731841339
 s    1 1.00
             0.1612778                   1

[5d]
[7f]
[9g]

[MO]
 Sym= A
 Ene=               0
 Spin= Alpha
 Occup=    1.00000
   1    7.9100848820254e-07
   2    2.1088258400621e-05
   3    -1.8728941675726e-05
   4    2.4541179145531e-06
   5    5.5398244100182e-06
   6    -1.6988471753239e-05
   7    -2.3030089514174e-05
   8    -8.3291193908522e-05
   9    0.00036565152882446
  10    -4.0386999562698e-07
  11    -1.088495466531e-05
  12    -2.5780867508009e-06
  13    -1.3598813824658e-05
  14    7.4036638344605e-06
  15    1.3881331294085e-05
  16    -1.8510383464632e-05
  17    -4.607150936779e-06
  18    -0.00016223740509201
  19    -0.00041976626863597
  20    -5.8741693290328e-05
  21    9.4985319818714e-06
  22    7.6929256384959e-05
  23    -0.00016074502961099
  24    9.5705337836223e-05
  25    0.0006143351917871
  26    -2.0587854356631e-05
  27    2.2797460844707e-05
  28    -8.5678357040394e-06
  29    -4.1583022602838e-05
  30    3.6252902827098e-06
  31    1.0496000607903e-05
  32    -2.8924614439602e-05
  33    -6.6615515840379e-05
  34    -0.00033740622418278
  35    0.0043001151489943
  36    9.0475495181145e-05
  37    -4.7883941713241e-05
  38    -0.00016521298282974
  39    0.00041674308129542
  40    -0.0018894275317865
  41    -0.00054660996930656
  42    2.7006792415375e-05
  43    -0.00010385990603379
  44    6.9939554147403e-05
  45    -3.0258157393355e-05
  46    -4.9726879518753e-05
  47    3.8500356491772e-06
  48    0.00025896159652304
  49    1.9709494818024e-05
  50    -0.00017205078804291
  51    -0.003478660716647
  52    -0.00020373521060447
  53    0.00023767713337134
  54    0.00031055849523972
  55     0.001573523300986
  56    -0.0025071622023413
  57    -0.0022378476237273
  58    1.7090082775481e-05
  59    -3.7553295890702e-05
  60    -0.0001862026071437
  61    -2.3345018653755e-05
  62    0.00011659268780095
  63    -0.00030255576806325
  64    -8.3110276761442e-05
  65    2.2738183199397e-07
  66    3.9767991312085e-07
  67    5.1645271197576e-08
  68    5.2637654307475e-07
  69    -2.8771229000109e-06
  70    -2.620747535811e-07
  71    3.6314796272801e-07
  72    -1.0602518981036e-07
  73    -2.939280071365e-07
  74    -1.446231246827e-06
  75    -1.8786370997397e-07
  76    4.9970485021382e-08
  77    1.2307924824484e-07
  78    -4.8309457165433e-08
  79    -7.0110398892221e-08
  80    1.0128096331233e-07
  81    -8.934131178549e-08
  82    -8.3308444592281e-08
  83    3.854246921373e-09
  84    1.201731059742e-07
  85    1.2454253221705e-05
  86    -5.7973511115571e-07
  87    -8.9374515449345e-08
  88    -7.4749223606792e-07
  89    -3.2975366790437e-06
  90    4.5646622777802e-06
  91    -2.789552900422e-06
  92    -1.7607210741219e-07
  93    2.933273968649e-07
  94    -3.1166144960253e-07
  95    -2.614403610608e-08
  96    1.7069408058478e-07
  97    -5.0949803881555e-07
  98    -4.1378056147208e-07
  99    -3.7379102745514e-08
 100    8.743198608833e-07
 101    9.4873714258027e-09
 102    1.1076128794922e-06
 103    -1.4043114221228e-05
 104    -6.4034989049565e-07
 105    3.3998236478125e-07
 106    5.2454737856054e-07
 107    1.8591883069193e-05
 108    -1.8017270365394e-05
 109    -2.8623929194902e-05
 110    5.5924142260784e-07
 111    4.9500166399412e-07
 112    -2.339790443285e-07
 113    -3.977768579843e-07
 114    4.8487583785753e-07
 115    4.8945206124493e-07
 116    4.3789763370364e-06
 117    -3.5394235544212e-05
 118    6.5361682597436e-07
 119    -1.0606806409999e-06
 120    -6.8442270266801e-07
 121    7.9688324840804e-06
 122    -6.9840911292499e-07
 123    -2.3556725541122e-06
 124    5.6210367475156e-08
 125    1.7541845740891e-07
 126    1.2140483130102e-07
 127    -5.7723091557334e-08
 128    3.4968351048167e-07
 129    8.6612249195349e-07
 130    8.5813865305011e-06
 131    -4.7829240621725e-05
 132    8.3841128981085e-08
 133    1.0542408322015e-06
 134    -3.5497376810263e-06
 135    2.4739802019852e-05
 136    -9.9420510620273e-07
 137    7.6931981638109e-05
 138    -2.4049928193543e-06
 139    -1.4359253327732e-06
 140    -3.5155468628444e-07
 141    -4.1691242799896e-07
 142    -1.5085310526957e-07
 143    4.5565313158855e-07
 144    3.3377943979756e-06
 145    -1.8027876480715e-05
 146    -4.834585631209e-07
 147    -5.8998609974246e-07
 148    -1.203287853259e-07
 149    -1.114340176672e-05
 150    6.338820029343e-06
 151    2.5845839727746e-06
 152    1.0105584608289e-06
 153    3.3784055198157e-07
 154    9.7186789701204e-08
 155    -6.735712241498e-07
 156    7.1523269937184e-07
 157    -2.7306592484524e-08
 158    -9.9182913472219e-07
 159    -1.2106536430357e-06
 160    -7.4782046164647e-07
 161    2.6931633134349e-07
 162    1.5723438231713e-07
 163    6.1132677068753e-06
 164    -1.3887000122179e-07
 165    -7.9757875458084e-07
 166    -4.0195769739324e-07
 167    1.1348796992362e-07
 168    3.7468501319615e-09
 169    1.0925128272696e-07
 170    -2.6679766120752e-07
 171    -5.6436761335365e-08
 172    4.7557250632934e-07
 173    1.7257529225199e-06
 174    7.7504053262905e-07
 175    2.1969752080137e-07
 176    -7.7800638859862e-07
 177    3.1847894941234e-07
 178    -1.3583725300177e-06
 179    1.8824437205775e-06
 180    -1.416636450649e-07
 181    -1.8737198888568e-07
 182    -1.055137315086e-08
 183    3.5797444856422e-07
 184    -1.7015544105305e-07
 185    2.7147490089811e-07
 186    2.9621773139934e-06
 187    -2.1649936658131e-06
 188    1.7987535739405e-07
 189    -1.4050629427258e-07
 190    -1.1558905747116e-06
 191    -2.4362613836717e-06
 192    -8.5047211046382e-07
 193    5.4222736508808e-06
 194    -3.372416473087e-07
 195    4.5977315721271e-08
 196    -1.6052461567584e-07
 197    -6.9538421183793e-08
 198    9.1315133305876e-08
 199    7.6835568852895e-07
 200    1.3581060773351e-06
 201    -1.2053514656537e-07
 202    -3.4146011691041e-06
 203    1.6206074206236e-06
 204    1.7681094162046e-06
 205    3.9194229624109e-07
 206    2.5515351640429e-06
 207    -1.4076102061074e-06
 208    1.1911495162403e-05
 209    -1.0934800142405e-06
 210    4.1673057711506e-06
 211    -4.5438782975421e-07
 212    -2.6765011947938e-06
 213    3.1511939739036e-07
 214    2.4444796229823e-06
 215    5.3999474265607e-07
 216    -5.6683079631937e-07
 217    -3.8299125437782e-07
 218    -1.1077026062522e-06
 219    -2.2354641422412e-07
 220    -1.001222815762e-06
 221    8.3869784491699e-07
 222    7.8860641932585e-06
 223    2.810650021618e-06
 224    -8.7412884885839e-07
 225    2.1802668054128e-06
 226    -2.8866574227898e-06
 227    -1.4041416038152e-05
 228    -2.3999240758349e-05
 229    9.1660475051265e-05
 230    1.1037701777135e-06
 231    3.9029062196702e-06
 232    2.0716823185852e-06
 233    -1.7244915224609e-06
 234    -2.7896168855728e-06
 235    9.6630715570187e-07
 236    1.1665067248381e-05
 237    -2.3300757193553e-05
 238    1.5324228023906e-06
 239    -5.2222359402141e-06
 240    -5.2974680856304e-06
 241    2.0112829978538e-05
 242    6.141975175811e-06
 243    8.9473900137982e-05
 244    -1.7787455964058e-06
 245    -6.6449801854357e-06
 246    -1.8795628085699e-06
 247    -2.4597828258952e-06
 248    -1.6011394665791e-06
 249    3.8491293769561e-06
 250    -1.0604001770948e-05
 251    4.2003518844549e-06
 252    2.9043586797579e-05
 253    -0.00023679175394612
 254    -3.5200425594294e-06
 255    6.9254064192749e-06
 256    -6.4244545343046e-06
 257    -0.00010321691365278
 258    -0.00010512979450861
 259    0.00023051857887716
 260    -1.7136187570009e-06
 261    1.1789818968473e-05
 262    5.3378031762888e-06
 263    -7.2665903815785e-06
 264    -6.0968026994411e-06
 265    4.7798309617647e-06
 266    -2.6765234202371e-05
 267    8.1642522979185e-06
 268    -3.8767309568765e-05
 269    6.9206888570843e-05
 270    8.4073286345136e-05
 271    -0.003057824759108
 272    3.6463115362856e-05
 273    0.00020804024233249
 274    -4.4554398682247e-05
 275    -0.0020209494375015
 276    -0.00057109027963647
 277    0.0032374196267471
 278    -0.00022027356920671
 279    0.00020535466279849