[Molden Format]
made by pyscf v[2.0.1]
[Atoms] (AU)
C   1   6     0.69100024066471     0.64692934207205    -3.48223131169301
H   2   1     2.68052439830868     1.13355088658700    -3.25784032593313
C   3   6    -0.36286361513219     0.85440132524594    -5.97030179418974
H   4   1    -2.35448549047279     0.36322488579172    -6.17995817793143
C   5   6     0.93697958957450     1.61209284601821    -8.05828437677121
H   6   1     0.88481995546627     3.59633991549139    -8.60690604548455
C   7   6     2.39466048338875    -0.07229584893402    -9.60563204708460
H   8   1     2.43004158789144    -2.05446799383120    -9.03164251308345
H   9   1     1.55630230933075    -1.92953025305990    12.99630010416247
C   10   6     0.75233899775814    -2.21270439606481    11.10705728102219
H   11   1    -0.43433408177274    -3.90944857546550    11.22216085340412
C   12   6     2.86362581178706    -2.63237380607947     9.17926416456045
H   13   1     4.39038949912609    -1.24955421540245     9.49899813497433
H   14   1     3.74629220191363    -4.48798724300892     9.47414880959024
C   15   6     2.02478325613682    -2.42177285709634     6.44560829588644
C   16   6     3.88048732735477    -3.58795445234514     4.61402886975252
C   17   6    -0.18412382258602    -1.30464291234259     5.76021113872346
C   18   6    -2.10044360464350    -0.26837831858460     7.71610340967100
C   19   6    -3.08956938670431     2.35282328359417     6.88693925039594
C   20   6    -4.37372924086464    -2.09766595989678     7.93610724222001
C   21   6    -0.83850430601230     0.06372213486173    10.33002307638377
H   22   1     0.38411922151109     1.74281358582432    10.27380136542181
H   23   1    -2.30980003007874     0.45460143924521    11.73986301809809
H   24   1     4.58527064644668    -5.38706904487420     5.36778158031719
H   25   1     5.54944938085014    -2.37631462192748     4.35398898413318
H   26   1     3.06633019150423    -3.94118377050688     2.75255466040884
H   27   1    -4.17727778763735     2.26573369139522     5.12914900961283
H   28   1    -1.52662344944051     3.68001877445626     6.59540397144508
H   29   1    -4.32916174397830     3.13643051467482     8.35225460090378
H   30   1    -5.32329548508442    -2.36691813602939     6.11583672749896
H   31   1    -5.77989366602257    -1.33896741843465     9.25748940450990
H   32   1    -3.79310905208926    -3.96389819310853     8.61386170102686
C   33   6    -1.01100794811226    -1.06331657314144     3.11929490449947
C   34   6     0.37686231036534    -0.33275864505552     1.09165013605873
H   35   1    -3.01671213906703    -1.40297922279997     2.77827895090944
C   36   6    -0.64382707979370    -0.11591880174385    -1.42063131251064
H   37   1     2.35569259782137     0.17174499283897     1.33641070251401
H   38   1    -2.63317482980319    -0.60229203511219    -1.66119700387645
C   39   6     3.71533383510959     0.59576232705089   -11.69997054074953
C   40   6     5.14333780052268    -1.26490852400141   -13.15108433486960
H   41   1     3.75910290759049     2.53760054456126   -12.37459410036833
O   42   8     6.36836167706676    -0.79692659131490   -15.04874962161569
H   43   1     5.04579305514285    -3.22830651971947   -12.39231411193817
[GTO]
1 0
 s    6 1.00
             3047.5249  0.0018347001629433
             457.36951    0.01403730124668
             103.94869   0.068842606114048
             29.210155    0.23218442062076
              9.286663    0.46794134155879
              3.163927    0.36231203217765
 s    3 1.00
             7.8682724   -0.11933240861517
             1.8812885   -0.16085421161283
             0.5442493     1.1434564825515
 s    1 1.00
             0.1687144                   1
 p    3 1.00
             7.8682724   0.068999095584993
             1.8812885    0.31642397975315
             0.5442493    0.74430825237435
 p    1 1.00
             0.1687144                   1
 d    1 1.00
                   0.8                   1

2 0
 s    3 1.00
             18.731137    0.03349459952309
             2.8253937    0.23472694665786
             0.6401217    0.81375731841339
 s    1 1.00
             0.1612778                   1

3 0
 s    6 1.00
             3047.5249  0.0018347001629433
             457.36951    0.01403730124668
             103.94869   0.068842606114048
             29.210155    0.23218442062076
              9.286663    0.46794134155879
              3.163927    0.36231203217765
 s    3 1.00
             7.8682724   -0.11933240861517
             1.8812885   -0.16085421161283
             0.5442493     1.1434564825515
 s    1 1.00
             0.1687144                   1
 p    3 1.00
             7.8682724   0.068999095584993
             1.8812885    0.31642397975315
             0.5442493    0.74430825237435
 p    1 1.00
             0.1687144                   1
 d    1 1.00
                   0.8                   1

4 0
 s    3 1.00
             18.731137    0.03349459952309
             2.8253937    0.23472694665786
             0.6401217    0.81375731841339
 s    1 1.00
             0.1612778                   1

5 0
 s    6 1.00
             3047.5249  0.0018347001629433
             457.36951    0.01403730124668
             103.94869   0.068842606114048
             29.210155    0.23218442062076
              9.286663    0.46794134155879
              3.163927    0.36231203217765
 s    3 1.00
             7.8682724   -0.11933240861517
             1.8812885   -0.16085421161283
             0.5442493     1.1434564825515
 s    1 1.00
             0.1687144                   1
 p    3 1.00
             7.8682724   0.068999095584993
             1.8812885    0.31642397975315
             0.5442493    0.74430825237435
 p    1 1.00
             0.1687144                   1
 d    1 1.00
                   0.8                   1

6 0
 s    3 1.00
             18.731137    0.03349459952309
             2.8253937    0.23472694665786
             0.6401217    0.81375731841339
 s    1 1.00
             0.1612778                   1

7 0
 s    6 1.00
             3047.5249  0.0018347001629433
             457.36951    0.01403730124668
             103.94869   0.068842606114048
             29.210155    0.23218442062076
              9.286663    0.46794134155879
              3.163927    0.36231203217765
 s    3 1.00
             7.8682724   -0.11933240861517
             1.8812885   -0.16085421161283
             0.5442493     1.1434564825515
 s    1 1.00
             0.1687144                   1
 p    3 1.00
             7.8682724   0.068999095584993
             1.8812885    0.31642397975315
             0.5442493    0.74430825237435
 p    1 1.00
             0.1687144                   1
 d    1 1.00
                   0.8                   1

8 0
 s    3 1.00
             18.731137    0.03349459952309
             2.8253937    0.23472694665786
             0.6401217    0.81375731841339
 s    1 1.00
             0.1612778                   1

9 0
 s    3 1.00
             18.731137    0.03349459952309
             2.8253937    0.23472694665786
             0.6401217    0.81375731841339
 s    1 1.00
             0.1612778                   1

10 0
 s    6 1.00
             3047.5249  0.0018347001629433
             457.36951    0.01403730124668
             103.94869   0.068842606114048
             29.210155    0.23218442062076
              9.286663    0.46794134155879
              3.163927    0.36231203217765
 s    3 1.00
             7.8682724   -0.11933240861517
             1.8812885   -0.16085421161283
             0.5442493     1.1434564825515
 s    1 1.00
             0.1687144                   1
 p    3 1.00
             7.8682724   0.068999095584993
             1.8812885    0.31642397975315
             0.5442493    0.74430825237435
 p    1 1.00
             0.1687144                   1
 d    1 1.00
                   0.8                   1

11 0
 s    3 1.00
             18.731137    0.03349459952309
             2.8253937    0.23472694665786
             0.6401217    0.81375731841339
 s    1 1.00
             0.1612778                   1

12 0
 s    6 1.00
             3047.5249  0.0018347001629433
             457.36951    0.01403730124668
             103.94869   0.068842606114048
             29.210155    0.23218442062076
              9.286663    0.46794134155879
              3.163927    0.36231203217765
 s    3 1.00
             7.8682724   -0.11933240861517
             1.8812885   -0.16085421161283
             0.5442493     1.1434564825515
 s    1 1.00
             0.1687144                   1
 p    3 1.00
             7.8682724   0.068999095584993
             1.8812885    0.31642397975315
             0.5442493    0.74430825237435
 p    1 1.00
             0.1687144                   1
 d    1 1.00
                   0.8                   1

13 0
 s    3 1.00
             18.731137    0.03349459952309
             2.8253937    0.23472694665786
             0.6401217    0.81375731841339
 s    1 1.00
             0.1612778                   1

14 0
 s    3 1.00
             18.731137    0.03349459952309
             2.8253937    0.23472694665786
             0.6401217    0.81375731841339
 s    1 1.00
             0.1612778                   1

15 0
 s    6 1.00
             3047.5249  0.0018347001629433
             457.36951    0.01403730124668
             103.94869   0.068842606114048
             29.210155    0.23218442062076
              9.286663    0.46794134155879
              3.163927    0.36231203217765
 s    3 1.00
             7.8682724   -0.11933240861517
             1.8812885   -0.16085421161283
             0.5442493     1.1434564825515
 s    1 1.00
             0.1687144                   1
 p    3 1.00
             7.8682724   0.068999095584993
             1.8812885    0.31642397975315
             0.5442493    0.74430825237435
 p    1 1.00
             0.1687144                   1
 d    1 1.00
                   0.8                   1

16 0
 s    6 1.00
             3047.5249  0.0018347001629433
             457.36951    0.01403730124668
             103.94869   0.068842606114048
             29.210155    0.23218442062076
              9.286663    0.46794134155879
              3.163927    0.36231203217765
 s    3 1.00
             7.8682724   -0.11933240861517
             1.8812885   -0.16085421161283
             0.5442493     1.1434564825515
 s    1 1.00
             0.1687144                   1
 p    3 1.00
             7.8682724   0.068999095584993
             1.8812885    0.31642397975315
             0.5442493    0.74430825237435
 p    1 1.00
             0.1687144                   1
 d    1 1.00
                   0.8                   1

17 0
 s    6 1.00
             3047.5249  0.0018347001629433
             457.36951    0.01403730124668
             103.94869   0.068842606114048
             29.210155    0.23218442062076
              9.286663    0.46794134155879
              3.163927    0.36231203217765
 s    3 1.00
             7.8682724   -0.11933240861517
             1.8812885   -0.16085421161283
             0.5442493     1.1434564825515
 s    1 1.00
             0.1687144                   1
 p    3 1.00
             7.8682724   0.068999095584993
             1.8812885    0.31642397975315
             0.5442493    0.74430825237435
 p    1 1.00
             0.1687144                   1
 d    1 1.00
                   0.8                   1

18 0
 s    6 1.00
             3047.5249  0.0018347001629433
             457.36951    0.01403730124668
             103.94869   0.068842606114048
             29.210155    0.23218442062076
              9.286663    0.46794134155879
              3.163927    0.36231203217765
 s    3 1.00
             7.8682724   -0.11933240861517
             1.8812885   -0.16085421161283
             0.5442493     1.1434564825515
 s    1 1.00
             0.1687144                   1
 p    3 1.00
             7.8682724   0.068999095584993
             1.8812885    0.31642397975315
             0.5442493    0.74430825237435
 p    1 1.00
             0.1687144                   1
 d    1 1.00
                   0.8                   1

19 0
 s    6 1.00
             3047.5249  0.0018347001629433
             457.36951    0.01403730124668
             103.94869   0.068842606114048
             29.210155    0.23218442062076
              9.286663    0.46794134155879
              3.163927    0.36231203217765
 s    3 1.00
             7.8682724   -0.11933240861517
             1.8812885   -0.16085421161283
             0.5442493     1.1434564825515
 s    1 1.00
             0.1687144                   1
 p    3 1.00
             7.8682724   0.068999095584993
             1.8812885    0.31642397975315
             0.5442493    0.74430825237435
 p    1 1.00
             0.1687144                   1
 d    1 1.00
                   0.8                   1

20 0
 s    6 1.00
             3047.5249  0.0018347001629433
             457.36951    0.01403730124668
             103.94869   0.068842606114048
             29.210155    0.23218442062076
              9.286663    0.46794134155879
              3.163927    0.36231203217765
 s    3 1.00
             7.8682724   -0.11933240861517
             1.8812885   -0.16085421161283
             0.5442493     1.1434564825515
 s    1 1.00
             0.1687144                   1
 p    3 1.00
             7.8682724   0.068999095584993
             1.8812885    0.31642397975315
             0.5442493    0.74430825237435
 p    1 1.00
             0.1687144                   1
 d    1 1.00
                   0.8                   1

21 0
 s    6 1.00
             3047.5249  0.0018347001629433
             457.36951    0.01403730124668
             103.94869   0.068842606114048
             29.210155    0.23218442062076
              9.286663    0.46794134155879
              3.163927    0.36231203217765
 s    3 1.00
             7.8682724   -0.11933240861517
             1.8812885   -0.16085421161283
             0.5442493     1.1434564825515
 s    1 1.00
             0.1687144                   1
 p    3 1.00
             7.8682724   0.068999095584993
             1.8812885    0.31642397975315
             0.5442493    0.74430825237435
 p    1 1.00
             0.1687144                   1
 d    1 1.00
                   0.8                   1

22 0
 s    3 1.00
             18.731137    0.03349459952309
             2.8253937    0.23472694665786
             0.6401217    0.81375731841339
 s    1 1.00
             0.1612778                   1

23 0
 s    3 1.00
             18.731137    0.03349459952309
             2.8253937    0.23472694665786
             0.6401217    0.81375731841339
 s    1 1.00
             0.1612778                   1

24 0
 s    3 1.00
             18.731137    0.03349459952309
             2.8253937    0.23472694665786
             0.6401217    0.81375731841339
 s    1 1.00
             0.1612778                   1

25 0
 s    3 1.00
             18.731137    0.03349459952309
             2.8253937    0.23472694665786
             0.6401217    0.81375731841339
 s    1 1.00
             0.1612778                   1

26 0
 s    3 1.00
             18.731137    0.03349459952309
             2.8253937    0.23472694665786
             0.6401217    0.81375731841339
 s    1 1.00
             0.1612778                   1

27 0
 s    3 1.00
             18.731137    0.03349459952309
             2.8253937    0.23472694665786
             0.6401217    0.81375731841339
 s    1 1.00
             0.1612778                   1

28 0
 s    3 1.00
             18.731137    0.03349459952309
             2.8253937    0.23472694665786
             0.6401217    0.81375731841339
 s    1 1.00
             0.1612778                   1

29 0
 s    3 1.00
             18.731137    0.03349459952309
             2.8253937    0.23472694665786
             0.6401217    0.81375731841339
 s    1 1.00
             0.1612778                   1

30 0
 s    3 1.00
             18.731137    0.03349459952309
             2.8253937    0.23472694665786
             0.6401217    0.81375731841339
 s    1 1.00
             0.1612778                   1

31 0
 s    3 1.00
             18.731137    0.03349459952309
             2.8253937    0.23472694665786
             0.6401217    0.81375731841339
 s    1 1.00
             0.1612778                   1

32 0
 s    3 1.00
             18.731137    0.03349459952309
             2.8253937    0.23472694665786
             0.6401217    0.81375731841339
 s    1 1.00
             0.1612778                   1

33 0
 s    6 1.00
             3047.5249  0.0018347001629433
             457.36951    0.01403730124668
             103.94869   0.068842606114048
             29.210155    0.23218442062076
              9.286663    0.46794134155879
              3.163927    0.36231203217765
 s    3 1.00
             7.8682724   -0.11933240861517
             1.8812885   -0.16085421161283
             0.5442493     1.1434564825515
 s    1 1.00
             0.1687144                   1
 p    3 1.00
             7.8682724   0.068999095584993
             1.8812885    0.31642397975315
             0.5442493    0.74430825237435
 p    1 1.00
             0.1687144                   1
 d    1 1.00
                   0.8                   1

34 0
 s    6 1.00
             3047.5249  0.0018347001629433
             457.36951    0.01403730124668
             103.94869   0.068842606114048
             29.210155    0.23218442062076
              9.286663    0.46794134155879
              3.163927    0.36231203217765
 s    3 1.00
             7.8682724   -0.11933240861517
             1.8812885   -0.16085421161283
             0.5442493     1.1434564825515
 s    1 1.00
             0.1687144                   1
 p    3 1.00
             7.8682724   0.068999095584993
             1.8812885    0.31642397975315
             0.5442493    0.74430825237435
 p    1 1.00
             0.1687144                   1
 d    1 1.00
                   0.8                   1

35 0
 s    3 1.00
             18.731137    0.03349459952309
             2.8253937    0.23472694665786
             0.6401217    0.81375731841339
 s    1 1.00
             0.1612778                   1

36 0
 s    6 1.00
             3047.5249  0.0018347001629433
             457.36951    0.01403730124668
             103.94869   0.068842606114048
             29.210155    0.23218442062076
              9.286663    0.46794134155879
              3.163927    0.36231203217765
 s    3 1.00
             7.8682724   -0.11933240861517
             1.8812885   -0.16085421161283
             0.5442493     1.1434564825515
 s    1 1.00
             0.1687144                   1
 p    3 1.00
             7.8682724   0.068999095584993
             1.8812885    0.31642397975315
             0.5442493    0.74430825237435
 p    1 1.00
             0.1687144                   1
 d    1 1.00
                   0.8                   1

37 0
 s    3 1.00
             18.731137    0.03349459952309
             2.8253937    0.23472694665786
             0.6401217    0.81375731841339
 s    1 1.00
             0.1612778                   1

38 0
 s    3 1.00
             18.731137    0.03349459952309
             2.8253937    0.23472694665786
             0.6401217    0.81375731841339
 s    1 1.00
             0.1612778                   1

39 0
 s    6 1.00
             3047.5249  0.0018347001629433
             457.36951    0.01403730124668
             103.94869   0.068842606114048
             29.210155    0.23218442062076
              9.286663    0.46794134155879
              3.163927    0.36231203217765
 s    3 1.00
             7.8682724   -0.11933240861517
             1.8812885   -0.16085421161283
             0.5442493     1.1434564825515
 s    1 1.00
             0.1687144                   1
 p    3 1.00
             7.8682724   0.068999095584993
             1.8812885    0.31642397975315
             0.5442493    0.74430825237435
 p    1 1.00
             0.1687144                   1
 d    1 1.00
                   0.8                   1

40 0
 s    6 1.00
             3047.5249  0.0018347001629433
             457.36951    0.01403730124668
             103.94869   0.068842606114048
             29.210155    0.23218442062076
              9.286663    0.46794134155879
              3.163927    0.36231203217765
 s    3 1.00
             7.8682724   -0.11933240861517
             1.8812885   -0.16085421161283
             0.5442493     1.1434564825515
 s    1 1.00
             0.1687144                   1
 p    3 1.00
             7.8682724   0.068999095584993
             1.8812885    0.31642397975315
             0.5442493    0.74430825237435
 p    1 1.00
             0.1687144                   1
 d    1 1.00
                   0.8                   1

41 0
 s    3 1.00
             18.731137    0.03349459952309
             2.8253937    0.23472694665786
             0.6401217    0.81375731841339
 s    1 1.00
             0.1612778                   1

42 0
 s    6 1.00
             5484.6717   0.001831099805527
             825.23495   0.013950098518422
             188.04696    0.06844509273075
               52.9645    0.23271427528445
              16.89757    0.47019295006289
             5.7996353    0.35852086192309
 s    3 1.00
             15.539616   -0.11077750382508
             3.5999336   -0.14802630511126
             1.0137618     1.1307670390447
 s    1 1.00
             0.2700058                   1
 p    3 1.00
             15.539616   0.070874299543311
             3.5999336    0.33975279781076
             1.0137618    0.72715859531445
 p    1 1.00
             0.2700058                   1
 d    1 1.00
                   0.8                   1

43 0
 s    3 1.00
             18.731137    0.03349459952309
             2.8253937    0.23472694665786
             0.6401217    0.81375731841339
 s    1 1.00
             0.1612778                   1

[5d]
[7f]
[9g]

[MO]
 Sym= A
 Ene=               0
 Spin= Alpha
 Occup=    1.00000
   1    -1.2663774253525e-06
   2    -1.4603541535168e-05
   3    -4.0476909929198e-05
   4    -2.126701906787e-06
   5    -1.2422651487192e-05
   6    1.1342761795674e-05
   7    4.5179937884458e-05
   8    0.00012002013608901
   9    -0.00035986673927801
  10    2.2859706565333e-09
  11    9.9614378646316e-06
  12    1.2780207124734e-06
  13    1.3569195124241e-05
  14    -7.6286733902535e-06
  15    -1.4052371369693e-05
  16    9.3212179878506e-06
  17    4.3992858360792e-06
  18    0.00015965222843961
  19    0.0004360775561136
  20    6.1329025929744e-05
  21    -6.2963678135775e-06
  22    -7.6152213319483e-05
  23    0.00019961248095231
  24    -0.0001155486226969
  25    -0.00056243689706513
  26    2.1363059908554e-05
  27    -2.3055431060909e-05
  28    1.2690252963006e-05
  29    3.9763652946258e-05
  30    2.9029245026904e-06
  31    -1.5080392844168e-05
  32    2.9409728822032e-05
  33    6.673544389107e-05
  34    0.00033895566242135
  35    -0.0042925484293043
  36    -0.00011738317835646
  37    4.3712111530987e-05
  38    0.00014768971842153
  39    -0.00067858834575592
  40    0.0018654902810849
  41    0.00038584790902919
  42    -1.291865559592e-05
  43    0.00010878286305075
  44    -5.5805051741366e-05
  45    1.740742981529e-05
  46    6.6772661034743e-05
  47    -5.045990587778e-06
  48    -0.00026177243558639
  49    -1.9816951489773e-05
  50    0.00017189269680559
  51      0.00348911623356
  52    0.00025315343639537
  53    -0.00023109470174037
  54    -0.0002768407436342
  55    -0.0019396327832149
  56     0.002462655223843
  57    0.0019967357718301
  58    -3.8639987111142e-05
  59    2.6766667176808e-05
  60    0.00018370429060932
  61    3.614851769588e-05
  62    -0.00011504090909626
  63    0.00030272579474991
  64    8.3570788824452e-05
  65    -2.1109707347434e-07
  66    -4.2127844711302e-07
  67    -5.6659780401216e-08
  68    -5.1098023332867e-07
  69    2.7739817625558e-06
  70    2.6289991961735e-07
  71    -3.6462396568769e-07
  72    1.223005407396e-07
  73    3.3901739573678e-07
  74    1.4102325958279e-06
  75    1.2924633262773e-07
  76    -5.690378718517e-08
  77    -1.2714054320196e-07
  78    4.3414917309447e-08
  79    6.101069259061e-08
  80    -1.0987486648073e-07
  81    9.7291845563691e-08
  82    6.2462934454485e-08
  83    -1.901673806237e-08
  84    -2.1385269523126e-07
  85    -1.3456296001206e-05
  86    6.2310017003481e-07
  87    2.3444791907407e-08
  88    7.666252193306e-07
  89    3.2531955203737e-06
  90    -4.4075368795877e-06
  91    3.2184058237427e-06
  92    1.8916668732357e-07
  93    -3.0339122956057e-07
  94    3.1554953324566e-07
  95    4.5006373955237e-08
  96    -1.8970848736643e-07
  97    4.7231318931391e-07
  98    2.476952263387e-07
  99    1.1017317172136e-07
 100    -7.5861159845303e-07
 101    4.2296340902144e-08
 102    -8.8779540381705e-07
 103    1.0774862146238e-05
 104    9.0755571118075e-07
 105    -2.067431209161e-07
 106    -5.931885469459e-07
 107    -1.8542687163038e-05
 108    1.8752132250857e-05
 109    3.2226857950483e-05
 110    -5.9198880046508e-07
 111    -5.5413563319246e-07
 112    2.5090256838753e-07
 113    3.0169095880137e-07
 114    -4.9164100351672e-07
 115    -4.8362777672715e-07
 116    -4.4370083744142e-06
 117    3.6610116102184e-05
 118    -6.782552459104e-07
 119    9.7444838712245e-07
 120    7.7440457720183e-07
 121    -8.9299290166232e-06
 122    1.7452135014436e-06
 123    3.2971263990346e-06
 124    -9.0398122155549e-08
 125    -2.3372605720659e-07
 126    -7.1001286799902e-08
 127    1.1759194065878e-07
 128    -4.1029849515702e-07
 129    -9.4842042671726e-07
 130    -8.7637250568567e-06
 131    5.3964896784287e-05
 132    -2.2648157407089e-07
 133    -7.6789378457176e-07
 134    3.4867498660861e-06
 135    -2.3122086212821e-05
 136    -1.6325489644586e-06
 137    -8.4303480776404e-05
 138    2.5643759298545e-06
 139    1.6060288469317e-06
 140    3.3586557451847e-07
 141    4.6180805305479e-07
 142    9.0558496659874e-08
 143    -5.5368422519683e-07
 144    -4.1066696961851e-06
 145    2.317223482407e-05
 146    4.3638155051778e-07
 147    4.5705064217749e-07
 148    7.429116216483e-08
 149    1.3514571023814e-05
 150    -5.7947891342557e-06
 151    -3.8787546440788e-06
 152    -9.9814959577978e-07
 153    -3.9548322634359e-07
 154    -1.0276200344753e-07
 155    7.1139279145082e-07
 156    -8.2165881638274e-07
 157    3.3028955668444e-08
 158    1.0611754285819e-06
 159    3.2569923604124e-07
 160    7.105589592888e-07
 161    -2.0680679439307e-07
 162    -2.686099412709e-07
 163    -6.7914811426058e-06
 164    5.7095460281004e-07
 165    8.2919907129615e-07
 166    4.6991766311902e-07
 167    -1.8809265877279e-07
 168    1.0536361334356e-08
 169    -1.1234966165319e-07
 170    3.2090985018306e-07
 171    5.4847308995845e-08
 172    -5.2661360008667e-07
 173    -1.1626841324587e-06
 174    -7.6360320113785e-07
 175    -2.5283170296223e-07
 176    7.8254731456598e-07
 177     -3.8086310634e-07
 178    1.675311290713e-06
 179    -1.6922361652298e-06
 180    1.3025443342491e-07
 181    1.8428783994604e-07
 182    5.2187070489356e-08
 183    -3.7673186173477e-07
 184    1.7359759328066e-07
 185    -2.7432887970138e-07
 186    -3.0198094544367e-06
 187    1.5138501754789e-06
 188    -1.6172200460797e-07
 189    1.5385127277502e-07
 190    1.2728219819587e-06
 191    2.3675817839189e-06
 192    6.1404904954101e-07
 193    -5.1066134246435e-06
 194    2.885522848596e-07
 195    -5.7625389407347e-08
 196    2.0827898222541e-07
 197    1.0185186073518e-07
 198    -1.061811021002e-07
 199    -7.4138801957136e-07
 200    -1.2339839344707e-06
 201    1.2084106918183e-07
 202    3.5301116159572e-06
 203    -1.5391326262032e-06
 204    -1.3253792000255e-06
 205    -4.7051080925357e-07
 206    -2.7081161641964e-06
 207    1.0572332315373e-06
 208    -1.0291437443472e-05
 209    1.2051305254252e-06
 210    -4.4699210712011e-06
 211    5.5292251167387e-07
 212    2.7970244354496e-06
 213    -3.6207710512927e-07
 214    -2.547632349413e-06
 215    -5.0925334038923e-07
 216    4.9502136327642e-07
 217    3.4874323696953e-07
 218    1.0096333938679e-06
 219    2.6280917846518e-07
 220    1.031120805238e-06
 221    -7.052482928307e-07
 222    -7.7555476301204e-06
 223    -1.2470919746674e-05
 224    1.1340729304936e-06
 225    -3.2008135684017e-06
 226    3.3424566814726e-06
 227    9.1475705947852e-06
 228    2.5015279380935e-05
 229    -9.7228410479923e-05
 230    -1.1882605238755e-06
 231    -4.1561862887437e-06
 232    -1.9688886050914e-06
 233    1.7964361071195e-06
 234    2.7605136034302e-06
 235    -8.8437224043385e-07
 236    -1.0455402160273e-05
 237     2.01769237195e-05
 238    -1.3274926702128e-06
 239    5.430751899121e-06
 240    5.1838699989396e-06
 241    -2.274980291796e-05
 242    -4.9979717890379e-06
 243    -8.2109466428945e-05
 244    1.0892777296147e-06
 245    6.6766587557874e-06
 246    1.352025914568e-06
 247    2.6032088602631e-06
 248    1.0710189849614e-06
 249    -4.5644579293438e-06
 250    1.0348508189797e-05
 251    -4.2681313825805e-06
 252    -3.2553078745053e-05
 253    0.00027273893101644
 254    6.4637463444928e-07
 255    -5.0364296352434e-06
 256    7.7465522915074e-06
 257    0.00011290854253115
 258    9.5765022121071e-05
 259    -0.00024608094120741
 260    2.8332766994488e-06
 261    -1.2462063343888e-05
 262    -4.6377465918601e-06
 263    8.2199016133406e-06
 264    4.7041485522932e-06
 265    -3.8508994495755e-06
 266    2.7860671147165e-05
 267    -8.1588694801203e-06
 268    3.556236444655e-05
 269    -6.918200812576e-05
 270    -8.4066526551435e-05
 271    0.0030558119764583
 272    1.220392327028e-05
 273    -0.00020132705197392
 274    7.7003316456016e-05
 275    0.0021121761378906
 276    0.00058201890505641
 277    -0.0031766661067901
 278    0.00018643960938779
 279    -0.00022351991878518
 280    0.00016077208613553