[Molden Format]
made by pyscf v[2.0.1]
[Atoms] (AU)
C   1   6     0.69100024069495     0.64692934212497    -3.48223131168734
H   2   1     2.68052439835215     1.13355088667581    -3.25784032595959
C   3   6    -0.36286361514353     0.85440132525350    -5.97030179416329
H   4   1    -2.35448549056350     0.36322488588432    -6.17995817799568
C   5   6     0.93697958950647     1.61209284601065    -8.05828437675987
H   6   1     2.92721069186250     2.10853558287052    -7.87534295441726
C   7   6    -0.17413039189613     1.80008207487984   -10.52534301739428
H   8   1    -2.16943049770440     1.29533627648343   -10.67939296478009
H   9   1     1.55630230933264    -1.92953025311848    12.99630010417381
C   10   6     0.75233899783373    -2.21270439606859    11.10705728099195
H   11   1    -0.43433408176896    -3.90944857543337    11.22216085348160
C   12   6     2.86362581169447    -2.63237380608325     9.17926416459635
H   13   1     4.39038949906562    -1.24955421532309     9.49899813488174
H   14   1     3.74629220184371    -4.48798724298246     9.47414880962803
C   15   6     2.02478325622942    -2.42177285713224     6.44560829586187
C   16   6     3.88048732732831    -3.58795445236593     4.61402886975252
C   17   6    -0.18412382264649    -1.30464291231236     5.76021113881606
C   18   6    -2.10044360460382    -0.26837831862807     7.71610340970501
C   19   6    -3.08956938678556     2.35282328352614     6.88693925042618
C   20   6    -4.37372924094212    -2.09766595985142     7.93610724215954
C   21   6    -0.83850430593104     0.06372213486551    10.33002307643668
H   22   1     0.38411922142983     1.74281358590180    10.27380136539346
H   23   1    -2.30980003011276     0.45460143923765    11.73986301804329
H   24   1     4.58527064636731    -5.38706904479673     5.36778158023404
H   25   1     5.54944938091628    -2.37631462201630     4.35398898404058
H   26   1     3.06633019144754    -3.94118377051822     2.75255466032570
H   27   1    -4.17727778763546     2.26573369145191     5.12914900957504
H   28   1    -1.52662344935358     3.68001877441469     6.59540397151878
H   29   1    -4.32916174393862     3.13643051473529     8.35225460094913
H   30   1    -5.32329548507875    -2.36691813603695     6.11583672741581
H   31   1    -5.77989366598289    -1.33896741838552     9.25748940451935
H   32   1    -3.79310905209871    -3.96389819308585     8.61386170106276
C   33   6    -1.01100794815762    -1.06331657313199     3.11929490450892
C   34   6     0.37686231029920    -0.33275864510088     1.09165013596992
H   35   1    -3.01671213911428    -1.40297922289257     2.77827895090755
C   36   6    -0.64382707979748    -0.11591880174763    -1.42063131255788
H   37   1     2.35569259790262     0.17174499287298     1.33641070253857
H   38   1    -2.63317482972383    -0.60229203504227    -1.66119700396716
C   39   6     1.04406642127022     2.54697835791677   -12.65486785204246
C   40   6    -0.25769856063703     2.67711278008941   -15.08293200861523
H   41   1     3.03094671002655     3.07573165426063   -12.63261900496242
O   42   8     0.71886931482866     3.33224024015006   -17.06735820381613
H   43   1    -2.28855418566595     2.11893682007881   -15.01778643592878
[GTO]
1 0
 s    6 1.00
             3047.5249  0.0018347001629433
             457.36951    0.01403730124668
             103.94869   0.068842606114048
             29.210155    0.23218442062076
              9.286663    0.46794134155879
              3.163927    0.36231203217765
 s    3 1.00
             7.8682724   -0.11933240861517
             1.8812885   -0.16085421161283
             0.5442493     1.1434564825515
 s    1 1.00
             0.1687144                   1
 p    3 1.00
             7.8682724   0.068999095584993
             1.8812885    0.31642397975315
             0.5442493    0.74430825237435
 p    1 1.00
             0.1687144                   1
 d    1 1.00
                   0.8                   1

2 0
 s    3 1.00
             18.731137    0.03349459952309
             2.8253937    0.23472694665786
             0.6401217    0.81375731841339
 s    1 1.00
             0.1612778                   1

3 0
 s    6 1.00
             3047.5249  0.0018347001629433
             457.36951    0.01403730124668
             103.94869   0.068842606114048
             29.210155    0.23218442062076
              9.286663    0.46794134155879
              3.163927    0.36231203217765
 s    3 1.00
             7.8682724   -0.11933240861517
             1.8812885   -0.16085421161283
             0.5442493     1.1434564825515
 s    1 1.00
             0.1687144                   1
 p    3 1.00
             7.8682724   0.068999095584993
             1.8812885    0.31642397975315
             0.5442493    0.74430825237435
 p    1 1.00
             0.1687144                   1
 d    1 1.00
                   0.8                   1

4 0
 s    3 1.00
             18.731137    0.03349459952309
             2.8253937    0.23472694665786
             0.6401217    0.81375731841339
 s    1 1.00
             0.1612778                   1

5 0
 s    6 1.00
             3047.5249  0.0018347001629433
             457.36951    0.01403730124668
             103.94869   0.068842606114048
             29.210155    0.23218442062076
              9.286663    0.46794134155879
              3.163927    0.36231203217765
 s    3 1.00
             7.8682724   -0.11933240861517
             1.8812885   -0.16085421161283
             0.5442493     1.1434564825515
 s    1 1.00
             0.1687144                   1
 p    3 1.00
             7.8682724   0.068999095584993
             1.8812885    0.31642397975315
             0.5442493    0.74430825237435
 p    1 1.00
             0.1687144                   1
 d    1 1.00
                   0.8                   1

6 0
 s    3 1.00
             18.731137    0.03349459952309
             2.8253937    0.23472694665786
             0.6401217    0.81375731841339
 s    1 1.00
             0.1612778                   1

7 0
 s    6 1.00
             3047.5249  0.0018347001629433
             457.36951    0.01403730124668
             103.94869   0.068842606114048
             29.210155    0.23218442062076
              9.286663    0.46794134155879
              3.163927    0.36231203217765
 s    3 1.00
             7.8682724   -0.11933240861517
             1.8812885   -0.16085421161283
             0.5442493     1.1434564825515
 s    1 1.00
             0.1687144                   1
 p    3 1.00
             7.8682724   0.068999095584993
             1.8812885    0.31642397975315
             0.5442493    0.74430825237435
 p    1 1.00
             0.1687144                   1
 d    1 1.00
                   0.8                   1

8 0
 s    3 1.00
             18.731137    0.03349459952309
             2.8253937    0.23472694665786
             0.6401217    0.81375731841339
 s    1 1.00
             0.1612778                   1

9 0
 s    3 1.00
             18.731137    0.03349459952309
             2.8253937    0.23472694665786
             0.6401217    0.81375731841339
 s    1 1.00
             0.1612778                   1

10 0
 s    6 1.00
             3047.5249  0.0018347001629433
             457.36951    0.01403730124668
             103.94869   0.068842606114048
             29.210155    0.23218442062076
              9.286663    0.46794134155879
              3.163927    0.36231203217765
 s    3 1.00
             7.8682724   -0.11933240861517
             1.8812885   -0.16085421161283
             0.5442493     1.1434564825515
 s    1 1.00
             0.1687144                   1
 p    3 1.00
             7.8682724   0.068999095584993
             1.8812885    0.31642397975315
             0.5442493    0.74430825237435
 p    1 1.00
             0.1687144                   1
 d    1 1.00
                   0.8                   1

11 0
 s    3 1.00
             18.731137    0.03349459952309
             2.8253937    0.23472694665786
             0.6401217    0.81375731841339
 s    1 1.00
             0.1612778                   1

12 0
 s    6 1.00
             3047.5249  0.0018347001629433
             457.36951    0.01403730124668
             103.94869   0.068842606114048
             29.210155    0.23218442062076
              9.286663    0.46794134155879
              3.163927    0.36231203217765
 s    3 1.00
             7.8682724   -0.11933240861517
             1.8812885   -0.16085421161283
             0.5442493     1.1434564825515
 s    1 1.00
             0.1687144                   1
 p    3 1.00
             7.8682724   0.068999095584993
             1.8812885    0.31642397975315
             0.5442493    0.74430825237435
 p    1 1.00
             0.1687144                   1
 d    1 1.00
                   0.8                   1

13 0
 s    3 1.00
             18.731137    0.03349459952309
             2.8253937    0.23472694665786
             0.6401217    0.81375731841339
 s    1 1.00
             0.1612778                   1

14 0
 s    3 1.00
             18.731137    0.03349459952309
             2.8253937    0.23472694665786
             0.6401217    0.81375731841339
 s    1 1.00
             0.1612778                   1

15 0
 s    6 1.00
             3047.5249  0.0018347001629433
             457.36951    0.01403730124668
             103.94869   0.068842606114048
             29.210155    0.23218442062076
              9.286663    0.46794134155879
              3.163927    0.36231203217765
 s    3 1.00
             7.8682724   -0.11933240861517
             1.8812885   -0.16085421161283
             0.5442493     1.1434564825515
 s    1 1.00
             0.1687144                   1
 p    3 1.00
             7.8682724   0.068999095584993
             1.8812885    0.31642397975315
             0.5442493    0.74430825237435
 p    1 1.00
             0.1687144                   1
 d    1 1.00
                   0.8                   1

16 0
 s    6 1.00
             3047.5249  0.0018347001629433
             457.36951    0.01403730124668
             103.94869   0.068842606114048
             29.210155    0.23218442062076
              9.286663    0.46794134155879
              3.163927    0.36231203217765
 s    3 1.00
             7.8682724   -0.11933240861517
             1.8812885   -0.16085421161283
             0.5442493     1.1434564825515
 s    1 1.00
             0.1687144                   1
 p    3 1.00
             7.8682724   0.068999095584993
             1.8812885    0.31642397975315
             0.5442493    0.74430825237435
 p    1 1.00
             0.1687144                   1
 d    1 1.00
                   0.8                   1

17 0
 s    6 1.00
             3047.5249  0.0018347001629433
             457.36951    0.01403730124668
             103.94869   0.068842606114048
             29.210155    0.23218442062076
              9.286663    0.46794134155879
              3.163927    0.36231203217765
 s    3 1.00
             7.8682724   -0.11933240861517
             1.8812885   -0.16085421161283
             0.5442493     1.1434564825515
 s    1 1.00
             0.1687144                   1
 p    3 1.00
             7.8682724   0.068999095584993
             1.8812885    0.31642397975315
             0.5442493    0.74430825237435
 p    1 1.00
             0.1687144                   1
 d    1 1.00
                   0.8                   1

18 0
 s    6 1.00
             3047.5249  0.0018347001629433
             457.36951    0.01403730124668
             103.94869   0.068842606114048
             29.210155    0.23218442062076
              9.286663    0.46794134155879
              3.163927    0.36231203217765
 s    3 1.00
             7.8682724   -0.11933240861517
             1.8812885   -0.16085421161283
             0.5442493     1.1434564825515
 s    1 1.00
             0.1687144                   1
 p    3 1.00
             7.8682724   0.068999095584993
             1.8812885    0.31642397975315
             0.5442493    0.74430825237435
 p    1 1.00
             0.1687144                   1
 d    1 1.00
                   0.8                   1

19 0
 s    6 1.00
             3047.5249  0.0018347001629433
             457.36951    0.01403730124668
             103.94869   0.068842606114048
             29.210155    0.23218442062076
              9.286663    0.46794134155879
              3.163927    0.36231203217765
 s    3 1.00
             7.8682724   -0.11933240861517
             1.8812885   -0.16085421161283
             0.5442493     1.1434564825515
 s    1 1.00
             0.1687144                   1
 p    3 1.00
             7.8682724   0.068999095584993
             1.8812885    0.31642397975315
             0.5442493    0.74430825237435
 p    1 1.00
             0.1687144                   1
 d    1 1.00
                   0.8                   1

20 0
 s    6 1.00
             3047.5249  0.0018347001629433
             457.36951    0.01403730124668
             103.94869   0.068842606114048
             29.210155    0.23218442062076
              9.286663    0.46794134155879
              3.163927    0.36231203217765
 s    3 1.00
             7.8682724   -0.11933240861517
             1.8812885   -0.16085421161283
             0.5442493     1.1434564825515
 s    1 1.00
             0.1687144                   1
 p    3 1.00
             7.8682724   0.068999095584993
             1.8812885    0.31642397975315
             0.5442493    0.74430825237435
 p    1 1.00
             0.1687144                   1
 d    1 1.00
                   0.8                   1

21 0
 s    6 1.00
             3047.5249  0.0018347001629433
             457.36951    0.01403730124668
             103.94869   0.068842606114048
             29.210155    0.23218442062076
              9.286663    0.46794134155879
              3.163927    0.36231203217765
 s    3 1.00
             7.8682724   -0.11933240861517
             1.8812885   -0.16085421161283
             0.5442493     1.1434564825515
 s    1 1.00
             0.1687144                   1
 p    3 1.00
             7.8682724   0.068999095584993
             1.8812885    0.31642397975315
             0.5442493    0.74430825237435
 p    1 1.00
             0.1687144                   1
 d    1 1.00
                   0.8                   1

22 0
 s    3 1.00
             18.731137    0.03349459952309
             2.8253937    0.23472694665786
             0.6401217    0.81375731841339
 s    1 1.00
             0.1612778                   1

23 0
 s    3 1.00
             18.731137    0.03349459952309
             2.8253937    0.23472694665786
             0.6401217    0.81375731841339
 s    1 1.00
             0.1612778                   1

24 0
 s    3 1.00
             18.731137    0.03349459952309
             2.8253937    0.23472694665786
             0.6401217    0.81375731841339
 s    1 1.00
             0.1612778                   1

25 0
 s    3 1.00
             18.731137    0.03349459952309
             2.8253937    0.23472694665786
             0.6401217    0.81375731841339
 s    1 1.00
             0.1612778                   1

26 0
 s    3 1.00
             18.731137    0.03349459952309
             2.8253937    0.23472694665786
             0.6401217    0.81375731841339
 s    1 1.00
             0.1612778                   1

27 0
 s    3 1.00
             18.731137    0.03349459952309
             2.8253937    0.23472694665786
             0.6401217    0.81375731841339
 s    1 1.00
             0.1612778                   1

28 0
 s    3 1.00
             18.731137    0.03349459952309
             2.8253937    0.23472694665786
             0.6401217    0.81375731841339
 s    1 1.00
             0.1612778                   1

29 0
 s    3 1.00
             18.731137    0.03349459952309
             2.8253937    0.23472694665786
             0.6401217    0.81375731841339
 s    1 1.00
             0.1612778                   1

30 0
 s    3 1.00
             18.731137    0.03349459952309
             2.8253937    0.23472694665786
             0.6401217    0.81375731841339
 s    1 1.00
             0.1612778                   1

31 0
 s    3 1.00
             18.731137    0.03349459952309
             2.8253937    0.23472694665786
             0.6401217    0.81375731841339
 s    1 1.00
             0.1612778                   1

32 0
 s    3 1.00
             18.731137    0.03349459952309
             2.8253937    0.23472694665786
             0.6401217    0.81375731841339
 s    1 1.00
             0.1612778                   1

33 0
 s    6 1.00
             3047.5249  0.0018347001629433
             457.36951    0.01403730124668
             103.94869   0.068842606114048
             29.210155    0.23218442062076
              9.286663    0.46794134155879
              3.163927    0.36231203217765
 s    3 1.00
             7.8682724   -0.11933240861517
             1.8812885   -0.16085421161283
             0.5442493     1.1434564825515
 s    1 1.00
             0.1687144                   1
 p    3 1.00
             7.8682724   0.068999095584993
             1.8812885    0.31642397975315
             0.5442493    0.74430825237435
 p    1 1.00
             0.1687144                   1
 d    1 1.00
                   0.8                   1

34 0
 s    6 1.00
             3047.5249  0.0018347001629433
             457.36951    0.01403730124668
             103.94869   0.068842606114048
             29.210155    0.23218442062076
              9.286663    0.46794134155879
              3.163927    0.36231203217765
 s    3 1.00
             7.8682724   -0.11933240861517
             1.8812885   -0.16085421161283
             0.5442493     1.1434564825515
 s    1 1.00
             0.1687144                   1
 p    3 1.00
             7.8682724   0.068999095584993
             1.8812885    0.31642397975315
             0.5442493    0.74430825237435
 p    1 1.00
             0.1687144                   1
 d    1 1.00
                   0.8                   1

35 0
 s    3 1.00
             18.731137    0.03349459952309
             2.8253937    0.23472694665786
             0.6401217    0.81375731841339
 s    1 1.00
             0.1612778                   1

36 0
 s    6 1.00
             3047.5249  0.0018347001629433
             457.36951    0.01403730124668
             103.94869   0.068842606114048
             29.210155    0.23218442062076
              9.286663    0.46794134155879
              3.163927    0.36231203217765
 s    3 1.00
             7.8682724   -0.11933240861517
             1.8812885   -0.16085421161283
             0.5442493     1.1434564825515
 s    1 1.00
             0.1687144                   1
 p    3 1.00
             7.8682724   0.068999095584993
             1.8812885    0.31642397975315
             0.5442493    0.74430825237435
 p    1 1.00
             0.1687144                   1
 d    1 1.00
                   0.8                   1

37 0
 s    3 1.00
             18.731137    0.03349459952309
             2.8253937    0.23472694665786
             0.6401217    0.81375731841339
 s    1 1.00
             0.1612778                   1

38 0
 s    3 1.00
             18.731137    0.03349459952309
             2.8253937    0.23472694665786
             0.6401217    0.81375731841339
 s    1 1.00
             0.1612778                   1

39 0
 s    6 1.00
             3047.5249  0.0018347001629433
             457.36951    0.01403730124668
             103.94869   0.068842606114048
             29.210155    0.23218442062076
              9.286663    0.46794134155879
              3.163927    0.36231203217765
 s    3 1.00
             7.8682724   -0.11933240861517
             1.8812885   -0.16085421161283
             0.5442493     1.1434564825515
 s    1 1.00
             0.1687144                   1
 p    3 1.00
             7.8682724   0.068999095584993
             1.8812885    0.31642397975315
             0.5442493    0.74430825237435
 p    1 1.00
             0.1687144                   1
 d    1 1.00
                   0.8                   1

40 0
 s    6 1.00
             3047.5249  0.0018347001629433
             457.36951    0.01403730124668
             103.94869   0.068842606114048
             29.210155    0.23218442062076
              9.286663    0.46794134155879
              3.163927    0.36231203217765
 s    3 1.00
             7.8682724   -0.11933240861517
             1.8812885   -0.16085421161283
             0.5442493     1.1434564825515
 s    1 1.00
             0.1687144                   1
 p    3 1.00
             7.8682724   0.068999095584993
             1.8812885    0.31642397975315
             0.5442493    0.74430825237435
 p    1 1.00
             0.1687144                   1
 d    1 1.00
                   0.8                   1

41 0
 s    3 1.00
             18.731137    0.03349459952309
             2.8253937    0.23472694665786
             0.6401217    0.81375731841339
 s    1 1.00
             0.1612778                   1

42 0
 s    6 1.00
             5484.6717   0.001831099805527
             825.23495   0.013950098518422
             188.04696    0.06844509273075
               52.9645    0.23271427528445
              16.89757    0.47019295006289
             5.7996353    0.35852086192309
 s    3 1.00
             15.539616   -0.11077750382508
             3.5999336   -0.14802630511126
             1.0137618     1.1307670390447
 s    1 1.00
             0.2700058                   1
 p    3 1.00
             15.539616   0.070874299543311
             3.5999336    0.33975279781076
             1.0137618    0.72715859531445
 p    1 1.00
             0.2700058                   1
 d    1 1.00
                   0.8                   1

43 0
 s    3 1.00
             18.731137    0.03349459952309
             2.8253937    0.23472694665786
             0.6401217    0.81375731841339
 s    1 1.00
             0.1612778                   1

[5d]
[7f]
[9g]

[MO]
 Sym= A
 Ene=               0
 Spin= Alpha
 Occup=    1.00000
   1    -9.3478974097248e-06
   2    -6.1892675342514e-05
   3    -2.8076016701772e-05
   4    -2.4610816772303e-05
   5    -1.3868559062708e-05
   6    3.7156409740427e-05
   7    0.00027209071789748
   8    0.00028317662562289
   9    -0.0010726840762801
  10    2.3659073506151e-05
  11    3.9932961248789e-05
  12    1.1000276613898e-06
  13    8.6942401415978e-06
  14    -3.4390617803245e-06
  15    -5.6682252453622e-05
  16    -2.8655654706111e-05
  17    2.3650106538547e-05
  18    0.0001011710417663
  19    -0.0023098646328265
  20    -1.2313988854688e-05
  21    -1.6968763413091e-05
  22    6.9776517557531e-05
  23    -0.00045313099592928
  24    -0.00025604172437929
  25    0.00068752677289213
  26    -6.2786874039298e-05
  27    9.9932368256142e-06
  28    2.4123752679212e-05
  29    4.5473272141562e-06
  30    -8.281607825172e-07
  31    -1.6789033550574e-07
  32    0.00012823237316449
  33    -7.8237820271962e-05
  34    -0.00039107081837745
  35    0.0056357721165994
  36    1.4560173401891e-05
  37    2.9960228564518e-05
  38    -0.00013251492461739
  39    -0.0021345454369874
  40    -0.00029480669171751
  41    -0.0014038786790026
  42    0.00015698850874526
  43    7.0940193173398e-05
  44    -4.5742208039352e-05
  45    4.5016291853483e-05
  46    1.3431090552388e-05
  47    3.8651654703905e-05
  48    0.00031344569208467
  49    2.9712077561748e-05
  50    -0.00011032892790873
  51    -0.0042107896068115
  52    0.00013621544879872
  53    -4.5306763388013e-05
  54    0.00041569033972478
  55    -0.0019226600187199
  56    0.00023453194409118
  57    -0.0038078542577411
  58    -0.00010440556181283
  59    -0.0001982034390663
  60    -3.5145271131638e-05
  61    6.027146612081e-05
  62    7.8936161885508e-05
  63    -0.00029068144415868
  64    -0.00014321146809285
  65    -1.6856323576607e-07
  66    2.1042070775961e-06
  67    -1.6557156645288e-07
  68    -1.7251624577241e-06
  69    9.5689944252378e-07
  70    9.9859301796013e-07
  71    -1.0511874208858e-06
  72    4.4848384383151e-07
  73    2.0053501995945e-06
  74    7.5099548804141e-07
  75    -3.11553894659e-06
  76    2.7136446776518e-07
  77    4.7759712262747e-08
  78    1.7935082202132e-07
  79    1.5870197587052e-07
  80    7.2418135357419e-08
  81    5.216350115355e-08
  82    5.7490939912121e-07
  83    3.3029305336368e-07
  84    2.3832119464799e-06
  85    -1.1992941764622e-05
  86    3.9809453389036e-07
  87    1.6626781706601e-07
  88    8.6912883032485e-07
  89    6.482323118311e-06
  90    -1.0174787275236e-05
  91    2.3504699654132e-07
  92    -1.5077356135346e-07
  93    -5.7250652750115e-07
  94    1.0593206819904e-06
  95    -3.7756942206561e-07
  96    -3.4366961485711e-09
  97    1.5593737338256e-06
  98    8.4441871812391e-07
  99    -4.3897074191567e-07
 100    -1.8129304313206e-06
 101    -8.1614413077222e-07
 102    -3.737150583507e-06
 103    0.00010220668307248
 104    -1.2763534395596e-06
 105    2.2988191664677e-07
 106    -2.5908858231708e-06
 107    -4.0055910541858e-05
 108    3.9824363555506e-05
 109    -7.7155976650195e-06
 110    8.5335422611938e-07
 111    1.2245426562079e-06
 112    -5.4067572444835e-07
 113    -2.4431791022175e-07
 114    -1.878660994098e-06
 115    3.5473958662962e-07
 116    3.9328685113303e-06
 117    -3.7022828590082e-06
 118    -6.3792654947711e-07
 119    2.5240303408121e-06
 120    -1.7162477804186e-06
 121    5.0001026124959e-06
 122    -1.6394641108914e-05
 123    1.6220564737771e-05
 124    6.4010992972751e-07
 125    -4.741372639432e-07
 126    -9.2817019872064e-07
 127    -3.6468844509581e-07
 128    -1.6335318263872e-07
 129    1.815489554712e-07
 130    1.9166175476858e-06
 131    5.213945504827e-05
 132    6.146949790367e-06
 133    8.6493202164187e-07
 134    -3.6718123386202e-06
 135    -0.00013233480956646
 136    1.6848406046902e-05
 137    -3.8645367243373e-05
 138    1.4760199413374e-06
 139     9.67608118574e-07
 140    3.0118678438232e-06
 141    -3.8187452191693e-07
 142    1.9853082237876e-06
 143    1.6042631257909e-07
 144    -9.8417310853452e-07
 145    -4.6753519157739e-05
 146    -3.8280984189406e-07
 147    -9.5901058280455e-07
 148    5.358419197314e-06
 149    -1.4463493066371e-05
 150    3.6806384286034e-05
 151    -1.3562137120066e-05
 152    -1.2923452898084e-06
 153    3.6712934138268e-07
 154    -2.1946627801926e-06
 155    -6.2176403370233e-08
 156    -9.9893250379624e-07
 157    6.7774803549255e-07
 158    5.5189545542197e-06
 159    -3.0220375006474e-05
 160    6.6878628251402e-07
 161    6.6698094236527e-07
 162    -8.5624483911011e-07
 163    -1.130635209413e-05
 164    1.1546059302234e-05
 165    1.529257696947e-06
 166    1.0364167097401e-06
 167    -1.6895351291496e-07
 168    2.4594508862055e-07
 169    4.0998821599846e-07
 170    8.3473843668074e-07
 171    7.9866181302864e-08
 172    3.769199860854e-07
 173    3.0433622755223e-06
 174    -2.3804170053999e-07
 175    -2.1515092490402e-07
 176    1.6411216008469e-06
 177    1.2419028080366e-05
 178    4.2124598967675e-06
 179    4.7852517931068e-06
 180    -2.7853329322638e-07
 181    1.4766032115781e-06
 182    -1.1849181238249e-07
 183    7.1710552304796e-07
 184    1.1453199699943e-06
 185    -8.0921297492914e-07
 186    -6.7813900142355e-06
 187    3.0569966863287e-05
 188    -1.3471401996464e-06
 189    -7.2920788040333e-08
 190    -1.0299891901601e-07
 191    7.4600791304282e-07
 192    -9.5023777491884e-06
 193    -1.5886330395085e-05
 194    7.8066920578236e-07
 195    8.2005335761372e-07
 196    1.5278204649651e-06
 197    -5.5350608384124e-07
 198    3.8071479739331e-07
 199    -2.1198824244458e-06
 200    8.8781726671829e-07
 201    -3.623797114659e-07
 202    2.2924918552869e-06
 203    -1.6100672331834e-06
 204    -9.4188216858513e-06
 205    3.2782044906735e-06
 206      9.3705961462e-07
 207    1.0081553891517e-06
 208    9.8366600609363e-06
 209    2.4856303381538e-06
 210    -8.0129627317749e-07
 211    1.8123774140276e-06
 212    4.294022295461e-06
 213    5.7135519996623e-07
 214    -3.885363833342e-06
 215    -3.0272896397983e-06
 216    1.8102914856734e-05
 217    9.1079411127727e-07
 218    2.5269539207662e-07
 219    8.1605794654483e-07
 220    -2.1207860513137e-06
 221    -3.8430790542018e-06
 222    -2.5909754347449e-05
 223    0.00027064759552353
 224    5.8311394632072e-06
 225    1.1768581646295e-06
 226    1.1116393289262e-06
 227     5.31700955663e-05
 228    5.9301589936236e-05
 229    -0.00029536814657914
 230    5.9732508428913e-06
 231    -9.6881731063935e-06
 232    -7.4360009666794e-06
 233    3.3520089625443e-06
 234    3.2368526020865e-06
 235    7.2831756417209e-06
 236    4.1985225163488e-05
 237    -0.00076377526501753
 238    -5.5532876178997e-06
 239    -5.3111086166289e-06
 240    1.964804339571e-05
 241    0.00024456886653179
 242    4.7732615451028e-05
 243    8.4303125239225e-05
 244    -1.9826087325954e-05
 245    4.5313095050353e-06
 246    8.3268877060047e-06
 247    -1.4511893484534e-06
 248    -2.0059698905569e-06
 249    -1.1404615362078e-05
 250    -1.8353434181879e-05
 251    -8.4514289704842e-06
 252    -5.994181731918e-05
 253    0.0011205981549907
 254    -1.3790925776012e-05
 255    2.370073839748e-06
 256    -3.2351901773456e-05
 257    0.00049254371718303
 258    0.00011501275007877
 259    9.2785696611246e-05
 260    1.938869967817e-05
 261    -5.9352520154252e-06
 262    -9.9137274702288e-06
 263    5.6255941528601e-06
 264    5.2041350662571e-06
 265    -1.058890443132e-05
 266    -2.1720278268358e-06
 267    2.7204519051332e-05
 268    7.5935743448584e-05
 269    6.8686322922957e-05
 270    8.1895384271782e-05
 271    -0.0031078865920436
 272    0.00019920049315738
 273    5.364820461105e-05
 274    -1.7340020102148e-06
 275    -0.0013071519333632
 276    -0.0010600318095915
 277    0.0035881283987724
 278    -0.00034671431862097
 279    3.8137737478271e-05
 280    9.993753648996e-05