[Molden Format]
made by pyscf v[2.0.1]
[Atoms] (AU)
C   1   6     0.69100024066471     0.64692934207205    -3.48223131169301
H   2   1     2.68052439830868     1.13355088658700    -3.25784032593313
C   3   6    -0.36286361513219     0.85440132524594    -5.97030179418974
H   4   1    -2.35448549047279     0.36322488579172    -6.17995817793143
C   5   6     0.93697958957450     1.61209284601821    -8.05828437677121
H   6   1     1.11826626333964     3.62551264984471    -8.45099117670825
C   7   6     2.10097243920823    -0.10888483292738    -9.80174075747215
H   8   1     1.90436861547379    -2.12023320363586    -9.38275759847606
H   9   1     1.55630230933075    -1.92953025305990    12.99630010416247
C   10   6     0.75233899775814    -2.21270439606481    11.10705728102219
H   11   1    -0.43433408177274    -3.90944857546550    11.22216085340412
C   12   6     2.86362581178706    -2.63237380607947     9.17926416456045
H   13   1     4.39038949912609    -1.24955421540245     9.49899813497433
H   14   1     3.74629220191363    -4.48798724300892     9.47414880959024
C   15   6     2.02478325613682    -2.42177285709634     6.44560829588644
C   16   6     3.88048732735477    -3.58795445234514     4.61402886975252
C   17   6    -0.18412382258602    -1.30464291234259     5.76021113872346
C   18   6    -2.10044360464350    -0.26837831858460     7.71610340967100
C   19   6    -3.08956938670431     2.35282328359417     6.88693925039594
C   20   6    -4.37372924086464    -2.09766595989678     7.93610724222001
C   21   6    -0.83850430601230     0.06372213486173    10.33002307638377
H   22   1     0.38411922151109     1.74281358582432    10.27380136542181
H   23   1    -2.30980003007874     0.45460143924521    11.73986301809809
H   24   1     4.58527064644668    -5.38706904487420     5.36778158031719
H   25   1     5.54944938085014    -2.37631462192748     4.35398898413318
H   26   1     3.06633019150423    -3.94118377050688     2.75255466040884
H   27   1    -4.17727778763735     2.26573369139522     5.12914900961283
H   28   1    -1.52662344944051     3.68001877445626     6.59540397144508
H   29   1    -4.32916174397830     3.13643051467482     8.35225460090378
H   30   1    -5.32329548508442    -2.36691813602939     6.11583672749896
H   31   1    -5.77989366602257    -1.33896741843465     9.25748940450990
H   32   1    -3.79310905208926    -3.96389819310853     8.61386170102686
C   33   6    -1.01100794811226    -1.06331657314144     3.11929490449947
C   34   6     0.37686231036534    -0.33275864505552     1.09165013605873
H   35   1    -3.01671213906703    -1.40297922279997     2.77827895090944
C   36   6    -0.64382707979370    -0.11591880174385    -1.42063131251064
H   37   1     2.35569259782137     0.17174499283897     1.33641070251401
H   38   1    -2.63317482980319    -0.60229203511219    -1.66119700387645
C   39   6     3.40965399787931     0.55809653308114   -11.90393532262733
C   40   6     4.52549279160481    -1.34135539088305   -13.56345596406470
H   41   1     3.67536210453709     2.52791097593625   -12.43024189111277
O   42   8     5.72170846290986    -0.87635365493868   -15.48013684009233
H   43   1     4.20717735374393    -3.33265649371778   -12.95224886476863
[GTO]
1 0
 s    6 1.00
             3047.5249  0.0018347001629433
             457.36951    0.01403730124668
             103.94869   0.068842606114048
             29.210155    0.23218442062076
              9.286663    0.46794134155879
              3.163927    0.36231203217765
 s    3 1.00
             7.8682724   -0.11933240861517
             1.8812885   -0.16085421161283
             0.5442493     1.1434564825515
 s    1 1.00
             0.1687144                   1
 p    3 1.00
             7.8682724   0.068999095584993
             1.8812885    0.31642397975315
             0.5442493    0.74430825237435
 p    1 1.00
             0.1687144                   1
 d    1 1.00
                   0.8                   1

2 0
 s    3 1.00
             18.731137    0.03349459952309
             2.8253937    0.23472694665786
             0.6401217    0.81375731841339
 s    1 1.00
             0.1612778                   1

3 0
 s    6 1.00
             3047.5249  0.0018347001629433
             457.36951    0.01403730124668
             103.94869   0.068842606114048
             29.210155    0.23218442062076
              9.286663    0.46794134155879
              3.163927    0.36231203217765
 s    3 1.00
             7.8682724   -0.11933240861517
             1.8812885   -0.16085421161283
             0.5442493     1.1434564825515
 s    1 1.00
             0.1687144                   1
 p    3 1.00
             7.8682724   0.068999095584993
             1.8812885    0.31642397975315
             0.5442493    0.74430825237435
 p    1 1.00
             0.1687144                   1
 d    1 1.00
                   0.8                   1

4 0
 s    3 1.00
             18.731137    0.03349459952309
             2.8253937    0.23472694665786
             0.6401217    0.81375731841339
 s    1 1.00
             0.1612778                   1

5 0
 s    6 1.00
             3047.5249  0.0018347001629433
             457.36951    0.01403730124668
             103.94869   0.068842606114048
             29.210155    0.23218442062076
              9.286663    0.46794134155879
              3.163927    0.36231203217765
 s    3 1.00
             7.8682724   -0.11933240861517
             1.8812885   -0.16085421161283
             0.5442493     1.1434564825515
 s    1 1.00
             0.1687144                   1
 p    3 1.00
             7.8682724   0.068999095584993
             1.8812885    0.31642397975315
             0.5442493    0.74430825237435
 p    1 1.00
             0.1687144                   1
 d    1 1.00
                   0.8                   1

6 0
 s    3 1.00
             18.731137    0.03349459952309
             2.8253937    0.23472694665786
             0.6401217    0.81375731841339
 s    1 1.00
             0.1612778                   1

7 0
 s    6 1.00
             3047.5249  0.0018347001629433
             457.36951    0.01403730124668
             103.94869   0.068842606114048
             29.210155    0.23218442062076
              9.286663    0.46794134155879
              3.163927    0.36231203217765
 s    3 1.00
             7.8682724   -0.11933240861517
             1.8812885   -0.16085421161283
             0.5442493     1.1434564825515
 s    1 1.00
             0.1687144                   1
 p    3 1.00
             7.8682724   0.068999095584993
             1.8812885    0.31642397975315
             0.5442493    0.74430825237435
 p    1 1.00
             0.1687144                   1
 d    1 1.00
                   0.8                   1

8 0
 s    3 1.00
             18.731137    0.03349459952309
             2.8253937    0.23472694665786
             0.6401217    0.81375731841339
 s    1 1.00
             0.1612778                   1

9 0
 s    3 1.00
             18.731137    0.03349459952309
             2.8253937    0.23472694665786
             0.6401217    0.81375731841339
 s    1 1.00
             0.1612778                   1

10 0
 s    6 1.00
             3047.5249  0.0018347001629433
             457.36951    0.01403730124668
             103.94869   0.068842606114048
             29.210155    0.23218442062076
              9.286663    0.46794134155879
              3.163927    0.36231203217765
 s    3 1.00
             7.8682724   -0.11933240861517
             1.8812885   -0.16085421161283
             0.5442493     1.1434564825515
 s    1 1.00
             0.1687144                   1
 p    3 1.00
             7.8682724   0.068999095584993
             1.8812885    0.31642397975315
             0.5442493    0.74430825237435
 p    1 1.00
             0.1687144                   1
 d    1 1.00
                   0.8                   1

11 0
 s    3 1.00
             18.731137    0.03349459952309
             2.8253937    0.23472694665786
             0.6401217    0.81375731841339
 s    1 1.00
             0.1612778                   1

12 0
 s    6 1.00
             3047.5249  0.0018347001629433
             457.36951    0.01403730124668
             103.94869   0.068842606114048
             29.210155    0.23218442062076
              9.286663    0.46794134155879
              3.163927    0.36231203217765
 s    3 1.00
             7.8682724   -0.11933240861517
             1.8812885   -0.16085421161283
             0.5442493     1.1434564825515
 s    1 1.00
             0.1687144                   1
 p    3 1.00
             7.8682724   0.068999095584993
             1.8812885    0.31642397975315
             0.5442493    0.74430825237435
 p    1 1.00
             0.1687144                   1
 d    1 1.00
                   0.8                   1

13 0
 s    3 1.00
             18.731137    0.03349459952309
             2.8253937    0.23472694665786
             0.6401217    0.81375731841339
 s    1 1.00
             0.1612778                   1

14 0
 s    3 1.00
             18.731137    0.03349459952309
             2.8253937    0.23472694665786
             0.6401217    0.81375731841339
 s    1 1.00
             0.1612778                   1

15 0
 s    6 1.00
             3047.5249  0.0018347001629433
             457.36951    0.01403730124668
             103.94869   0.068842606114048
             29.210155    0.23218442062076
              9.286663    0.46794134155879
              3.163927    0.36231203217765
 s    3 1.00
             7.8682724   -0.11933240861517
             1.8812885   -0.16085421161283
             0.5442493     1.1434564825515
 s    1 1.00
             0.1687144                   1
 p    3 1.00
             7.8682724   0.068999095584993
             1.8812885    0.31642397975315
             0.5442493    0.74430825237435
 p    1 1.00
             0.1687144                   1
 d    1 1.00
                   0.8                   1

16 0
 s    6 1.00
             3047.5249  0.0018347001629433
             457.36951    0.01403730124668
             103.94869   0.068842606114048
             29.210155    0.23218442062076
              9.286663    0.46794134155879
              3.163927    0.36231203217765
 s    3 1.00
             7.8682724   -0.11933240861517
             1.8812885   -0.16085421161283
             0.5442493     1.1434564825515
 s    1 1.00
             0.1687144                   1
 p    3 1.00
             7.8682724   0.068999095584993
             1.8812885    0.31642397975315
             0.5442493    0.74430825237435
 p    1 1.00
             0.1687144                   1
 d    1 1.00
                   0.8                   1

17 0
 s    6 1.00
             3047.5249  0.0018347001629433
             457.36951    0.01403730124668
             103.94869   0.068842606114048
             29.210155    0.23218442062076
              9.286663    0.46794134155879
              3.163927    0.36231203217765
 s    3 1.00
             7.8682724   -0.11933240861517
             1.8812885   -0.16085421161283
             0.5442493     1.1434564825515
 s    1 1.00
             0.1687144                   1
 p    3 1.00
             7.8682724   0.068999095584993
             1.8812885    0.31642397975315
             0.5442493    0.74430825237435
 p    1 1.00
             0.1687144                   1
 d    1 1.00
                   0.8                   1

18 0
 s    6 1.00
             3047.5249  0.0018347001629433
             457.36951    0.01403730124668
             103.94869   0.068842606114048
             29.210155    0.23218442062076
              9.286663    0.46794134155879
              3.163927    0.36231203217765
 s    3 1.00
             7.8682724   -0.11933240861517
             1.8812885   -0.16085421161283
             0.5442493     1.1434564825515
 s    1 1.00
             0.1687144                   1
 p    3 1.00
             7.8682724   0.068999095584993
             1.8812885    0.31642397975315
             0.5442493    0.74430825237435
 p    1 1.00
             0.1687144                   1
 d    1 1.00
                   0.8                   1

19 0
 s    6 1.00
             3047.5249  0.0018347001629433
             457.36951    0.01403730124668
             103.94869   0.068842606114048
             29.210155    0.23218442062076
              9.286663    0.46794134155879
              3.163927    0.36231203217765
 s    3 1.00
             7.8682724   -0.11933240861517
             1.8812885   -0.16085421161283
             0.5442493     1.1434564825515
 s    1 1.00
             0.1687144                   1
 p    3 1.00
             7.8682724   0.068999095584993
             1.8812885    0.31642397975315
             0.5442493    0.74430825237435
 p    1 1.00
             0.1687144                   1
 d    1 1.00
                   0.8                   1

20 0
 s    6 1.00
             3047.5249  0.0018347001629433
             457.36951    0.01403730124668
             103.94869   0.068842606114048
             29.210155    0.23218442062076
              9.286663    0.46794134155879
              3.163927    0.36231203217765
 s    3 1.00
             7.8682724   -0.11933240861517
             1.8812885   -0.16085421161283
             0.5442493     1.1434564825515
 s    1 1.00
             0.1687144                   1
 p    3 1.00
             7.8682724   0.068999095584993
             1.8812885    0.31642397975315
             0.5442493    0.74430825237435
 p    1 1.00
             0.1687144                   1
 d    1 1.00
                   0.8                   1

21 0
 s    6 1.00
             3047.5249  0.0018347001629433
             457.36951    0.01403730124668
             103.94869   0.068842606114048
             29.210155    0.23218442062076
              9.286663    0.46794134155879
              3.163927    0.36231203217765
 s    3 1.00
             7.8682724   -0.11933240861517
             1.8812885   -0.16085421161283
             0.5442493     1.1434564825515
 s    1 1.00
             0.1687144                   1
 p    3 1.00
             7.8682724   0.068999095584993
             1.8812885    0.31642397975315
             0.5442493    0.74430825237435
 p    1 1.00
             0.1687144                   1
 d    1 1.00
                   0.8                   1

22 0
 s    3 1.00
             18.731137    0.03349459952309
             2.8253937    0.23472694665786
             0.6401217    0.81375731841339
 s    1 1.00
             0.1612778                   1

23 0
 s    3 1.00
             18.731137    0.03349459952309
             2.8253937    0.23472694665786
             0.6401217    0.81375731841339
 s    1 1.00
             0.1612778                   1

24 0
 s    3 1.00
             18.731137    0.03349459952309
             2.8253937    0.23472694665786
             0.6401217    0.81375731841339
 s    1 1.00
             0.1612778                   1

25 0
 s    3 1.00
             18.731137    0.03349459952309
             2.8253937    0.23472694665786
             0.6401217    0.81375731841339
 s    1 1.00
             0.1612778                   1

26 0
 s    3 1.00
             18.731137    0.03349459952309
             2.8253937    0.23472694665786
             0.6401217    0.81375731841339
 s    1 1.00
             0.1612778                   1

27 0
 s    3 1.00
             18.731137    0.03349459952309
             2.8253937    0.23472694665786
             0.6401217    0.81375731841339
 s    1 1.00
             0.1612778                   1

28 0
 s    3 1.00
             18.731137    0.03349459952309
             2.8253937    0.23472694665786
             0.6401217    0.81375731841339
 s    1 1.00
             0.1612778                   1

29 0
 s    3 1.00
             18.731137    0.03349459952309
             2.8253937    0.23472694665786
             0.6401217    0.81375731841339
 s    1 1.00
             0.1612778                   1

30 0
 s    3 1.00
             18.731137    0.03349459952309
             2.8253937    0.23472694665786
             0.6401217    0.81375731841339
 s    1 1.00
             0.1612778                   1

31 0
 s    3 1.00
             18.731137    0.03349459952309
             2.8253937    0.23472694665786
             0.6401217    0.81375731841339
 s    1 1.00
             0.1612778                   1

32 0
 s    3 1.00
             18.731137    0.03349459952309
             2.8253937    0.23472694665786
             0.6401217    0.81375731841339
 s    1 1.00
             0.1612778                   1

33 0
 s    6 1.00
             3047.5249  0.0018347001629433
             457.36951    0.01403730124668
             103.94869   0.068842606114048
             29.210155    0.23218442062076
              9.286663    0.46794134155879
              3.163927    0.36231203217765
 s    3 1.00
             7.8682724   -0.11933240861517
             1.8812885   -0.16085421161283
             0.5442493     1.1434564825515
 s    1 1.00
             0.1687144                   1
 p    3 1.00
             7.8682724   0.068999095584993
             1.8812885    0.31642397975315
             0.5442493    0.74430825237435
 p    1 1.00
             0.1687144                   1
 d    1 1.00
                   0.8                   1

34 0
 s    6 1.00
             3047.5249  0.0018347001629433
             457.36951    0.01403730124668
             103.94869   0.068842606114048
             29.210155    0.23218442062076
              9.286663    0.46794134155879
              3.163927    0.36231203217765
 s    3 1.00
             7.8682724   -0.11933240861517
             1.8812885   -0.16085421161283
             0.5442493     1.1434564825515
 s    1 1.00
             0.1687144                   1
 p    3 1.00
             7.8682724   0.068999095584993
             1.8812885    0.31642397975315
             0.5442493    0.74430825237435
 p    1 1.00
             0.1687144                   1
 d    1 1.00
                   0.8                   1

35 0
 s    3 1.00
             18.731137    0.03349459952309
             2.8253937    0.23472694665786
             0.6401217    0.81375731841339
 s    1 1.00
             0.1612778                   1

36 0
 s    6 1.00
             3047.5249  0.0018347001629433
             457.36951    0.01403730124668
             103.94869   0.068842606114048
             29.210155    0.23218442062076
              9.286663    0.46794134155879
              3.163927    0.36231203217765
 s    3 1.00
             7.8682724   -0.11933240861517
             1.8812885   -0.16085421161283
             0.5442493     1.1434564825515
 s    1 1.00
             0.1687144                   1
 p    3 1.00
             7.8682724   0.068999095584993
             1.8812885    0.31642397975315
             0.5442493    0.74430825237435
 p    1 1.00
             0.1687144                   1
 d    1 1.00
                   0.8                   1

37 0
 s    3 1.00
             18.731137    0.03349459952309
             2.8253937    0.23472694665786
             0.6401217    0.81375731841339
 s    1 1.00
             0.1612778                   1

38 0
 s    3 1.00
             18.731137    0.03349459952309
             2.8253937    0.23472694665786
             0.6401217    0.81375731841339
 s    1 1.00
             0.1612778                   1

39 0
 s    6 1.00
             3047.5249  0.0018347001629433
             457.36951    0.01403730124668
             103.94869   0.068842606114048
             29.210155    0.23218442062076
              9.286663    0.46794134155879
              3.163927    0.36231203217765
 s    3 1.00
             7.8682724   -0.11933240861517
             1.8812885   -0.16085421161283
             0.5442493     1.1434564825515
 s    1 1.00
             0.1687144                   1
 p    3 1.00
             7.8682724   0.068999095584993
             1.8812885    0.31642397975315
             0.5442493    0.74430825237435
 p    1 1.00
             0.1687144                   1
 d    1 1.00
                   0.8                   1

40 0
 s    6 1.00
             3047.5249  0.0018347001629433
             457.36951    0.01403730124668
             103.94869   0.068842606114048
             29.210155    0.23218442062076
              9.286663    0.46794134155879
              3.163927    0.36231203217765
 s    3 1.00
             7.8682724   -0.11933240861517
             1.8812885   -0.16085421161283
             0.5442493     1.1434564825515
 s    1 1.00
             0.1687144                   1
 p    3 1.00
             7.8682724   0.068999095584993
             1.8812885    0.31642397975315
             0.5442493    0.74430825237435
 p    1 1.00
             0.1687144                   1
 d    1 1.00
                   0.8                   1

41 0
 s    3 1.00
             18.731137    0.03349459952309
             2.8253937    0.23472694665786
             0.6401217    0.81375731841339
 s    1 1.00
             0.1612778                   1

42 0
 s    6 1.00
             5484.6717   0.001831099805527
             825.23495   0.013950098518422
             188.04696    0.06844509273075
               52.9645    0.23271427528445
              16.89757    0.47019295006289
             5.7996353    0.35852086192309
 s    3 1.00
             15.539616   -0.11077750382508
             3.5999336   -0.14802630511126
             1.0137618     1.1307670390447
 s    1 1.00
             0.2700058                   1
 p    3 1.00
             15.539616   0.070874299543311
             3.5999336    0.33975279781076
             1.0137618    0.72715859531445
 p    1 1.00
             0.2700058                   1
 d    1 1.00
                   0.8                   1

43 0
 s    3 1.00
             18.731137    0.03349459952309
             2.8253937    0.23472694665786
             0.6401217    0.81375731841339
 s    1 1.00
             0.1612778                   1

[5d]
[7f]
[9g]

[MO]
 Sym= A
 Ene=               0
 Spin= Alpha
 Occup=    1.00000
   1    7.980675536067e-07
   2    2.1533814711428e-05
   3    -2.618701966941e-05
   4    2.5819092325247e-06
   5    4.4772924074779e-06
   6    -1.7144238452883e-05
   7    -1.96118860814e-05
   8    -7.8025663084519e-05
   9    0.00036275831394039
  10    -3.6386994420219e-07
  11    -1.0905317903736e-05
  12    -2.7210527054166e-06
  13    -1.3548663967486e-05
  14    7.3559693829288e-06
  15    1.3748320691962e-05
  16    -1.9347434119402e-05
  17    -4.5611205199534e-06
  18    -0.00016170562045432
  19    -0.00042233323237127
  20    -5.8268325824069e-05
  21    9.8775871742374e-06
  22    7.7025476042587e-05
  23    -0.00015781459694173
  24    9.2677383166353e-05
  25    0.00061997743578991
  26    -2.0692174344391e-05
  27    2.2710978770933e-05
  28    -7.9934501395228e-06
  29    -4.1672083569166e-05
  30    4.5130975650413e-06
  31    1.0316920296703e-05
  32    -2.7946230420627e-05
  33    -6.658052508521e-05
  34    -0.00033691004895468
  35    0.0043014464032568
  36    8.9047296566741e-05
  37    -4.7882550701182e-05
  38    -0.00016585207917189
  39    0.00038539346621858
  40    -0.0018894018240283
  41    -0.00056414212256143
  42    2.894527847497e-05
  43    -0.00010292282578847
  44    7.1556214646183e-05
  45    -3.1551067502361e-05
  46    -4.7405361299964e-05
  47    3.7101074650057e-06
  48    0.00025880831446726
  49    1.969429916853e-05
  50    -0.00017210140548591
  51    -0.0034777457184411
  52    -0.00019871678708638
  53    0.00023778344827144
  54    0.00031372583473515
  55    0.0015255255460523
  56    -0.0025087848657398
  57    -0.0022668846489427
  58    1.4636587930823e-05
  59    -3.8944799479202e-05
  60    -0.00018625632341982
  61    -2.1916479472682e-05
  62    0.00011664190762637
  63    -0.00030257636240284
  64    -8.3089097158659e-05
  65    2.2840347034692e-07
  66    3.9880462998536e-07
  67    5.0938414053208e-08
  68    5.2325045806001e-07
  69    -2.8843515557681e-06
  70    -2.6002562270148e-07
  71    3.5953381849564e-07
  72    -1.0209243065457e-07
  73    -2.8396025764114e-07
  74    -1.4460424068556e-06
  75    -1.9935162020681e-07
  76      4.9640105023e-08
  77    1.2258174352284e-07
  78    -4.8452437607186e-08
  79    -7.0743734655713e-08
  80    1.0025976389417e-07
  81    -8.7456709684058e-08
  82    -8.4283535898977e-08
  83    2.7128022881317e-09
  84    1.1299317931055e-07
  85    1.2280213435779e-05
  86    -5.7050317938417e-07
  87    -9.5676289736062e-08
  88    -7.4161311031183e-07
  89    -3.2813306895312e-06
  90    4.5519140433967e-06
  91    -2.7303811918616e-06
  92    -1.7429224870792e-07
  93    2.9036349487095e-07
  94    -3.0842165711559e-07
  95    -2.4598234359203e-08
  96    1.6796566484263e-07
  97    -5.0843354240932e-07
  98    -4.3098881488141e-07
  99    -2.9364475921031e-08
 100    8.8311145695061e-07
 101    1.4242755635503e-08
 102    1.1255101434636e-06
 103    -1.4221521948817e-05
 104    -6.1093930027536e-07
 105    3.5390769842973e-07
 106    5.1085558562622e-07
 107    1.8470645261624e-05
 108    -1.7802821292439e-05
 109    -2.8127214958007e-05
 110    5.5512849170348e-07
 111    4.891011113048e-07
 112    -2.3194402508417e-07
 113    -4.086897905865e-07
 114    4.7924327964754e-07
 115    4.8756337360626e-07
 116    4.3711073654802e-06
 117    -3.514792225025e-05
 118    6.4705038774383e-07
 119    -1.0608538072366e-06
 120    -6.8034793153921e-07
 121    7.8392217479065e-06
 122    -5.9746230794252e-07
 123    -2.2028997900715e-06
 124    5.3333601966934e-08
 125    1.6665780629791e-07
 126    1.2591857425473e-07
 127    -5.0289981325684e-08
 128    3.4160810840683e-07
 129    8.5753188160302e-07
 130    8.5345603541647e-06
 131    -4.6905025099313e-05
 132    8.1365425375163e-08
 133    1.0771068084583e-06
 134    -3.5470067497972e-06
 135    2.4627925512627e-05
 136    -1.2933872975051e-06
 137    7.5787066291438e-05
 138    -2.3767357019741e-06
 139    -1.4101154227551e-06
 140    -3.4671552766447e-07
 141    -4.1140366201256e-07
 142    -1.5292501009113e-07
 143    4.418004357961e-07
 144    3.2349518413821e-06
 145    -1.7433539345054e-05
 146    -4.8523457406715e-07
 147    -6.0624538852578e-07
 148    -1.139257687042e-07
 149    -1.085079761499e-05
 150    6.4604601823632e-06
 151    2.3785790907542e-06
 152    1.0065009411448e-06
 153    3.3047295452181e-07
 154    9.1794729585578e-08
 155    -6.6778196064745e-07
 156    6.9810740475793e-07
 157    -2.5963357396066e-08
 158    -9.6684198131327e-07
 159     -1.3744639171e-06
 160    -7.4765170254252e-07
 161    2.7502009744522e-07
 162    1.4170596223302e-07
 163    5.9914851576774e-06
 164    -6.2173429748461e-08
 165    -7.8375823288435e-07
 166    -3.9046453600721e-07
 167    1.037982940355e-07
 168    5.5465676786123e-09
 169    1.0983123882512e-07
 170    -2.5808308117401e-07
 171    -5.6090194358555e-08
 172    4.6763405331638e-07
 173    1.7898031010021e-06
 174    7.7198191782651e-07
 175     2.14071538865e-07
 176    -7.7177145518452e-07
 177    3.4059908927188e-07
 178    -1.3092760763694e-06
 179    1.9095850157439e-06
 180    -1.4339907272583e-07
 181    -1.8401180554013e-07
 182    -5.5786032267729e-09
 183    3.5663593020423e-07
 184    -1.6680644005564e-07
 185    2.6923192224681e-07
 186    2.933150938389e-06
 187    -2.176072955942e-06
 188    1.8052805118819e-07
 189    -1.3888456082819e-07
 190    -1.1392422071558e-06
 191    -2.4353436259179e-06
 192    -8.9571475521241e-07
 193    5.4166091724461e-06
 194    -3.4045922721122e-07
 195    4.6316354335451e-08
 196    -1.5108244882288e-07
 197    -6.6685260277438e-08
 198    9.0155286102789e-08
 199    7.6507563280236e-07
 200    1.3697696623812e-06
 201    -1.2115016763665e-07
 202    -3.3841619766358e-06
 203    1.6198605383694e-06
 204    1.7920762046758e-06
 205    3.9095170093835e-07
 206    2.5245034281374e-06
 207    -1.4431454021981e-06
 208    1.2101432634427e-05
 209    -1.0718529089856e-06
 210    4.1192342484092e-06
 211    -4.3701325532428e-07
 212    -2.6478941565279e-06
 213    3.0895532091835e-07
 214    2.4132300662815e-06
 215    5.3469235436238e-07
 216    -5.3000395197349e-07
 217    -3.8319391144821e-07
 218    -1.1098564914523e-06
 219    -2.1721460300133e-07
 220    -1.000343050062e-06
 221    8.3493246480776e-07
 222    7.8437677155925e-06
 223    2.3225609835975e-06
 224    -8.1237440180215e-07
 225    2.0594692441342e-06
 226    -2.8377376709392e-06
 227    -1.4455089764919e-05
 228    -2.3701707147208e-05
 229    9.0142162378483e-05
 230    1.1013295912662e-06
 231    3.8413483854855e-06
 232    2.0622915276989e-06
 233    -1.7030669213511e-06
 234    -2.7774942483773e-06
 235    9.912250615255e-07
 236    1.1837610000771e-05
 237    -2.5237032559928e-05
 238    1.5322730009512e-06
 239    -5.1585945073177e-06
 240    -5.2441902999605e-06
 241    2.0191339767825e-05
 242    6.4339308569601e-06
 243    9.0278608007974e-05
 244    -1.886782533447e-06
 245    -6.6174040647483e-06
 246    -1.9277751291274e-06
 247    -2.4404674662329e-06
 248    -1.6678004005188e-06
 249    3.7364107590189e-06
 250    -1.0661443273685e-05
 251    4.1404182778691e-06
 252    2.8542619073448e-05
 253    -0.00022916761243247
 254    -3.6503891120065e-06
 255    7.2158772894303e-06
 256    -6.4322368643592e-06
 257    -0.00010032140322164
 258    -0.00010565109636011
 259    0.0002279615126753
 260    -1.5449986937148e-06
 261    1.1657991775309e-05
 262    5.3999011474259e-06
 263    -7.1063071957599e-06
 264    -6.2378451790624e-06
 265    4.8164886333781e-06
 266    -2.6600975533719e-05
 267    8.173340857442e-06
 268    -3.8617334780285e-05
 269    6.9202010883073e-05
 270    8.3999270935943e-05
 271    -0.0030572494376204
 272    3.8983320103744e-05
 273    0.00020788094922854
 274    -4.3068149137854e-05
 275    -0.0020125641672929
 276    -0.00057128272641538
 277    0.0032431865724599
 278    -0.00022432129264468
 279    0.00020306403891315