[Molden Format]
made by pyscf v[2.0.1]
[Atoms] (AU)
C   1   6    -0.00491185910195    -0.00302299034612    -6.30478139015019
O   2   8    -0.00302499062123    -0.00226824280266    -4.17507277885027
[GTO]
1 0
 s    5 1.00
          1238.4016938  0.0055173650481097
          186.29004992   0.041088828555946
          42.251176346     0.1822538212649
          11.676557932    0.46828459437429
          3.5930506482    0.44575817336002
 s    1 1.00
         0.40245147363                   1
 s    1 1.00
         0.13090182668                   1
 p    3 1.00
          9.4680970621   0.056888332011037
          2.0103545142    0.31294059336471
         0.54771004707    0.76065016509135
 p    1 1.00
         0.15268613795                   1
 d    1 1.00
                   0.8                   1

2 0
 s    5 1.00
          2266.1767785  -0.0053893503921743
          340.87010191   -0.04023472138896
          77.363135167   -0.18008184205526
           21.47964494   -0.46828857657651
          6.6589433124   -0.44692617160187
 s    1 1.00
         0.80975975668                   1
 s    1 1.00
         0.25530772234                   1
 p    3 1.00
          17.721504317   0.062630248763161
           3.863550544    0.33331138482352
          1.0480920883    0.74148638308122
 p    1 1.00
         0.27641544411                   1
 d    1 1.00
                   1.2                   1

[5d]
[7f]
[9g]

[MO]
 Sym= A
 Ene=               0
 Spin= Alpha
 Occup=    1.00000
   1    0.00046105880408409
   2    0.00024464386514817
   3     0.010412912168049
   4    -2.0144433461345e-06
   5    -8.057774976774e-07
   6    -0.0022737354198469
   7    6.5780517449166e-06
   8    2.6312212233791e-06
   9    0.0074246504320262
  10    -0.0024296636100362
  11    -3.7283955804059e-06
  12    -1.4913585270976e-06
  13    -1.3874057899809e-09
  14    -1.3212008676121e-09
  15      -0.9883637874402
  16     0.043175110712992
  17     -0.02822278802781
  18    -2.9965985232072e-06
  19    -1.1986396797211e-06
  20    -0.0033818875674571
  21    4.6741296419756e-06
  22    1.8696522392007e-06
  23    0.0052756422955499
  24    0.00089903899961843
  25    1.3797539522406e-06
  26    5.5190170332946e-07
  27    5.1539279508175e-10
  28    4.8798178322841e-10
 Sym= A
 Ene=               1
 Spin= Alpha
 Occup=    1.00000
   1       0.9885768488405
   2     0.045227337598104
   3    -0.0087844942374669
   4    5.5775880419647e-06
   5    2.2310357047913e-06
   6    0.0062955039101541
   7    3.790786230099e-06
   8    1.5163147844879e-06
   9    0.0042785714336318
  10    0.0029516515635915
  11    4.5294300180011e-06
  12    1.8117723872675e-06
  13    1.6859373740184e-09
  14    1.6046978178605e-09
  15    0.00027224478392557
  16    -0.0010464220554091
  17    -0.010938494919719
  18    1.3984482157663e-06
  19     5.59379392766e-07
  20    0.0015785477742368
  21    7.3468861475371e-06
  22    2.9387550418076e-06
  23    0.0082924326763206
  24    -0.00028095610899834
  25    -4.3086374352749e-07
  26    -1.7234551498278e-07
  27    -1.611600428872e-10
  28    -1.5185813017412e-10
 Sym= A
 Ene=               2
 Spin= Alpha
 Occup=    1.00000
   1      0.14949835136072
   2     -0.28551763749011
   3    -0.030434253178051
   4    -0.00020166038517979
   5    -8.0664170396076e-05
   6     -0.22761427587145
   7    -1.244250969673e-05
   8    -4.977004833631e-06
   9    -0.014044142906937
  10    -0.032077915930802
  11    -4.922341179085e-05
  12    -1.9689368716896e-05
  13    -1.8355087579224e-08
  14    -1.7425821345925e-08
  15     -0.26456881718981
  16     -0.52555415586806
  17     -0.22473025014143
  18    0.00016773602056241
  19    6.709442150688e-05
  20      0.18932575249928
  21    1.4497153711428e-05
  22    5.7988626651546e-06
  23     0.016362998013081
  24    -0.014962409910922
  25    -2.2960920010784e-05
  26    -9.1843698873046e-06
  27    -8.5390566776728e-09
  28    -8.1421459723295e-09
 Sym= A
 Ene=               3
 Spin= Alpha
 Occup=    1.00000
   1     -0.16952915493492
   2      0.38206866304996
   3     0.098826129989672
   4    0.00011252253925997
   5    4.5009024686308e-05
   6      0.12700379643953
   7    -2.4840516540607e-05
   8    -9.9362087336059e-06
   9    -0.028036010003891
  10    0.0048285739106078
  11    7.4104310472518e-06
  12    2.9641730827357e-06
  13    2.7916754022025e-09
  14    2.6141812613352e-09
  15     -0.15630816462234
  16     -0.33046013222042
  17     -0.36881479516264
  18    -0.00043350289808081
  19    -0.00017340119484781
  20     -0.48928258223429
  21    -0.00020572122562394
  22    -8.2288507127832e-05
  23     -0.23219117612867
  24     0.023369017602401
  25    3.5863495714684e-05
  26    1.4345401264681e-05
  27    1.3330459451423e-08
  28    1.2718056702169e-08
 Sym= A
 Ene=               4
 Spin= Alpha
 Occup=    1.00000
   1    7.0399507734093e-09
   2    -1.8861802433513e-08
   3    -3.8697850036858e-09
   4     -0.33604056552372
   5    0.0071320803323782
   6    0.00029520558897375
   7     -0.13207815477727
   8     0.002803209203683
   9    0.00011602882057681
  10    6.6740130239082e-05
  11    -0.043861250666902
  12    0.00093091975211713
  13    -3.9192457850698e-05
  14    -1.4718864675481e-05
  15    2.6903151282547e-09
  16    4.6233116647363e-09
  17    2.1979864611938e-09
  18     -0.55931170033035
  19     0.011870757151879
  20    0.00049132991389225
  21      -0.3291318843868
  22    0.0069854513529959
  23    0.00028912912498691
  24    -4.0031560384174e-05
  25      0.02631136470639
  26    -0.00055843751940907
  27    2.3510923443118e-05
  28    8.8284624256441e-06
 Sym= A
 Ene=               5
 Spin= Alpha
 Occup=    1.00000
   1    -2.990963057322e-09
   2    8.0137462079436e-09
   3    1.6439974232664e-09
   4    0.0071319723874025
   5      0.33604067399169
   6    -0.00012541230004504
   7    0.0028031668016512
   8      0.13207819747945
   9    -4.9292567206574e-05
  10    -2.8353234252073e-05
  11    0.00093087747608776
  12     0.043861293089756
  13    -1.4720220346178e-05
  14    3.9188902530547e-05
  15    -1.1431614818514e-09
  16    -1.9645134761714e-09
  17    -9.3461600298728e-10
  18     0.011870577672557
  19      0.55931188092097
  20    -0.00020873187124154
  21    0.0069853457287601
  22      0.32913199083744
  23    -0.00012283083428918
  24    1.7006622586247e-05
  25    -0.00055841221061744
  26    -0.026311390246536
  27    8.8304226263507e-06
  28    -2.3505736296381e-05
 Sym= A
 Ene=               6
 Spin= Alpha
 Occup=    1.00000
   1     -0.18468318914913
   2      0.39347358801425
   3      0.50196616555498
   4    -0.00039411380783628
   5    -0.00015764555490588
   6     -0.44484042309362
   7    -0.00012138949561041
   8    -4.8555808002101e-05
   9     -0.13700576421722
  10     -0.03337163957462
  11    -5.1205825426207e-05
  12    -2.0482334285289e-05
  13    -1.9075654005805e-08
  14    -1.8131075324479e-08
  15    -0.020376200145407
  16    -0.054339464640235
  17    -0.0074550621745945
  18    0.00023672508088666
  19    9.4690051623793e-05
  20      0.26720979711456
  21    0.00011560043121309
  22    4.6240181897429e-05
  23      0.13049085229213
  24    -0.0048102147504282
  25    -7.3811707540327e-06
  26    -2.9524689476696e-06
  27    -2.7346861581016e-09
  28    -2.6227480714138e-09
