[Molden Format]
made by pyscf v[2.0.1]
[Atoms] (AU)
O   1   8     0.00000000000000     0.00000000000000     9.42996968581551
H   2   1     0.00000000000000     0.00000000000000     7.60656786391454
H   3   1    -0.05031916615174     1.78353065140343     9.80584138228218
O   4   8     0.00000000000000     0.00000000000000     2.31533471513237
C   5   6     0.00000000000000     0.00000000000000     0.00000000000000
C   6   6     2.01118073026938    -1.40227222164369    -1.50774939176400
C   7   6    -2.01249334291722     1.41331050329955    -1.50315905028694
H   8   1     3.32037363730244    -2.26721897153159    -0.13599698591495
C   9   6     3.45899267434009     0.28739631745591    -3.37437943254505
H   10   1     1.07662969841332    -2.94725144642667    -2.56541439481080
H   11   1    -2.67503415753480     0.18421555839588    -3.06194479365997
H   12   1    -1.07974048864772     3.03851734677796    -2.43674295017013
C   13   6    -4.21607110578555     2.32938802552922     0.11994162256091
H   14   1     4.24440173074564     1.93368664142019    -2.34976285512790
H   15   1     2.15020713235517     1.04714335134846    -4.81494497423699
C   16   6     5.60746363007797    -1.12419643481196    -4.70268606082550
H   17   1    -3.46838323670267     3.50951302338067     1.66946842715333
H   18   1    -5.11873485366228     0.68575958301209     1.04047743976495
C   19   6    -6.18314754751344     3.80909592987882    -1.39656589068747
H   20   1     6.93011263717176    -1.87550812453645    -3.26656317360070
C   21   6     7.06356622236532     0.52877932406334    -6.57829775293605
H   22   1     4.82318879258361    -2.78573437948532    -5.70504560381835
H   23   1    -6.91582688743803     2.61304780074712    -2.95074552451969
H   24   1    -5.26532430573853     5.45420349051338    -2.31005832200284
C   25   6    -8.39941882261433     4.73263980500213     0.21800571437956
H   26   1     7.83338371486801     2.19084139882824    -5.57093109900697
H   27   1     5.73544244039420     1.27376866537418    -8.01071492370229
C   28   6     9.21124858443101    -0.89699110072176    -7.88926949186242
H   29   1    -7.66272760055236     5.92277078003992     1.77035591474408
H   30   1    -9.31497248082589     3.08753015622020     1.12614408368786
C   31   6   -10.35481709231879     6.21833079391143    -1.30905206253246
H   32   1    10.58815905329501    -1.61074586756696    -6.49512691622620
H   33   1    10.23506248045667     0.32468009384095    -9.23072870921204
H   34   1     8.47665842847139    -2.53598436989925    -8.94921964622535
H   35   1    -9.48948872868064     7.90013588951020    -2.18823918416067
H   36   1   -11.93332513000955     6.86460487874102    -0.11255798845995
H   37   1   -11.15126291841033     5.04495968327630    -2.83849898862534
[GTO]
1 0
 s    8 1.00
                 11720  0.00070964594651845
                  1759  0.0054672722921914
                 400.8   0.027823118610189
                 113.7    0.10474773971146
                 37.03    0.28292084635691
                 13.27    0.44849523869833
                 5.025    0.27081688521277
                 1.013    0.01545029160744
 s    8 1.00
                 11720  -0.00031444341168873
                  1759  -0.0024821376810179
                 400.8  -0.012316355381583
                 113.7  -0.050538917343672
                 37.03   -0.13938490331632
                 13.27   -0.32507749481778
                 5.025   -0.22984830758785
                 1.013     1.0953793467883
 s    1 1.00
                0.3023                   1
 p    3 1.00
                  17.7   0.062679166281506
                 3.854    0.33353656587936
                 1.046    0.74123964163973
 p    1 1.00
                0.2753                   1
 d    1 1.00
                 1.185                   1

2 0
 s    3 1.00
                 13.01   0.033498726389998
                 1.962    0.23480080117413
                0.4446     0.8136829578829
 s    1 1.00
                 0.122                   1
 p    1 1.00
                 0.727                   1

3 0
 s    3 1.00
                 13.01   0.033498726389998
                 1.962    0.23480080117413
                0.4446     0.8136829578829
 s    1 1.00
                 0.122                   1
 p    1 1.00
                 0.727                   1

4 0
 s    8 1.00
                 11720  0.00070964594651845
                  1759  0.0054672722921914
                 400.8   0.027823118610189
                 113.7    0.10474773971146
                 37.03    0.28292084635691
                 13.27    0.44849523869833
                 5.025    0.27081688521277
                 1.013    0.01545029160744
 s    8 1.00
                 11720  -0.00031444341168873
                  1759  -0.0024821376810179
                 400.8  -0.012316355381583
                 113.7  -0.050538917343672
                 37.03   -0.13938490331632
                 13.27   -0.32507749481778
                 5.025   -0.22984830758785
                 1.013     1.0953793467883
 s    1 1.00
                0.3023                   1
 p    3 1.00
                  17.7   0.062679166281506
                 3.854    0.33353656587936
                 1.046    0.74123964163973
 p    1 1.00
                0.2753                   1
 d    1 1.00
                 1.185                   1

5 0
 s    8 1.00
                  6665  0.00069158396281299
                  1000  0.0053257961529341
                   228   0.027060721042034
                 64.71    0.10165684614077
                 21.06     0.2745748236174
                 7.495    0.44829431892377
                 2.797    0.28490261071525
                0.5215   0.015194859206082
 s    8 1.00
                  6665  -0.00029326965268655
                  1000  -0.0023180354739745
                   228  -0.011499786038565
                 64.71  -0.046826727009787
                 21.06   -0.12846616875047
                 7.495   -0.30126627246289
                 2.797   -0.25563070233011
                0.5215      1.093793361012
 s    1 1.00
                0.1596                   1
 p    3 1.00
                 9.439   0.056979251590039
                 2.002    0.31320721150073
                0.5456    0.76037674173753
 p    1 1.00
                0.1517                   1
 d    1 1.00
                  0.55                   1

6 0
 s    8 1.00
                  6665  0.00069158396281299
                  1000  0.0053257961529341
                   228   0.027060721042034
                 64.71    0.10165684614077
                 21.06     0.2745748236174
                 7.495    0.44829431892377
                 2.797    0.28490261071525
                0.5215   0.015194859206082
 s    8 1.00
                  6665  -0.00029326965268655
                  1000  -0.0023180354739745
                   228  -0.011499786038565
                 64.71  -0.046826727009787
                 21.06   -0.12846616875047
                 7.495   -0.30126627246289
                 2.797   -0.25563070233011
                0.5215      1.093793361012
 s    1 1.00
                0.1596                   1
 p    3 1.00
                 9.439   0.056979251590039
                 2.002    0.31320721150073
                0.5456    0.76037674173753
 p    1 1.00
                0.1517                   1
 d    1 1.00
                  0.55                   1

7 0
 s    8 1.00
                  6665  0.00069158396281299
                  1000  0.0053257961529341
                   228   0.027060721042034
                 64.71    0.10165684614077
                 21.06     0.2745748236174
                 7.495    0.44829431892377
                 2.797    0.28490261071525
                0.5215   0.015194859206082
 s    8 1.00
                  6665  -0.00029326965268655
                  1000  -0.0023180354739745
                   228  -0.011499786038565
                 64.71  -0.046826727009787
                 21.06   -0.12846616875047
                 7.495   -0.30126627246289
                 2.797   -0.25563070233011
                0.5215      1.093793361012
 s    1 1.00
                0.1596                   1
 p    3 1.00
                 9.439   0.056979251590039
                 2.002    0.31320721150073
                0.5456    0.76037674173753
 p    1 1.00
                0.1517                   1
 d    1 1.00
                  0.55                   1

8 0
 s    3 1.00
                 13.01   0.033498726389998
                 1.962    0.23480080117413
                0.4446     0.8136829578829
 s    1 1.00
                 0.122                   1
 p    1 1.00
                 0.727                   1

9 0
 s    8 1.00
                  6665  0.00069158396281299
                  1000  0.0053257961529341
                   228   0.027060721042034
                 64.71    0.10165684614077
                 21.06     0.2745748236174
                 7.495    0.44829431892377
                 2.797    0.28490261071525
                0.5215   0.015194859206082
 s    8 1.00
                  6665  -0.00029326965268655
                  1000  -0.0023180354739745
                   228  -0.011499786038565
                 64.71  -0.046826727009787
                 21.06   -0.12846616875047
                 7.495   -0.30126627246289
                 2.797   -0.25563070233011
                0.5215      1.093793361012
 s    1 1.00
                0.1596                   1
 p    3 1.00
                 9.439   0.056979251590039
                 2.002    0.31320721150073
                0.5456    0.76037674173753
 p    1 1.00
                0.1517                   1
 d    1 1.00
                  0.55                   1

10 0
 s    3 1.00
                 13.01   0.033498726389998
                 1.962    0.23480080117413
                0.4446     0.8136829578829
 s    1 1.00
                 0.122                   1
 p    1 1.00
                 0.727                   1

11 0
 s    3 1.00
                 13.01   0.033498726389998
                 1.962    0.23480080117413
                0.4446     0.8136829578829
 s    1 1.00
                 0.122                   1
 p    1 1.00
                 0.727                   1

12 0
 s    3 1.00
                 13.01   0.033498726389998
                 1.962    0.23480080117413
                0.4446     0.8136829578829
 s    1 1.00
                 0.122                   1
 p    1 1.00
                 0.727                   1

13 0
 s    8 1.00
                  6665  0.00069158396281299
                  1000  0.0053257961529341
                   228   0.027060721042034
                 64.71    0.10165684614077
                 21.06     0.2745748236174
                 7.495    0.44829431892377
                 2.797    0.28490261071525
                0.5215   0.015194859206082
 s    8 1.00
                  6665  -0.00029326965268655
                  1000  -0.0023180354739745
                   228  -0.011499786038565
                 64.71  -0.046826727009787
                 21.06   -0.12846616875047
                 7.495   -0.30126627246289
                 2.797   -0.25563070233011
                0.5215      1.093793361012
 s    1 1.00
                0.1596                   1
 p    3 1.00
                 9.439   0.056979251590039
                 2.002    0.31320721150073
                0.5456    0.76037674173753
 p    1 1.00
                0.1517                   1
 d    1 1.00
                  0.55                   1

14 0
 s    3 1.00
                 13.01   0.033498726389998
                 1.962    0.23480080117413
                0.4446     0.8136829578829
 s    1 1.00
                 0.122                   1
 p    1 1.00
                 0.727                   1

15 0
 s    3 1.00
                 13.01   0.033498726389998
                 1.962    0.23480080117413
                0.4446     0.8136829578829
 s    1 1.00
                 0.122                   1
 p    1 1.00
                 0.727                   1

16 0
 s    8 1.00
                  6665  0.00069158396281299
                  1000  0.0053257961529341
                   228   0.027060721042034
                 64.71    0.10165684614077
                 21.06     0.2745748236174
                 7.495    0.44829431892377
                 2.797    0.28490261071525
                0.5215   0.015194859206082
 s    8 1.00
                  6665  -0.00029326965268655
                  1000  -0.0023180354739745
                   228  -0.011499786038565
                 64.71  -0.046826727009787
                 21.06   -0.12846616875047
                 7.495   -0.30126627246289
                 2.797   -0.25563070233011
                0.5215      1.093793361012
 s    1 1.00
                0.1596                   1
 p    3 1.00
                 9.439   0.056979251590039
                 2.002    0.31320721150073
                0.5456    0.76037674173753
 p    1 1.00
                0.1517                   1
 d    1 1.00
                  0.55                   1

17 0
 s    3 1.00
                 13.01   0.033498726389998
                 1.962    0.23480080117413
                0.4446     0.8136829578829
 s    1 1.00
                 0.122                   1
 p    1 1.00
                 0.727                   1

18 0
 s    3 1.00
                 13.01   0.033498726389998
                 1.962    0.23480080117413
                0.4446     0.8136829578829
 s    1 1.00
                 0.122                   1
 p    1 1.00
                 0.727                   1

19 0
 s    8 1.00
                  6665  0.00069158396281299
                  1000  0.0053257961529341
                   228   0.027060721042034
                 64.71    0.10165684614077
                 21.06     0.2745748236174
                 7.495    0.44829431892377
                 2.797    0.28490261071525
                0.5215   0.015194859206082
 s    8 1.00
                  6665  -0.00029326965268655
                  1000  -0.0023180354739745
                   228  -0.011499786038565
                 64.71  -0.046826727009787
                 21.06   -0.12846616875047
                 7.495   -0.30126627246289
                 2.797   -0.25563070233011
                0.5215      1.093793361012
 s    1 1.00
                0.1596                   1
 p    3 1.00
                 9.439   0.056979251590039
                 2.002    0.31320721150073
                0.5456    0.76037674173753
 p    1 1.00
                0.1517                   1
 d    1 1.00
                  0.55                   1

20 0
 s    3 1.00
                 13.01   0.033498726389998
                 1.962    0.23480080117413
                0.4446     0.8136829578829
 s    1 1.00
                 0.122                   1
 p    1 1.00
                 0.727                   1

21 0
 s    8 1.00
                  6665  0.00069158396281299
                  1000  0.0053257961529341
                   228   0.027060721042034
                 64.71    0.10165684614077
                 21.06     0.2745748236174
                 7.495    0.44829431892377
                 2.797    0.28490261071525
                0.5215   0.015194859206082
 s    8 1.00
                  6665  -0.00029326965268655
                  1000  -0.0023180354739745
                   228  -0.011499786038565
                 64.71  -0.046826727009787
                 21.06   -0.12846616875047
                 7.495   -0.30126627246289
                 2.797   -0.25563070233011
                0.5215      1.093793361012
 s    1 1.00
                0.1596                   1
 p    3 1.00
                 9.439   0.056979251590039
                 2.002    0.31320721150073
                0.5456    0.76037674173753
 p    1 1.00
                0.1517                   1
 d    1 1.00
                  0.55                   1

22 0
 s    3 1.00
                 13.01   0.033498726389998
                 1.962    0.23480080117413
                0.4446     0.8136829578829
 s    1 1.00
                 0.122                   1
 p    1 1.00
                 0.727                   1

23 0
 s    3 1.00
                 13.01   0.033498726389998
                 1.962    0.23480080117413
                0.4446     0.8136829578829
 s    1 1.00
                 0.122                   1
 p    1 1.00
                 0.727                   1

24 0
 s    3 1.00
                 13.01   0.033498726389998
                 1.962    0.23480080117413
                0.4446     0.8136829578829
 s    1 1.00
                 0.122                   1
 p    1 1.00
                 0.727                   1

25 0
 s    8 1.00
                  6665  0.00069158396281299
                  1000  0.0053257961529341
                   228   0.027060721042034
                 64.71    0.10165684614077
                 21.06     0.2745748236174
                 7.495    0.44829431892377
                 2.797    0.28490261071525
                0.5215   0.015194859206082
 s    8 1.00
                  6665  -0.00029326965268655
                  1000  -0.0023180354739745
                   228  -0.011499786038565
                 64.71  -0.046826727009787
                 21.06   -0.12846616875047
                 7.495   -0.30126627246289
                 2.797   -0.25563070233011
                0.5215      1.093793361012
 s    1 1.00
                0.1596                   1
 p    3 1.00
                 9.439   0.056979251590039
                 2.002    0.31320721150073
                0.5456    0.76037674173753
 p    1 1.00
                0.1517                   1
 d    1 1.00
                  0.55                   1

26 0
 s    3 1.00
                 13.01   0.033498726389998
                 1.962    0.23480080117413
                0.4446     0.8136829578829
 s    1 1.00
                 0.122                   1
 p    1 1.00
                 0.727                   1

27 0
 s    3 1.00
                 13.01   0.033498726389998
                 1.962    0.23480080117413
                0.4446     0.8136829578829
 s    1 1.00
                 0.122                   1
 p    1 1.00
                 0.727                   1

28 0
 s    8 1.00
                  6665  0.00069158396281299
                  1000  0.0053257961529341
                   228   0.027060721042034
                 64.71    0.10165684614077
                 21.06     0.2745748236174
                 7.495    0.44829431892377
                 2.797    0.28490261071525
                0.5215   0.015194859206082
 s    8 1.00
                  6665  -0.00029326965268655
                  1000  -0.0023180354739745
                   228  -0.011499786038565
                 64.71  -0.046826727009787
                 21.06   -0.12846616875047
                 7.495   -0.30126627246289
                 2.797   -0.25563070233011
                0.5215      1.093793361012
 s    1 1.00
                0.1596                   1
 p    3 1.00
                 9.439   0.056979251590039
                 2.002    0.31320721150073
                0.5456    0.76037674173753
 p    1 1.00
                0.1517                   1
 d    1 1.00
                  0.55                   1

29 0
 s    3 1.00
                 13.01   0.033498726389998
                 1.962    0.23480080117413
                0.4446     0.8136829578829
 s    1 1.00
                 0.122                   1
 p    1 1.00
                 0.727                   1

30 0
 s    3 1.00
                 13.01   0.033498726389998
                 1.962    0.23480080117413
                0.4446     0.8136829578829
 s    1 1.00
                 0.122                   1
 p    1 1.00
                 0.727                   1

31 0
 s    8 1.00
                  6665  0.00069158396281299
                  1000  0.0053257961529341
                   228   0.027060721042034
                 64.71    0.10165684614077
                 21.06     0.2745748236174
                 7.495    0.44829431892377
                 2.797    0.28490261071525
                0.5215   0.015194859206082
 s    8 1.00
                  6665  -0.00029326965268655
                  1000  -0.0023180354739745
                   228  -0.011499786038565
                 64.71  -0.046826727009787
                 21.06   -0.12846616875047
                 7.495   -0.30126627246289
                 2.797   -0.25563070233011
                0.5215      1.093793361012
 s    1 1.00
                0.1596                   1
 p    3 1.00
                 9.439   0.056979251590039
                 2.002    0.31320721150073
                0.5456    0.76037674173753
 p    1 1.00
                0.1517                   1
 d    1 1.00
                  0.55                   1

32 0
 s    3 1.00
                 13.01   0.033498726389998
                 1.962    0.23480080117413
                0.4446     0.8136829578829
 s    1 1.00
                 0.122                   1
 p    1 1.00
                 0.727                   1

33 0
 s    3 1.00
                 13.01   0.033498726389998
                 1.962    0.23480080117413
                0.4446     0.8136829578829
 s    1 1.00
                 0.122                   1
 p    1 1.00
                 0.727                   1

34 0
 s    3 1.00
                 13.01   0.033498726389998
                 1.962    0.23480080117413
                0.4446     0.8136829578829
 s    1 1.00
                 0.122                   1
 p    1 1.00
                 0.727                   1

35 0
 s    3 1.00
                 13.01   0.033498726389998
                 1.962    0.23480080117413
                0.4446     0.8136829578829
 s    1 1.00
                 0.122                   1
 p    1 1.00
                 0.727                   1

36 0
 s    3 1.00
                 13.01   0.033498726389998
                 1.962    0.23480080117413
                0.4446     0.8136829578829
 s    1 1.00
                 0.122                   1
 p    1 1.00
                 0.727                   1

37 0
 s    3 1.00
                 13.01   0.033498726389998
                 1.962    0.23480080117413
                0.4446     0.8136829578829
 s    1 1.00
                 0.122                   1
 p    1 1.00
                 0.727                   1

[5d]
[7f]
[9g]

[MO]
 Sym= A
 Ene=               0
 Spin= Alpha
 Occup=    1.00000
   1    6.0109836183595e-05
   2    4.3189280724994e-05
   3    -0.00013066600454908
   4    8.0071858113356e-08
   5    -5.4710764847523e-06
   6    -8.0069101580182e-06
   7    -5.9023917440966e-07
   8    2.5171787483371e-05
   9    8.5728929799864e-05
  10    -1.1191805610499e-05
  11    2.0943979419308e-08
  12    6.0131796605002e-07
  13    -3.3723720663632e-07
  14    -9.3243596854002e-09
  15    1.6589239067025e-05
  16    0.00019446056162233
  17    1.9304922689597e-07
  18    -1.7543146507869e-06
  19    2.2314190641672e-05
  20    8.0718995487159e-06
  21    -6.9478122987109e-05
  22    -1.7814237829949e-07
  23    5.1398149128884e-06
  24    -2.3703809743879e-06
  25      -1.0013693623945
  26    -0.001967730850077
  27    0.0068555972712199
  28    4.8827461579831e-06
  29    -9.1590155329474e-06
  30    0.0016495225288387
  31    2.9589070932421e-07
  32    1.9211591387272e-06
  33    -0.0018775806697106
  34    -0.00011964053550142
  35    2.9122565594207e-06
  36    -1.4171713667573e-06
  37    -6.7165079369397e-05
  38    0.00017485861098675
  39    -0.00028014331942604
  40    -0.00038621702321239
  41    -0.0014636141533149
  42    -1.5442501282183e-05
  43    9.9430719071817e-06
  44    -4.4115771166388e-06
  45    -8.1748347142302e-05
  46    6.439270880627e-05
  47    -0.0036006465250775
  48    0.00052282252605649
  49    8.340160390241e-06
  50    -2.5146643876686e-06
  51    -2.9299341744453e-05
  52    0.00010875046765757
  53    8.4802856702789e-05
  54    0.00016591027811711
  55    -0.0013774439981684
  56    -7.8334871413576e-05
  57    7.3891514453683e-06
  58    3.5306328018207e-05
  59    0.00042492023628932
  60    -0.00047902614842001
  61    0.00094615902820962
  62    0.00011692642362723
  63    -0.00014995483383059
  64    0.00014304720713047
  65    -5.4722730280296e-05
  66    0.00012877468464463
  67    3.9559924657838e-05
  68    9.7174611719132e-05
  69    -0.00051479200020209
  70    6.1302362887776e-05
  71    -4.0381923863243e-05
  72    6.232599109974e-05
  73    -0.0010073215863348
  74    0.00077462255160264
  75    0.00064717255990352
  76    0.00014032546890697
  77    0.00012098857808599
  78    -8.9739815266311e-05
  79    -5.8687037783987e-05
  80    0.00015099157656636
  81    6.2377229487171e-05
  82    -0.00021075362343376
  83    -6.6405715788896e-05
  84    4.8800011196101e-05
  85    -4.8284672392816e-05
  86    -2.5061698074636e-05
  87    -4.9052341072241e-05
  88    0.00061281481096273
  89    1.5746642181084e-05
  90    1.7156572080989e-05
  91    -1.1717754824537e-05
  92    -0.0002588229683247
  93    -0.00063504316286468
  94    1.5744261732882e-05
  95    -1.8423192557655e-05
  96    -1.1340916658009e-05
  97    -7.5957985183222e-06
  98    2.0160016757714e-05
  99    4.6759437026434e-05
 100    3.8772442830505e-05
 101    0.00016095209618884
 102    -8.1494435022642e-06
 103    1.0180628307976e-05
 104    -7.5549959925112e-05
 105    1.8625833010508e-05
 106    0.00020321761390185
 107    6.4182582556475e-05
 108    -9.9274740781691e-06
 109    -7.5251213861136e-05
 110    -7.7507077021728e-05
 111    6.2056338084028e-05
 112    4.493562019541e-05
 113    -1.9134402851628e-05
 114    -7.0286988513164e-05
 115    4.8975857357787e-05
 116    9.9679390016344e-05
 117    -0.00084520903846276
 118    2.5498754272364e-05
 119    1.0420233990709e-05
 120    -3.2324096549657e-05
 121    -0.00028923341172679
 122    -3.3140256048786e-05
 123    0.00014577780340273
 124    6.3273212356918e-06
 125    -1.1850991298899e-05
 126    -1.5185892991194e-05
 127    3.2111928794478e-05
 128    -5.0145238015479e-05
 129    1.9414083715591e-05
 130    0.00032788690311195
 131    -7.7460907913232e-06
 132    -5.9268469560235e-06
 133    -2.9371469952253e-05
 134    -2.5867370992809e-05
 135    0.00011772081522529
 136    1.3586093937214e-05
 137    2.4569463651859e-05
 138    2.6923595135673e-05
 139    2.1493828688433e-05
 140    3.9158507791459e-05
 141    -0.00029428013118987
 142    -7.8515933894523e-06
 143    2.6606120747063e-06
 144    6.1103721715147e-06
 145    0.00023070651835168
 146    -5.4904605907346e-05
 147    -6.2331661758081e-05
 148     2.47122155554e-06
 149    -3.1264650112737e-06
 150    3.8877163183754e-06
 151    -1.2233952763939e-05
 152    4.9051812550351e-06
 153    9.6842819747195e-05
 154    0.00010429084681644
 155    2.6327874453473e-05
 156    -2.8875542467744e-05
 157    -1.9601282490388e-05
 158    2.5762225276205e-05
 159    8.8187833926086e-05
 160    5.9175794599121e-05
 161    7.167181207376e-06
 162    -6.4849871231298e-06
 163    1.5743018888982e-06
 164    5.0956356366808e-06
 165    0.00025034038926916
 166    1.7462605701198e-05
 167    -1.4004485307719e-05
 168    -6.6805295392023e-06
 169    -0.00023600939949565
 170    0.00021117924915014
 171    0.00013575067868625
 172    2.7035143176559e-06
 173    -9.996804941713e-06
 174    1.3511334140626e-05
 175    -3.2298853563837e-06
 176    1.8071651981747e-05
 177    1.6166031656557e-05
 178    -8.4804420260092e-05
 179    9.4320626654589e-07
 180    -1.8495861730243e-06
 181    4.8690074220005e-06
 182    -1.5547103515318e-05
 183    -2.7592980371801e-05
 184    7.0606279253865e-05
 185    4.7472857112983e-06
 186    -3.6325184958095e-06
 187    -5.5075951577968e-06
 188    -0.00012838104357656
 189    0.00010207187340673
 190    8.7086684509212e-05
 191    -1.2624677914172e-06
 192    -2.1397051485443e-06
 193    7.6552834879293e-06
 194    3.0668700195783e-06
 195    5.2971274895382e-06
 196    1.3599516384792e-05
 197    1.8920949821495e-05
 198    -5.6549952030754e-06
 199    -1.9434612347149e-06
 200    3.4234424485672e-06
 201    1.3169170699786e-05
 202    -2.9745511343167e-06
 203    1.3150419324153e-05
 204    -9.9115564478758e-06
 205    -1.175877794406e-05
 206    -8.5086452037117e-06
 207    -6.8066114766758e-05
 208    1.6078927117042e-05
 209    -3.9032964414301e-06
 210    -1.5686362849237e-05
 211    1.814591536091e-05
 212    3.1073113253704e-05
 213    -0.00026041997845965
 214    -4.6467065339467e-06
 215    1.8530994666265e-06
 216    6.3890509931201e-06
 217    -0.00019474937490881
 218    5.3022243519474e-05
 219    7.7862660246849e-05
 220    1.9409843284658e-06
 221    1.6399298832521e-05
 222    -5.4232847534751e-06
 223    -9.2150218915689e-06
 224    1.7536119146261e-06
 225    -2.5773187411911e-05
 226    -5.5026945909508e-05
 227    1.2374182657424e-05
 228    1.9840700868159e-06
 229    9.7741244477221e-07
 230    -9.8906567844162e-06
 231    -5.4341391487458e-05
 232    4.0142634675322e-06
 233    -6.3697253379538e-06
 234    -1.2033226029189e-05
 235    -4.3555799279197e-07
 236    -7.3058409234614e-07
 237    7.871232722749e-05
 238    -2.3005693551035e-06
 239    -2.0309774653206e-06
 240    3.7908429771958e-06
 241    -3.5702757219937e-05
 242    6.3049905412567e-05
 243    -1.7963294643251e-05
 244    -1.9287473093924e-06
 245    -1.8440585161381e-06
 246    1.9099534281334e-06
 247    -1.6560385962083e-07
 248    -9.3324094505823e-07
 249    1.7783697375268e-05
 250    -1.1786163725636e-05
 251    4.544893458851e-06
 252     8.60282713205e-07
 253    6.9652687578896e-08
 254    1.5904345435414e-05
 255    -5.6010003099881e-05
 256    -1.4754509419799e-08
 257    -4.374427797297e-06
 258    8.7960112954665e-07
 259    1.023771611447e-05
 260    2.0335995551775e-05
 261    -7.6418421445052e-05
 262    5.0514093825297e-07