[Molden Format]
made by pyscf v[2.0.1]
[Atoms] (AU)
O   1   8     0.00000000000000     0.00000000000000     7.91818878616346
H   2   1     0.00000000000000     0.00000000000000     6.09478696426249
H   3   1    -0.05031916615174     1.78353065140343     8.29406048263013
O   4   8     0.00000000000000     0.00000000000000     2.31533471513237
C   5   6     0.00000000000000     0.00000000000000     0.00000000000000
C   6   6     2.01118073026938    -1.40227222164369    -1.50774939176400
C   7   6    -2.01249334291722     1.41331050329955    -1.50315905028694
H   8   1     3.32037363730244    -2.26721897153159    -0.13599698591495
C   9   6     3.45899267434009     0.28739631745591    -3.37437943254505
H   10   1     1.07662969841332    -2.94725144642667    -2.56541439481080
H   11   1    -2.67503415753480     0.18421555839588    -3.06194479365997
H   12   1    -1.07974048864772     3.03851734677796    -2.43674295017013
C   13   6    -4.21607110578555     2.32938802552922     0.11994162256091
H   14   1     4.24440173074564     1.93368664142019    -2.34976285512790
H   15   1     2.15020713235517     1.04714335134846    -4.81494497423699
C   16   6     5.60746363007797    -1.12419643481196    -4.70268606082550
H   17   1    -3.46838323670267     3.50951302338067     1.66946842715333
H   18   1    -5.11873485366228     0.68575958301209     1.04047743976495
C   19   6    -6.18314754751344     3.80909592987882    -1.39656589068747
H   20   1     6.93011263717176    -1.87550812453645    -3.26656317360070
C   21   6     7.06356622236532     0.52877932406334    -6.57829775293605
H   22   1     4.82318879258361    -2.78573437948532    -5.70504560381835
H   23   1    -6.91582688743803     2.61304780074712    -2.95074552451969
H   24   1    -5.26532430573853     5.45420349051338    -2.31005832200284
C   25   6    -8.39941882261433     4.73263980500213     0.21800571437956
H   26   1     7.83338371486801     2.19084139882824    -5.57093109900697
H   27   1     5.73544244039420     1.27376866537418    -8.01071492370229
C   28   6     9.21124858443101    -0.89699110072176    -7.88926949186242
H   29   1    -7.66272760055236     5.92277078003992     1.77035591474408
H   30   1    -9.31497248082589     3.08753015622020     1.12614408368786
C   31   6   -10.35481709231879     6.21833079391143    -1.30905206253246
H   32   1    10.58815905329501    -1.61074586756696    -6.49512691622620
H   33   1    10.23506248045667     0.32468009384095    -9.23072870921204
H   34   1     8.47665842847139    -2.53598436989925    -8.94921964622535
H   35   1    -9.48948872868064     7.90013588951020    -2.18823918416067
H   36   1   -11.93332513000955     6.86460487874102    -0.11255798845995
H   37   1   -11.15126291841033     5.04495968327630    -2.83849898862534
[GTO]
1 0
 s    8 1.00
                 11720  0.00070964594651845
                  1759  0.0054672722921914
                 400.8   0.027823118610189
                 113.7    0.10474773971146
                 37.03    0.28292084635691
                 13.27    0.44849523869833
                 5.025    0.27081688521277
                 1.013    0.01545029160744
 s    8 1.00
                 11720  -0.00031444341168873
                  1759  -0.0024821376810179
                 400.8  -0.012316355381583
                 113.7  -0.050538917343672
                 37.03   -0.13938490331632
                 13.27   -0.32507749481778
                 5.025   -0.22984830758785
                 1.013     1.0953793467883
 s    1 1.00
                0.3023                   1
 p    3 1.00
                  17.7   0.062679166281506
                 3.854    0.33353656587936
                 1.046    0.74123964163973
 p    1 1.00
                0.2753                   1
 d    1 1.00
                 1.185                   1

2 0
 s    3 1.00
                 13.01   0.033498726389998
                 1.962    0.23480080117413
                0.4446     0.8136829578829
 s    1 1.00
                 0.122                   1
 p    1 1.00
                 0.727                   1

3 0
 s    3 1.00
                 13.01   0.033498726389998
                 1.962    0.23480080117413
                0.4446     0.8136829578829
 s    1 1.00
                 0.122                   1
 p    1 1.00
                 0.727                   1

4 0
 s    8 1.00
                 11720  0.00070964594651845
                  1759  0.0054672722921914
                 400.8   0.027823118610189
                 113.7    0.10474773971146
                 37.03    0.28292084635691
                 13.27    0.44849523869833
                 5.025    0.27081688521277
                 1.013    0.01545029160744
 s    8 1.00
                 11720  -0.00031444341168873
                  1759  -0.0024821376810179
                 400.8  -0.012316355381583
                 113.7  -0.050538917343672
                 37.03   -0.13938490331632
                 13.27   -0.32507749481778
                 5.025   -0.22984830758785
                 1.013     1.0953793467883
 s    1 1.00
                0.3023                   1
 p    3 1.00
                  17.7   0.062679166281506
                 3.854    0.33353656587936
                 1.046    0.74123964163973
 p    1 1.00
                0.2753                   1
 d    1 1.00
                 1.185                   1

5 0
 s    8 1.00
                  6665  0.00069158396281299
                  1000  0.0053257961529341
                   228   0.027060721042034
                 64.71    0.10165684614077
                 21.06     0.2745748236174
                 7.495    0.44829431892377
                 2.797    0.28490261071525
                0.5215   0.015194859206082
 s    8 1.00
                  6665  -0.00029326965268655
                  1000  -0.0023180354739745
                   228  -0.011499786038565
                 64.71  -0.046826727009787
                 21.06   -0.12846616875047
                 7.495   -0.30126627246289
                 2.797   -0.25563070233011
                0.5215      1.093793361012
 s    1 1.00
                0.1596                   1
 p    3 1.00
                 9.439   0.056979251590039
                 2.002    0.31320721150073
                0.5456    0.76037674173753
 p    1 1.00
                0.1517                   1
 d    1 1.00
                  0.55                   1

6 0
 s    8 1.00
                  6665  0.00069158396281299
                  1000  0.0053257961529341
                   228   0.027060721042034
                 64.71    0.10165684614077
                 21.06     0.2745748236174
                 7.495    0.44829431892377
                 2.797    0.28490261071525
                0.5215   0.015194859206082
 s    8 1.00
                  6665  -0.00029326965268655
                  1000  -0.0023180354739745
                   228  -0.011499786038565
                 64.71  -0.046826727009787
                 21.06   -0.12846616875047
                 7.495   -0.30126627246289
                 2.797   -0.25563070233011
                0.5215      1.093793361012
 s    1 1.00
                0.1596                   1
 p    3 1.00
                 9.439   0.056979251590039
                 2.002    0.31320721150073
                0.5456    0.76037674173753
 p    1 1.00
                0.1517                   1
 d    1 1.00
                  0.55                   1

7 0
 s    8 1.00
                  6665  0.00069158396281299
                  1000  0.0053257961529341
                   228   0.027060721042034
                 64.71    0.10165684614077
                 21.06     0.2745748236174
                 7.495    0.44829431892377
                 2.797    0.28490261071525
                0.5215   0.015194859206082
 s    8 1.00
                  6665  -0.00029326965268655
                  1000  -0.0023180354739745
                   228  -0.011499786038565
                 64.71  -0.046826727009787
                 21.06   -0.12846616875047
                 7.495   -0.30126627246289
                 2.797   -0.25563070233011
                0.5215      1.093793361012
 s    1 1.00
                0.1596                   1
 p    3 1.00
                 9.439   0.056979251590039
                 2.002    0.31320721150073
                0.5456    0.76037674173753
 p    1 1.00
                0.1517                   1
 d    1 1.00
                  0.55                   1

8 0
 s    3 1.00
                 13.01   0.033498726389998
                 1.962    0.23480080117413
                0.4446     0.8136829578829
 s    1 1.00
                 0.122                   1
 p    1 1.00
                 0.727                   1

9 0
 s    8 1.00
                  6665  0.00069158396281299
                  1000  0.0053257961529341
                   228   0.027060721042034
                 64.71    0.10165684614077
                 21.06     0.2745748236174
                 7.495    0.44829431892377
                 2.797    0.28490261071525
                0.5215   0.015194859206082
 s    8 1.00
                  6665  -0.00029326965268655
                  1000  -0.0023180354739745
                   228  -0.011499786038565
                 64.71  -0.046826727009787
                 21.06   -0.12846616875047
                 7.495   -0.30126627246289
                 2.797   -0.25563070233011
                0.5215      1.093793361012
 s    1 1.00
                0.1596                   1
 p    3 1.00
                 9.439   0.056979251590039
                 2.002    0.31320721150073
                0.5456    0.76037674173753
 p    1 1.00
                0.1517                   1
 d    1 1.00
                  0.55                   1

10 0
 s    3 1.00
                 13.01   0.033498726389998
                 1.962    0.23480080117413
                0.4446     0.8136829578829
 s    1 1.00
                 0.122                   1
 p    1 1.00
                 0.727                   1

11 0
 s    3 1.00
                 13.01   0.033498726389998
                 1.962    0.23480080117413
                0.4446     0.8136829578829
 s    1 1.00
                 0.122                   1
 p    1 1.00
                 0.727                   1

12 0
 s    3 1.00
                 13.01   0.033498726389998
                 1.962    0.23480080117413
                0.4446     0.8136829578829
 s    1 1.00
                 0.122                   1
 p    1 1.00
                 0.727                   1

13 0
 s    8 1.00
                  6665  0.00069158396281299
                  1000  0.0053257961529341
                   228   0.027060721042034
                 64.71    0.10165684614077
                 21.06     0.2745748236174
                 7.495    0.44829431892377
                 2.797    0.28490261071525
                0.5215   0.015194859206082
 s    8 1.00
                  6665  -0.00029326965268655
                  1000  -0.0023180354739745
                   228  -0.011499786038565
                 64.71  -0.046826727009787
                 21.06   -0.12846616875047
                 7.495   -0.30126627246289
                 2.797   -0.25563070233011
                0.5215      1.093793361012
 s    1 1.00
                0.1596                   1
 p    3 1.00
                 9.439   0.056979251590039
                 2.002    0.31320721150073
                0.5456    0.76037674173753
 p    1 1.00
                0.1517                   1
 d    1 1.00
                  0.55                   1

14 0
 s    3 1.00
                 13.01   0.033498726389998
                 1.962    0.23480080117413
                0.4446     0.8136829578829
 s    1 1.00
                 0.122                   1
 p    1 1.00
                 0.727                   1

15 0
 s    3 1.00
                 13.01   0.033498726389998
                 1.962    0.23480080117413
                0.4446     0.8136829578829
 s    1 1.00
                 0.122                   1
 p    1 1.00
                 0.727                   1

16 0
 s    8 1.00
                  6665  0.00069158396281299
                  1000  0.0053257961529341
                   228   0.027060721042034
                 64.71    0.10165684614077
                 21.06     0.2745748236174
                 7.495    0.44829431892377
                 2.797    0.28490261071525
                0.5215   0.015194859206082
 s    8 1.00
                  6665  -0.00029326965268655
                  1000  -0.0023180354739745
                   228  -0.011499786038565
                 64.71  -0.046826727009787
                 21.06   -0.12846616875047
                 7.495   -0.30126627246289
                 2.797   -0.25563070233011
                0.5215      1.093793361012
 s    1 1.00
                0.1596                   1
 p    3 1.00
                 9.439   0.056979251590039
                 2.002    0.31320721150073
                0.5456    0.76037674173753
 p    1 1.00
                0.1517                   1
 d    1 1.00
                  0.55                   1

17 0
 s    3 1.00
                 13.01   0.033498726389998
                 1.962    0.23480080117413
                0.4446     0.8136829578829
 s    1 1.00
                 0.122                   1
 p    1 1.00
                 0.727                   1

18 0
 s    3 1.00
                 13.01   0.033498726389998
                 1.962    0.23480080117413
                0.4446     0.8136829578829
 s    1 1.00
                 0.122                   1
 p    1 1.00
                 0.727                   1

19 0
 s    8 1.00
                  6665  0.00069158396281299
                  1000  0.0053257961529341
                   228   0.027060721042034
                 64.71    0.10165684614077
                 21.06     0.2745748236174
                 7.495    0.44829431892377
                 2.797    0.28490261071525
                0.5215   0.015194859206082
 s    8 1.00
                  6665  -0.00029326965268655
                  1000  -0.0023180354739745
                   228  -0.011499786038565
                 64.71  -0.046826727009787
                 21.06   -0.12846616875047
                 7.495   -0.30126627246289
                 2.797   -0.25563070233011
                0.5215      1.093793361012
 s    1 1.00
                0.1596                   1
 p    3 1.00
                 9.439   0.056979251590039
                 2.002    0.31320721150073
                0.5456    0.76037674173753
 p    1 1.00
                0.1517                   1
 d    1 1.00
                  0.55                   1

20 0
 s    3 1.00
                 13.01   0.033498726389998
                 1.962    0.23480080117413
                0.4446     0.8136829578829
 s    1 1.00
                 0.122                   1
 p    1 1.00
                 0.727                   1

21 0
 s    8 1.00
                  6665  0.00069158396281299
                  1000  0.0053257961529341
                   228   0.027060721042034
                 64.71    0.10165684614077
                 21.06     0.2745748236174
                 7.495    0.44829431892377
                 2.797    0.28490261071525
                0.5215   0.015194859206082
 s    8 1.00
                  6665  -0.00029326965268655
                  1000  -0.0023180354739745
                   228  -0.011499786038565
                 64.71  -0.046826727009787
                 21.06   -0.12846616875047
                 7.495   -0.30126627246289
                 2.797   -0.25563070233011
                0.5215      1.093793361012
 s    1 1.00
                0.1596                   1
 p    3 1.00
                 9.439   0.056979251590039
                 2.002    0.31320721150073
                0.5456    0.76037674173753
 p    1 1.00
                0.1517                   1
 d    1 1.00
                  0.55                   1

22 0
 s    3 1.00
                 13.01   0.033498726389998
                 1.962    0.23480080117413
                0.4446     0.8136829578829
 s    1 1.00
                 0.122                   1
 p    1 1.00
                 0.727                   1

23 0
 s    3 1.00
                 13.01   0.033498726389998
                 1.962    0.23480080117413
                0.4446     0.8136829578829
 s    1 1.00
                 0.122                   1
 p    1 1.00
                 0.727                   1

24 0
 s    3 1.00
                 13.01   0.033498726389998
                 1.962    0.23480080117413
                0.4446     0.8136829578829
 s    1 1.00
                 0.122                   1
 p    1 1.00
                 0.727                   1

25 0
 s    8 1.00
                  6665  0.00069158396281299
                  1000  0.0053257961529341
                   228   0.027060721042034
                 64.71    0.10165684614077
                 21.06     0.2745748236174
                 7.495    0.44829431892377
                 2.797    0.28490261071525
                0.5215   0.015194859206082
 s    8 1.00
                  6665  -0.00029326965268655
                  1000  -0.0023180354739745
                   228  -0.011499786038565
                 64.71  -0.046826727009787
                 21.06   -0.12846616875047
                 7.495   -0.30126627246289
                 2.797   -0.25563070233011
                0.5215      1.093793361012
 s    1 1.00
                0.1596                   1
 p    3 1.00
                 9.439   0.056979251590039
                 2.002    0.31320721150073
                0.5456    0.76037674173753
 p    1 1.00
                0.1517                   1
 d    1 1.00
                  0.55                   1

26 0
 s    3 1.00
                 13.01   0.033498726389998
                 1.962    0.23480080117413
                0.4446     0.8136829578829
 s    1 1.00
                 0.122                   1
 p    1 1.00
                 0.727                   1

27 0
 s    3 1.00
                 13.01   0.033498726389998
                 1.962    0.23480080117413
                0.4446     0.8136829578829
 s    1 1.00
                 0.122                   1
 p    1 1.00
                 0.727                   1

28 0
 s    8 1.00
                  6665  0.00069158396281299
                  1000  0.0053257961529341
                   228   0.027060721042034
                 64.71    0.10165684614077
                 21.06     0.2745748236174
                 7.495    0.44829431892377
                 2.797    0.28490261071525
                0.5215   0.015194859206082
 s    8 1.00
                  6665  -0.00029326965268655
                  1000  -0.0023180354739745
                   228  -0.011499786038565
                 64.71  -0.046826727009787
                 21.06   -0.12846616875047
                 7.495   -0.30126627246289
                 2.797   -0.25563070233011
                0.5215      1.093793361012
 s    1 1.00
                0.1596                   1
 p    3 1.00
                 9.439   0.056979251590039
                 2.002    0.31320721150073
                0.5456    0.76037674173753
 p    1 1.00
                0.1517                   1
 d    1 1.00
                  0.55                   1

29 0
 s    3 1.00
                 13.01   0.033498726389998
                 1.962    0.23480080117413
                0.4446     0.8136829578829
 s    1 1.00
                 0.122                   1
 p    1 1.00
                 0.727                   1

30 0
 s    3 1.00
                 13.01   0.033498726389998
                 1.962    0.23480080117413
                0.4446     0.8136829578829
 s    1 1.00
                 0.122                   1
 p    1 1.00
                 0.727                   1

31 0
 s    8 1.00
                  6665  0.00069158396281299
                  1000  0.0053257961529341
                   228   0.027060721042034
                 64.71    0.10165684614077
                 21.06     0.2745748236174
                 7.495    0.44829431892377
                 2.797    0.28490261071525
                0.5215   0.015194859206082
 s    8 1.00
                  6665  -0.00029326965268655
                  1000  -0.0023180354739745
                   228  -0.011499786038565
                 64.71  -0.046826727009787
                 21.06   -0.12846616875047
                 7.495   -0.30126627246289
                 2.797   -0.25563070233011
                0.5215      1.093793361012
 s    1 1.00
                0.1596                   1
 p    3 1.00
                 9.439   0.056979251590039
                 2.002    0.31320721150073
                0.5456    0.76037674173753
 p    1 1.00
                0.1517                   1
 d    1 1.00
                  0.55                   1

32 0
 s    3 1.00
                 13.01   0.033498726389998
                 1.962    0.23480080117413
                0.4446     0.8136829578829
 s    1 1.00
                 0.122                   1
 p    1 1.00
                 0.727                   1

33 0
 s    3 1.00
                 13.01   0.033498726389998
                 1.962    0.23480080117413
                0.4446     0.8136829578829
 s    1 1.00
                 0.122                   1
 p    1 1.00
                 0.727                   1

34 0
 s    3 1.00
                 13.01   0.033498726389998
                 1.962    0.23480080117413
                0.4446     0.8136829578829
 s    1 1.00
                 0.122                   1
 p    1 1.00
                 0.727                   1

35 0
 s    3 1.00
                 13.01   0.033498726389998
                 1.962    0.23480080117413
                0.4446     0.8136829578829
 s    1 1.00
                 0.122                   1
 p    1 1.00
                 0.727                   1

36 0
 s    3 1.00
                 13.01   0.033498726389998
                 1.962    0.23480080117413
                0.4446     0.8136829578829
 s    1 1.00
                 0.122                   1
 p    1 1.00
                 0.727                   1

37 0
 s    3 1.00
                 13.01   0.033498726389998
                 1.962    0.23480080117413
                0.4446     0.8136829578829
 s    1 1.00
                 0.122                   1
 p    1 1.00
                 0.727                   1

[5d]
[7f]
[9g]

[MO]
 Sym= A
 Ene=               0
 Spin= Alpha
 Occup=    1.00000
   1    6.7199127106764e-05
   2    4.4002261339043e-05
   3    -0.00013871846197687
   4    -2.7594962035466e-07
   5    -5.2627844987796e-06
   6    -5.3993856456258e-06
   7    8.7672835220861e-08
   8    2.3758856337294e-05
   9    5.5006524117539e-05
  10    -6.0845876967776e-06
  11    2.2105238229019e-07
  12    -1.8496905990235e-06
  13    -1.2044389940319e-06
  14    -2.4460257668382e-08
  15    5.872173274553e-05
  16    0.00023107367574939
  17    8.137695285801e-07
  18    -2.8317062623734e-06
  19    -1.3548426788574e-05
  20    4.668216967569e-07
  21    -5.3633537271388e-05
  22    -1.4994818163034e-07
  23    -5.4335447263676e-07
  24    5.1055958654566e-06
  25      -1.0013869387129
  26    -0.0020127422049036
  27    0.0069970462230206
  28    5.4285220089427e-06
  29    -1.2488600608037e-05
  30    0.0016270805824552
  31    2.5386445419223e-07
  32    3.7790829776764e-06
  33    -0.0020073647504347
  34    -0.00010532778385868
  35    2.7597537696362e-06
  36    -1.5342886497423e-06
  37    -6.566717406936e-05
  38    0.00017094612072378
  39    -0.00029523568757243
  40    -0.00041820713120903
  41    -0.0015824076011749
  42    -1.6240623047974e-05
  43    9.9850081314396e-06
  44    -3.5946475452182e-05
  45    -8.4659971842593e-05
  46    6.7251599826186e-05
  47    -0.0037271662285264
  48    0.00049430931496401
  49    8.196357061749e-06
  50    -2.7382821010738e-06
  51    -3.049070287747e-05
  52    0.00011199462457967
  53    8.3995377798623e-05
  54    0.00016443520614158
  55    -0.001393399988781
  56    -7.8861223220738e-05
  57    7.1312746232187e-06
  58    3.3703017418106e-05
  59    0.00043094815586634
  60    -0.00048513361799986
  61    0.00099201866843327
  62    0.00011555544338414
  63    -0.000149639170094
  64    0.00014347967589541
  65    -5.3944651639028e-05
  66    0.00012598666232779
  67    3.7797047174951e-05
  68    9.4063811637785e-05
  69    -0.00052333071250678
  70    6.232699930083e-05
  71    -4.1609518136578e-05
  72    6.1526632159748e-05
  73    -0.0010251730588325
  74    0.00078792661890582
  75    0.00067203865528908
  76    0.00013898485957743
  77    0.00012147506356637
  78    -8.9757038680513e-05
  79    -5.8145376324878e-05
  80    0.00014916989171597
  81    5.7395701189886e-05
  82    -0.00022202911005904
  83    -6.733397701442e-05
  84    4.9421868676828e-05
  85    -4.6493089403013e-05
  86    -2.5010800201773e-05
  87    -4.8931252102686e-05
  88    0.00062833734167477
  89    1.5582114281524e-05
  90    1.7355154946259e-05
  91    -1.0982078737951e-05
  92    -0.00026422734610176
  93    -0.00065747152648451
  94    9.2613561540094e-06
  95    -1.9320268729529e-05
  96    -1.1642717717219e-05
  97    -8.2565450668596e-06
  98    1.9026232419638e-05
  99    4.9378762547758e-05
 100    4.2112534428266e-05
 101    0.00016784102342263
 102    -5.6944134968494e-06
 103    1.0984078948786e-05
 104    -7.8193017264331e-05
 105    2.0151494441926e-05
 106     0.000209132480025
 107    6.3762871751924e-05
 108    -7.3319999166408e-06
 109    -7.7092504397925e-05
 110    -7.8561066381606e-05
 111    6.8027136783275e-05
 112    4.3789485782599e-05
 113    -2.0595642938448e-05
 114    -7.2131791349374e-05
 115    4.7927028035647e-05
 116    9.7675922152327e-05
 117    -0.00085897949416307
 118    2.4106400578548e-05
 119    1.1526197687617e-05
 120    -3.175526175761e-05
 121    -0.00028340296348672
 122    -3.9645743568687e-05
 123    0.00015913580039231
 124    5.8807254258428e-06
 125    -1.0368516407124e-05
 126    -1.4900098123526e-05
 127    3.2438432174686e-05
 128    -5.1606376739298e-05
 129    2.0328858911369e-05
 130    0.00034134149642196
 131    -8.2532798361605e-06
 132    -6.0213268171912e-06
 133    -2.9771290361897e-05
 134    -2.5631239665488e-05
 135    0.00011718509058103
 136    1.3895746059034e-05
 137    2.5570353066251e-05
 138    2.7800263665299e-05
 139    2.2256174187861e-05
 140    4.0531818844232e-05
 141    -0.00030973961372787
 142    -7.7130155859835e-06
 143    3.0815561413518e-06
 144    6.0072526923566e-06
 145    0.00023259193726257
 146    -6.0915303944668e-05
 147    -5.8859689459513e-05
 148    2.6224369051971e-06
 149    -3.3791195844076e-06
 150    4.8122139319851e-06
 151    -1.289731719734e-05
 152    4.7608565135086e-06
 153    9.8378677777305e-05
 154    9.4210046119828e-05
 155    2.6824990597276e-05
 156    -2.7700689702411e-05
 157    -1.9182814725194e-05
 158    2.6328546671935e-05
 159    8.5387205019774e-05
 160    5.922039674486e-05
 161    7.4748708619555e-06
 162    -6.8409700794829e-06
 163    5.0521975493168e-07
 164    3.161088119239e-06
 165    0.00026671244699732
 166    1.7755599667946e-05
 167    -1.4099862230769e-05
 168    -7.0736337349477e-06
 169    -0.00023421446298765
 170    0.00021065699801984
 171    0.00014203840730656
 172    2.3950087144532e-06
 173    -1.013464816782e-05
 174    1.3643666063335e-05
 175    -3.0960024673326e-06
 176    1.802343006696e-05
 177    1.6653234498494e-05
 178    -8.6937082272253e-05
 179    1.2449694168275e-06
 180    -1.5638907439548e-06
 181    4.614733409041e-06
 182    -1.6406478934066e-05
 183    -2.9057909892326e-05
 184    8.0934766880953e-05
 185    4.5363038482421e-06
 186    -3.9128223831692e-06
 187    -5.3543960106654e-06
 188    -0.00013213071580545
 189    0.00010211493145349
 190    9.2275519831314e-05
 191    -1.2126624606331e-06
 192    -2.3958383589931e-06
 193    7.6033955350517e-06
 194    3.0262061358405e-06
 195    5.7363854303294e-06
 196    1.3151343129152e-05
 197    1.9730159367342e-05
 198    -5.6800344648291e-06
 199    -1.9283785349198e-06
 200    3.1549478055963e-06
 201    1.3037236944191e-05
 202    -1.2511461767747e-06
 203    1.3505777035117e-05
 204    -9.8218836528006e-06
 205    -1.1786299973461e-05
 206    -8.9930500501556e-06
 207    -6.8916797317098e-05
 208    1.6060794264907e-05
 209    -3.9159984084833e-06
 210    -1.6027088925146e-05
 211    1.8710508217457e-05
 212    3.1998447917494e-05
 213    -0.0002708025034421
 214    -5.2703252759987e-06
 215    2.1278280740431e-06
 216    6.4301100773208e-06
 217    -0.00019403485997411
 218    5.135959982753e-05
 219    8.0444030239046e-05
 220    2.0241964517925e-06
 221     1.63657709449e-05
 222    -5.4023186963048e-06
 223    -9.3724727301013e-06
 224    1.8431617656276e-06
 225    -2.6839373308264e-05
 226    -5.7189398351142e-05
 227    1.266341876211e-05
 228    2.2021572884547e-06
 229    9.7511097778706e-07
 230    -1.0310884838902e-05
 231    -5.4613154443771e-05
 232    4.126755402196e-06
 233    -6.5286617458116e-06
 234    -1.2247423828061e-05
 235    -5.2467112086853e-07
 236    -9.1051962583022e-07
 237    7.9669481572957e-05
 238    -2.2185483561432e-06
 239    -2.0957663599741e-06
 240    3.7766538676366e-06
 241    -3.6743517033561e-05
 242    6.4052409416146e-05
 243    -1.8405547289177e-05
 244    -2.0019296529028e-06
 245    -1.9279258535249e-06
 246    1.8771393536942e-06
 247    -1.4098256902384e-07
 248    -9.2830940735432e-07
 249    1.7753672822022e-05
 250    -9.6162578963737e-06
 251    4.3874996822694e-06
 252    8.3883545304567e-07
 253    -1.9325407074652e-07
 254    1.6213015042122e-05
 255    -5.6242673642132e-05
 256    -2.7875143808537e-07
 257    -4.2554969439576e-06
 258    7.6358933446895e-07
 259    9.8438574839749e-06
 260    1.9741772244018e-05
 261    -7.0814302162247e-05
 262    7.0559165442715e-07