[Molden Format]
made by pyscf v[2.0.1]
[Atoms] (AU)
O   1   8     0.00000000000000     0.00000000000000    10.18586013564153
H   2   1     0.00000000000000     0.00000000000000     8.36245831374057
H   3   1    -0.05031916615174     1.78353065140343    10.56173183210820
O   4   8     0.00000000000000     0.00000000000000     2.31533471513237
C   5   6     0.00000000000000     0.00000000000000     0.00000000000000
C   6   6     2.01118073026938    -1.40227222164369    -1.50774939176400
C   7   6    -2.01249334291722     1.41331050329955    -1.50315905028694
H   8   1     3.32037363730244    -2.26721897153159    -0.13599698591495
C   9   6     3.45899267434009     0.28739631745591    -3.37437943254505
H   10   1     1.07662969841332    -2.94725144642667    -2.56541439481080
H   11   1    -2.67503415753480     0.18421555839588    -3.06194479365997
H   12   1    -1.07974048864772     3.03851734677796    -2.43674295017013
C   13   6    -4.21607110578555     2.32938802552922     0.11994162256091
H   14   1     4.24440173074564     1.93368664142019    -2.34976285512790
H   15   1     2.15020713235517     1.04714335134846    -4.81494497423699
C   16   6     5.60746363007797    -1.12419643481196    -4.70268606082550
H   17   1    -3.46838323670267     3.50951302338067     1.66946842715333
H   18   1    -5.11873485366228     0.68575958301209     1.04047743976495
C   19   6    -6.18314754751344     3.80909592987882    -1.39656589068747
H   20   1     6.93011263717176    -1.87550812453645    -3.26656317360070
C   21   6     7.06356622236532     0.52877932406334    -6.57829775293605
H   22   1     4.82318879258361    -2.78573437948532    -5.70504560381835
H   23   1    -6.91582688743803     2.61304780074712    -2.95074552451969
H   24   1    -5.26532430573853     5.45420349051338    -2.31005832200284
C   25   6    -8.39941882261433     4.73263980500213     0.21800571437956
H   26   1     7.83338371486801     2.19084139882824    -5.57093109900697
H   27   1     5.73544244039420     1.27376866537418    -8.01071492370229
C   28   6     9.21124858443101    -0.89699110072176    -7.88926949186242
H   29   1    -7.66272760055236     5.92277078003992     1.77035591474408
H   30   1    -9.31497248082589     3.08753015622020     1.12614408368786
C   31   6   -10.35481709231879     6.21833079391143    -1.30905206253246
H   32   1    10.58815905329501    -1.61074586756696    -6.49512691622620
H   33   1    10.23506248045667     0.32468009384095    -9.23072870921204
H   34   1     8.47665842847139    -2.53598436989925    -8.94921964622535
H   35   1    -9.48948872868064     7.90013588951020    -2.18823918416067
H   36   1   -11.93332513000955     6.86460487874102    -0.11255798845995
H   37   1   -11.15126291841033     5.04495968327630    -2.83849898862534
[GTO]
1 0
 s    8 1.00
                 11720  0.00070964594651845
                  1759  0.0054672722921914
                 400.8   0.027823118610189
                 113.7    0.10474773971146
                 37.03    0.28292084635691
                 13.27    0.44849523869833
                 5.025    0.27081688521277
                 1.013    0.01545029160744
 s    8 1.00
                 11720  -0.00031444341168873
                  1759  -0.0024821376810179
                 400.8  -0.012316355381583
                 113.7  -0.050538917343672
                 37.03   -0.13938490331632
                 13.27   -0.32507749481778
                 5.025   -0.22984830758785
                 1.013     1.0953793467883
 s    1 1.00
                0.3023                   1
 p    3 1.00
                  17.7   0.062679166281506
                 3.854    0.33353656587936
                 1.046    0.74123964163973
 p    1 1.00
                0.2753                   1
 d    1 1.00
                 1.185                   1

2 0
 s    3 1.00
                 13.01   0.033498726389998
                 1.962    0.23480080117413
                0.4446     0.8136829578829
 s    1 1.00
                 0.122                   1
 p    1 1.00
                 0.727                   1

3 0
 s    3 1.00
                 13.01   0.033498726389998
                 1.962    0.23480080117413
                0.4446     0.8136829578829
 s    1 1.00
                 0.122                   1
 p    1 1.00
                 0.727                   1

4 0
 s    8 1.00
                 11720  0.00070964594651845
                  1759  0.0054672722921914
                 400.8   0.027823118610189
                 113.7    0.10474773971146
                 37.03    0.28292084635691
                 13.27    0.44849523869833
                 5.025    0.27081688521277
                 1.013    0.01545029160744
 s    8 1.00
                 11720  -0.00031444341168873
                  1759  -0.0024821376810179
                 400.8  -0.012316355381583
                 113.7  -0.050538917343672
                 37.03   -0.13938490331632
                 13.27   -0.32507749481778
                 5.025   -0.22984830758785
                 1.013     1.0953793467883
 s    1 1.00
                0.3023                   1
 p    3 1.00
                  17.7   0.062679166281506
                 3.854    0.33353656587936
                 1.046    0.74123964163973
 p    1 1.00
                0.2753                   1
 d    1 1.00
                 1.185                   1

5 0
 s    8 1.00
                  6665  0.00069158396281299
                  1000  0.0053257961529341
                   228   0.027060721042034
                 64.71    0.10165684614077
                 21.06     0.2745748236174
                 7.495    0.44829431892377
                 2.797    0.28490261071525
                0.5215   0.015194859206082
 s    8 1.00
                  6665  -0.00029326965268655
                  1000  -0.0023180354739745
                   228  -0.011499786038565
                 64.71  -0.046826727009787
                 21.06   -0.12846616875047
                 7.495   -0.30126627246289
                 2.797   -0.25563070233011
                0.5215      1.093793361012
 s    1 1.00
                0.1596                   1
 p    3 1.00
                 9.439   0.056979251590039
                 2.002    0.31320721150073
                0.5456    0.76037674173753
 p    1 1.00
                0.1517                   1
 d    1 1.00
                  0.55                   1

6 0
 s    8 1.00
                  6665  0.00069158396281299
                  1000  0.0053257961529341
                   228   0.027060721042034
                 64.71    0.10165684614077
                 21.06     0.2745748236174
                 7.495    0.44829431892377
                 2.797    0.28490261071525
                0.5215   0.015194859206082
 s    8 1.00
                  6665  -0.00029326965268655
                  1000  -0.0023180354739745
                   228  -0.011499786038565
                 64.71  -0.046826727009787
                 21.06   -0.12846616875047
                 7.495   -0.30126627246289
                 2.797   -0.25563070233011
                0.5215      1.093793361012
 s    1 1.00
                0.1596                   1
 p    3 1.00
                 9.439   0.056979251590039
                 2.002    0.31320721150073
                0.5456    0.76037674173753
 p    1 1.00
                0.1517                   1
 d    1 1.00
                  0.55                   1

7 0
 s    8 1.00
                  6665  0.00069158396281299
                  1000  0.0053257961529341
                   228   0.027060721042034
                 64.71    0.10165684614077
                 21.06     0.2745748236174
                 7.495    0.44829431892377
                 2.797    0.28490261071525
                0.5215   0.015194859206082
 s    8 1.00
                  6665  -0.00029326965268655
                  1000  -0.0023180354739745
                   228  -0.011499786038565
                 64.71  -0.046826727009787
                 21.06   -0.12846616875047
                 7.495   -0.30126627246289
                 2.797   -0.25563070233011
                0.5215      1.093793361012
 s    1 1.00
                0.1596                   1
 p    3 1.00
                 9.439   0.056979251590039
                 2.002    0.31320721150073
                0.5456    0.76037674173753
 p    1 1.00
                0.1517                   1
 d    1 1.00
                  0.55                   1

8 0
 s    3 1.00
                 13.01   0.033498726389998
                 1.962    0.23480080117413
                0.4446     0.8136829578829
 s    1 1.00
                 0.122                   1
 p    1 1.00
                 0.727                   1

9 0
 s    8 1.00
                  6665  0.00069158396281299
                  1000  0.0053257961529341
                   228   0.027060721042034
                 64.71    0.10165684614077
                 21.06     0.2745748236174
                 7.495    0.44829431892377
                 2.797    0.28490261071525
                0.5215   0.015194859206082
 s    8 1.00
                  6665  -0.00029326965268655
                  1000  -0.0023180354739745
                   228  -0.011499786038565
                 64.71  -0.046826727009787
                 21.06   -0.12846616875047
                 7.495   -0.30126627246289
                 2.797   -0.25563070233011
                0.5215      1.093793361012
 s    1 1.00
                0.1596                   1
 p    3 1.00
                 9.439   0.056979251590039
                 2.002    0.31320721150073
                0.5456    0.76037674173753
 p    1 1.00
                0.1517                   1
 d    1 1.00
                  0.55                   1

10 0
 s    3 1.00
                 13.01   0.033498726389998
                 1.962    0.23480080117413
                0.4446     0.8136829578829
 s    1 1.00
                 0.122                   1
 p    1 1.00
                 0.727                   1

11 0
 s    3 1.00
                 13.01   0.033498726389998
                 1.962    0.23480080117413
                0.4446     0.8136829578829
 s    1 1.00
                 0.122                   1
 p    1 1.00
                 0.727                   1

12 0
 s    3 1.00
                 13.01   0.033498726389998
                 1.962    0.23480080117413
                0.4446     0.8136829578829
 s    1 1.00
                 0.122                   1
 p    1 1.00
                 0.727                   1

13 0
 s    8 1.00
                  6665  0.00069158396281299
                  1000  0.0053257961529341
                   228   0.027060721042034
                 64.71    0.10165684614077
                 21.06     0.2745748236174
                 7.495    0.44829431892377
                 2.797    0.28490261071525
                0.5215   0.015194859206082
 s    8 1.00
                  6665  -0.00029326965268655
                  1000  -0.0023180354739745
                   228  -0.011499786038565
                 64.71  -0.046826727009787
                 21.06   -0.12846616875047
                 7.495   -0.30126627246289
                 2.797   -0.25563070233011
                0.5215      1.093793361012
 s    1 1.00
                0.1596                   1
 p    3 1.00
                 9.439   0.056979251590039
                 2.002    0.31320721150073
                0.5456    0.76037674173753
 p    1 1.00
                0.1517                   1
 d    1 1.00
                  0.55                   1

14 0
 s    3 1.00
                 13.01   0.033498726389998
                 1.962    0.23480080117413
                0.4446     0.8136829578829
 s    1 1.00
                 0.122                   1
 p    1 1.00
                 0.727                   1

15 0
 s    3 1.00
                 13.01   0.033498726389998
                 1.962    0.23480080117413
                0.4446     0.8136829578829
 s    1 1.00
                 0.122                   1
 p    1 1.00
                 0.727                   1

16 0
 s    8 1.00
                  6665  0.00069158396281299
                  1000  0.0053257961529341
                   228   0.027060721042034
                 64.71    0.10165684614077
                 21.06     0.2745748236174
                 7.495    0.44829431892377
                 2.797    0.28490261071525
                0.5215   0.015194859206082
 s    8 1.00
                  6665  -0.00029326965268655
                  1000  -0.0023180354739745
                   228  -0.011499786038565
                 64.71  -0.046826727009787
                 21.06   -0.12846616875047
                 7.495   -0.30126627246289
                 2.797   -0.25563070233011
                0.5215      1.093793361012
 s    1 1.00
                0.1596                   1
 p    3 1.00
                 9.439   0.056979251590039
                 2.002    0.31320721150073
                0.5456    0.76037674173753
 p    1 1.00
                0.1517                   1
 d    1 1.00
                  0.55                   1

17 0
 s    3 1.00
                 13.01   0.033498726389998
                 1.962    0.23480080117413
                0.4446     0.8136829578829
 s    1 1.00
                 0.122                   1
 p    1 1.00
                 0.727                   1

18 0
 s    3 1.00
                 13.01   0.033498726389998
                 1.962    0.23480080117413
                0.4446     0.8136829578829
 s    1 1.00
                 0.122                   1
 p    1 1.00
                 0.727                   1

19 0
 s    8 1.00
                  6665  0.00069158396281299
                  1000  0.0053257961529341
                   228   0.027060721042034
                 64.71    0.10165684614077
                 21.06     0.2745748236174
                 7.495    0.44829431892377
                 2.797    0.28490261071525
                0.5215   0.015194859206082
 s    8 1.00
                  6665  -0.00029326965268655
                  1000  -0.0023180354739745
                   228  -0.011499786038565
                 64.71  -0.046826727009787
                 21.06   -0.12846616875047
                 7.495   -0.30126627246289
                 2.797   -0.25563070233011
                0.5215      1.093793361012
 s    1 1.00
                0.1596                   1
 p    3 1.00
                 9.439   0.056979251590039
                 2.002    0.31320721150073
                0.5456    0.76037674173753
 p    1 1.00
                0.1517                   1
 d    1 1.00
                  0.55                   1

20 0
 s    3 1.00
                 13.01   0.033498726389998
                 1.962    0.23480080117413
                0.4446     0.8136829578829
 s    1 1.00
                 0.122                   1
 p    1 1.00
                 0.727                   1

21 0
 s    8 1.00
                  6665  0.00069158396281299
                  1000  0.0053257961529341
                   228   0.027060721042034
                 64.71    0.10165684614077
                 21.06     0.2745748236174
                 7.495    0.44829431892377
                 2.797    0.28490261071525
                0.5215   0.015194859206082
 s    8 1.00
                  6665  -0.00029326965268655
                  1000  -0.0023180354739745
                   228  -0.011499786038565
                 64.71  -0.046826727009787
                 21.06   -0.12846616875047
                 7.495   -0.30126627246289
                 2.797   -0.25563070233011
                0.5215      1.093793361012
 s    1 1.00
                0.1596                   1
 p    3 1.00
                 9.439   0.056979251590039
                 2.002    0.31320721150073
                0.5456    0.76037674173753
 p    1 1.00
                0.1517                   1
 d    1 1.00
                  0.55                   1

22 0
 s    3 1.00
                 13.01   0.033498726389998
                 1.962    0.23480080117413
                0.4446     0.8136829578829
 s    1 1.00
                 0.122                   1
 p    1 1.00
                 0.727                   1

23 0
 s    3 1.00
                 13.01   0.033498726389998
                 1.962    0.23480080117413
                0.4446     0.8136829578829
 s    1 1.00
                 0.122                   1
 p    1 1.00
                 0.727                   1

24 0
 s    3 1.00
                 13.01   0.033498726389998
                 1.962    0.23480080117413
                0.4446     0.8136829578829
 s    1 1.00
                 0.122                   1
 p    1 1.00
                 0.727                   1

25 0
 s    8 1.00
                  6665  0.00069158396281299
                  1000  0.0053257961529341
                   228   0.027060721042034
                 64.71    0.10165684614077
                 21.06     0.2745748236174
                 7.495    0.44829431892377
                 2.797    0.28490261071525
                0.5215   0.015194859206082
 s    8 1.00
                  6665  -0.00029326965268655
                  1000  -0.0023180354739745
                   228  -0.011499786038565
                 64.71  -0.046826727009787
                 21.06   -0.12846616875047
                 7.495   -0.30126627246289
                 2.797   -0.25563070233011
                0.5215      1.093793361012
 s    1 1.00
                0.1596                   1
 p    3 1.00
                 9.439   0.056979251590039
                 2.002    0.31320721150073
                0.5456    0.76037674173753
 p    1 1.00
                0.1517                   1
 d    1 1.00
                  0.55                   1

26 0
 s    3 1.00
                 13.01   0.033498726389998
                 1.962    0.23480080117413
                0.4446     0.8136829578829
 s    1 1.00
                 0.122                   1
 p    1 1.00
                 0.727                   1

27 0
 s    3 1.00
                 13.01   0.033498726389998
                 1.962    0.23480080117413
                0.4446     0.8136829578829
 s    1 1.00
                 0.122                   1
 p    1 1.00
                 0.727                   1

28 0
 s    8 1.00
                  6665  0.00069158396281299
                  1000  0.0053257961529341
                   228   0.027060721042034
                 64.71    0.10165684614077
                 21.06     0.2745748236174
                 7.495    0.44829431892377
                 2.797    0.28490261071525
                0.5215   0.015194859206082
 s    8 1.00
                  6665  -0.00029326965268655
                  1000  -0.0023180354739745
                   228  -0.011499786038565
                 64.71  -0.046826727009787
                 21.06   -0.12846616875047
                 7.495   -0.30126627246289
                 2.797   -0.25563070233011
                0.5215      1.093793361012
 s    1 1.00
                0.1596                   1
 p    3 1.00
                 9.439   0.056979251590039
                 2.002    0.31320721150073
                0.5456    0.76037674173753
 p    1 1.00
                0.1517                   1
 d    1 1.00
                  0.55                   1

29 0
 s    3 1.00
                 13.01   0.033498726389998
                 1.962    0.23480080117413
                0.4446     0.8136829578829
 s    1 1.00
                 0.122                   1
 p    1 1.00
                 0.727                   1

30 0
 s    3 1.00
                 13.01   0.033498726389998
                 1.962    0.23480080117413
                0.4446     0.8136829578829
 s    1 1.00
                 0.122                   1
 p    1 1.00
                 0.727                   1

31 0
 s    8 1.00
                  6665  0.00069158396281299
                  1000  0.0053257961529341
                   228   0.027060721042034
                 64.71    0.10165684614077
                 21.06     0.2745748236174
                 7.495    0.44829431892377
                 2.797    0.28490261071525
                0.5215   0.015194859206082
 s    8 1.00
                  6665  -0.00029326965268655
                  1000  -0.0023180354739745
                   228  -0.011499786038565
                 64.71  -0.046826727009787
                 21.06   -0.12846616875047
                 7.495   -0.30126627246289
                 2.797   -0.25563070233011
                0.5215      1.093793361012
 s    1 1.00
                0.1596                   1
 p    3 1.00
                 9.439   0.056979251590039
                 2.002    0.31320721150073
                0.5456    0.76037674173753
 p    1 1.00
                0.1517                   1
 d    1 1.00
                  0.55                   1

32 0
 s    3 1.00
                 13.01   0.033498726389998
                 1.962    0.23480080117413
                0.4446     0.8136829578829
 s    1 1.00
                 0.122                   1
 p    1 1.00
                 0.727                   1

33 0
 s    3 1.00
                 13.01   0.033498726389998
                 1.962    0.23480080117413
                0.4446     0.8136829578829
 s    1 1.00
                 0.122                   1
 p    1 1.00
                 0.727                   1

34 0
 s    3 1.00
                 13.01   0.033498726389998
                 1.962    0.23480080117413
                0.4446     0.8136829578829
 s    1 1.00
                 0.122                   1
 p    1 1.00
                 0.727                   1

35 0
 s    3 1.00
                 13.01   0.033498726389998
                 1.962    0.23480080117413
                0.4446     0.8136829578829
 s    1 1.00
                 0.122                   1
 p    1 1.00
                 0.727                   1

36 0
 s    3 1.00
                 13.01   0.033498726389998
                 1.962    0.23480080117413
                0.4446     0.8136829578829
 s    1 1.00
                 0.122                   1
 p    1 1.00
                 0.727                   1

37 0
 s    3 1.00
                 13.01   0.033498726389998
                 1.962    0.23480080117413
                0.4446     0.8136829578829
 s    1 1.00
                 0.122                   1
 p    1 1.00
                 0.727                   1

[5d]
[7f]
[9g]

[MO]
 Sym= A
 Ene=               0
 Spin= Alpha
 Occup=    1.00000
   1    -4.3087145302526e-05
   2    -2.8230625582759e-05
   3    0.00010130356248136
   4    -8.4986732331289e-08
   5    3.9511229885223e-06
   6    1.4346241509532e-06
   7    5.4001224345093e-07
   8    -2.0631838341886e-05
   9    -7.1885165972787e-05
  10    1.2424165968633e-05
  11    8.9856053052765e-09
  12    -8.182238502873e-07
  13    5.1514648506034e-07
  14    2.5418692816422e-08
  15    -1.3220617215558e-05
  16    -0.00014666705001774
  17    -8.8467311239767e-08
  18    1.3155612636179e-06
  19    -3.5703956049572e-05
  20    -6.2873328822455e-06
  21    5.6790445421151e-05
  22    1.744707133377e-07
  23    -5.7399322819891e-06
  24    2.2703494665886e-06
  25       1.0013631938073
  26    0.0019544075244496
  27    -0.006800338676585
  28    -4.7055559027456e-06
  29    8.2611777307627e-06
  30    -0.0016549429737008
  31    -2.9047169979015e-07
  32    -1.4558715438362e-06
  33    0.0018352689387303
  34    0.0001256909543165
  35    -2.9748105430737e-06
  36    1.3566038809956e-06
  37    6.7472151043599e-05
  38    -0.00017571086263044
  39    0.00027480867290885
  40    0.00037474347525345
  41    0.0014219273551919
  42    1.5096383564085e-05
  43    -9.9287503082722e-06
  44    -7.1466644942059e-06
  45    8.1504391632846e-05
  46    -6.3401160899138e-05
  47    0.0035584989978213
  48    -0.0005330224482622
  49    -8.4484260825801e-06
  50    2.4608327458676e-06
  51    2.881347490075e-05
  52    -0.00010754152029651
  53    -8.4985364378981e-05
  54    -0.00016624887254218
  55     0.001371017695204
  56    7.8164643235981e-05
  57    -7.4562694968011e-06
  58    -3.5907809751517e-05
  59    -0.00042371356943423
  60    0.00047700422200133
  61    -0.00093008747017763
  62    -0.000117522077819
  63    0.00015009650686592
  64    -0.00014289186188482
  65    5.5048743968624e-05
  66    -0.00012987547024086
  67    -4.0138481018278e-05
  68    -9.8203399771652e-05
  69    0.00051158750689043
  70    -6.0890921994932e-05
  71    3.9958971021974e-05
  72    -6.2618963991857e-05
  73    0.0010017195195191
  74    -0.00077114942650655
  75    -0.00063893450433348
  76    -0.00014098348370503
  77    -0.00012074428413639
  78    8.9672974382386e-05
  79     5.89720791691e-05
  80    -0.00015179514641018
  81    -6.4182408244805e-05
  82    0.00020766525358335
  83    6.6079239113895e-05
  84    -4.8547967650331e-05
  85    4.8854037717252e-05
  86    2.5013193387473e-05
  87    4.8990593491309e-05
  88    -0.00060633256540957
  89    -1.5837493200688e-05
  90    -1.7104895743564e-05
  91    1.2021492635457e-05
  92    0.00025682458818244
  93    0.00062682656813348
  94    -1.8105586756777e-05
  95    1.8122524534304e-05
  96    1.1203583428303e-05
  97    7.3071673564733e-06
  98    -2.0544119961613e-05
  99    -4.5861180053512e-05
 100    -3.7502916702536e-05
 101    -0.00015861901849583
 102    9.0453300853542e-06
 103    -9.8767021295842e-06
 104    7.4636665404302e-05
 105    -1.8060819114608e-05
 106    -0.00020116699558163
 107    -6.4368611213917e-05
 108    1.0923035382707e-05
 109    7.4719295518415e-05
 110    7.7299730515872e-05
 111    -5.9500642216456e-05
 112    -4.5384688658414e-05
 113    1.8586788313639e-05
 114    6.9721513492253e-05
 115    -4.9596082146652e-05
 116    -0.00010084649391934
 117    0.00084214354375875
 118    -2.6073629636331e-05
 119    -9.9995171407093e-06
 120    3.2477529147893e-05
 121    0.00029396960123193
 122    3.0897791492782e-05
 123    -0.00013862897043035
 124    -6.400202047371e-06
 125    1.2347404110957e-05
 126    1.5586727151592e-05
 127    -3.2120667643549e-05
 128    4.9885556581598e-05
 129    -1.9071489653802e-05
 130    -0.00032307002786787
 131    7.5580877349038e-06
 132    5.8766552798078e-06
 133    2.9215404879944e-05
 134    2.5900410977327e-05
 135    -0.00011827475455319
 136    -1.3480126553941e-05
 137    -2.4177260806535e-05
 138    -2.6657203352754e-05
 139    -2.1219682786892e-05
 140    -3.8669525835021e-05
 141    0.00028844864695004
 142    7.9178766760114e-06
 143    -2.5192672229758e-06
 144    -6.1605739769791e-06
 145    -0.00022993628927333
 146    5.2514596020307e-05
 147    6.3743164488075e-05
 148    -2.4029511491214e-06
 149    3.0593027598681e-06
 150    -3.5712012874112e-06
 151    1.1995179532263e-05
 152    -4.9507238690836e-06
 153    -9.6807206725748e-05
 154    -0.00011045164541508
 155    -2.5974077657972e-05
 156    2.9585297919237e-05
 157    2.0169878880632e-05
 158    -2.573489172375e-05
 159    -8.9259336567087e-05
 160    -5.933737828591e-05
 161    -7.1431755169779e-06
 162    6.2650081779635e-06
 163    -2.0926879868786e-06
 164    -6.018661838277e-06
 165    -0.00024253037251988
 166    -1.7316278737825e-05
 167    1.3981167558059e-05
 168    6.5827653654385e-06
 169    0.00023760792687995
 170    -0.00021286678244289
 171    -0.00013303346373086
 172    -2.8727166674644e-06
 173    1.0009097344889e-05
 174    -1.3554722418486e-05
 175    3.2735394088842e-06
 176    -1.8240817070372e-05
 177    -1.6006630785392e-05
 178    8.3828214237023e-05
 179    -8.0999866111547e-07
 180    1.9538528780639e-06
 181    -4.9499067387923e-06
 182    1.5224715384566e-05
 183    2.7041878649177e-05
 184    -6.6742914252624e-05
 185    -4.8176819991791e-06
 186    3.530804296147e-06
 187    5.5636508186669e-06
 188    0.00012689374489076
 189    -0.00010215287918803
 190    -8.5080718359802e-05
 191    1.2822963216996e-06
 192    2.0360162760341e-06
 193    -7.6820772574699e-06
 194    -3.0821280235683e-06
 195    -5.1270695088046e-06
 196    -1.3760858442714e-05
 197    -1.8628199825364e-05
 198    5.6474982316064e-06
 199     1.95804622262e-06
 200    -3.5365569325416e-06
 201    -1.3335363861294e-05
 202    3.6065827207403e-06
 203    -1.3015688976935e-05
 204    9.9958398368442e-06
 205    1.177848261816e-05
 206    8.3705313258517e-06
 207    6.8122695638339e-05
 208    -1.6149925830958e-05
 209    3.9234755994512e-06
 210    1.5590402999606e-05
 211    -1.7907150923683e-05
 212    -3.0681469594627e-05
 213    0.00025627453019856
 214    4.3929270630532e-06
 215    -1.7650358643835e-06
 216    -6.3802834328526e-06
 217    0.00019537250858445
 218    -5.3513563467854e-05
 219    -7.7082531694323e-05
 220    -1.922055004171e-06
 221    -1.6462813727367e-05
 222    5.4239062275353e-06
 223    9.1785887978547e-06
 224    -1.7167994970703e-06
 225    2.5386407324669e-05
 226    5.4282323094089e-05
 227    -1.2265894587297e-05
 228    -1.9079757386305e-06
 229    -9.8504554473749e-07
 230    9.7231522997011e-06
 231    5.4352613216184e-05
 232    -3.967202945555e-06
 233    6.3071042917818e-06
 234    1.1970716932382e-05
 235    4.046313891936e-07
 236    6.6789196278198e-07
 237    -7.8349697876995e-05
 238    2.3274342357588e-06
 239    2.0070628783062e-06
 240    -3.7970058961197e-06
 241    3.5329489725929e-05
 242    -6.2639061492338e-05
 243    1.780409257106e-05
 244    1.8997412135163e-06
 245    1.8138082681684e-06
 246    -1.919189951587e-06
 247    1.7112494705152e-07
 248    9.3046728535207e-07
 249    -1.7836204402325e-05
 250    1.2965684956038e-05
 251    -4.6067489651041e-06
 252    -9.2977828620548e-07
 253    -1.9354006377889e-07
 254    -1.5723545881333e-05
 255     5.61212933852e-05
 256    -8.6624645976188e-08
 257    4.4330737115411e-06
 258    -9.1755671790232e-07
 259    -1.0435266745445e-05
 260    -2.0649288565119e-05
 261    7.8925718640023e-05
 262    -4.3574711650133e-07