[Molden Format]
made by pyscf v[2.0.1]
[Atoms] (AU)
O   1   8     0.00000000000000     0.00000000000000     9.05202446090250
H   2   1     0.00000000000000     0.00000000000000     7.22862263900153
H   3   1    -0.05031916615174     1.78353065140343     9.42789615736916
O   4   8     0.00000000000000     0.00000000000000     2.31533471513237
C   5   6     0.00000000000000     0.00000000000000     0.00000000000000
C   6   6     2.01118073026938    -1.40227222164369    -1.50774939176400
C   7   6    -2.01249334291722     1.41331050329955    -1.50315905028694
H   8   1     3.32037363730244    -2.26721897153159    -0.13599698591495
C   9   6     3.45899267434009     0.28739631745591    -3.37437943254505
H   10   1     1.07662969841332    -2.94725144642667    -2.56541439481080
H   11   1    -2.67503415753480     0.18421555839588    -3.06194479365997
H   12   1    -1.07974048864772     3.03851734677796    -2.43674295017013
C   13   6    -4.21607110578555     2.32938802552922     0.11994162256091
H   14   1     4.24440173074564     1.93368664142019    -2.34976285512790
H   15   1     2.15020713235517     1.04714335134846    -4.81494497423699
C   16   6     5.60746363007797    -1.12419643481196    -4.70268606082550
H   17   1    -3.46838323670267     3.50951302338067     1.66946842715333
H   18   1    -5.11873485366228     0.68575958301209     1.04047743976495
C   19   6    -6.18314754751344     3.80909592987882    -1.39656589068747
H   20   1     6.93011263717176    -1.87550812453645    -3.26656317360070
C   21   6     7.06356622236532     0.52877932406334    -6.57829775293605
H   22   1     4.82318879258361    -2.78573437948532    -5.70504560381835
H   23   1    -6.91582688743803     2.61304780074712    -2.95074552451969
H   24   1    -5.26532430573853     5.45420349051338    -2.31005832200284
C   25   6    -8.39941882261433     4.73263980500213     0.21800571437956
H   26   1     7.83338371486801     2.19084139882824    -5.57093109900697
H   27   1     5.73544244039420     1.27376866537418    -8.01071492370229
C   28   6     9.21124858443101    -0.89699110072176    -7.88926949186242
H   29   1    -7.66272760055236     5.92277078003992     1.77035591474408
H   30   1    -9.31497248082589     3.08753015622020     1.12614408368786
C   31   6   -10.35481709231879     6.21833079391143    -1.30905206253246
H   32   1    10.58815905329501    -1.61074586756696    -6.49512691622620
H   33   1    10.23506248045667     0.32468009384095    -9.23072870921204
H   34   1     8.47665842847139    -2.53598436989925    -8.94921964622535
H   35   1    -9.48948872868064     7.90013588951020    -2.18823918416067
H   36   1   -11.93332513000955     6.86460487874102    -0.11255798845995
H   37   1   -11.15126291841033     5.04495968327630    -2.83849898862534
[GTO]
1 0
 s    8 1.00
                 11720  0.00070964594651845
                  1759  0.0054672722921914
                 400.8   0.027823118610189
                 113.7    0.10474773971146
                 37.03    0.28292084635691
                 13.27    0.44849523869833
                 5.025    0.27081688521277
                 1.013    0.01545029160744
 s    8 1.00
                 11720  -0.00031444341168873
                  1759  -0.0024821376810179
                 400.8  -0.012316355381583
                 113.7  -0.050538917343672
                 37.03   -0.13938490331632
                 13.27   -0.32507749481778
                 5.025   -0.22984830758785
                 1.013     1.0953793467883
 s    1 1.00
                0.3023                   1
 p    3 1.00
                  17.7   0.062679166281506
                 3.854    0.33353656587936
                 1.046    0.74123964163973
 p    1 1.00
                0.2753                   1
 d    1 1.00
                 1.185                   1

2 0
 s    3 1.00
                 13.01   0.033498726389998
                 1.962    0.23480080117413
                0.4446     0.8136829578829
 s    1 1.00
                 0.122                   1
 p    1 1.00
                 0.727                   1

3 0
 s    3 1.00
                 13.01   0.033498726389998
                 1.962    0.23480080117413
                0.4446     0.8136829578829
 s    1 1.00
                 0.122                   1
 p    1 1.00
                 0.727                   1

4 0
 s    8 1.00
                 11720  0.00070964594651845
                  1759  0.0054672722921914
                 400.8   0.027823118610189
                 113.7    0.10474773971146
                 37.03    0.28292084635691
                 13.27    0.44849523869833
                 5.025    0.27081688521277
                 1.013    0.01545029160744
 s    8 1.00
                 11720  -0.00031444341168873
                  1759  -0.0024821376810179
                 400.8  -0.012316355381583
                 113.7  -0.050538917343672
                 37.03   -0.13938490331632
                 13.27   -0.32507749481778
                 5.025   -0.22984830758785
                 1.013     1.0953793467883
 s    1 1.00
                0.3023                   1
 p    3 1.00
                  17.7   0.062679166281506
                 3.854    0.33353656587936
                 1.046    0.74123964163973
 p    1 1.00
                0.2753                   1
 d    1 1.00
                 1.185                   1

5 0
 s    8 1.00
                  6665  0.00069158396281299
                  1000  0.0053257961529341
                   228   0.027060721042034
                 64.71    0.10165684614077
                 21.06     0.2745748236174
                 7.495    0.44829431892377
                 2.797    0.28490261071525
                0.5215   0.015194859206082
 s    8 1.00
                  6665  -0.00029326965268655
                  1000  -0.0023180354739745
                   228  -0.011499786038565
                 64.71  -0.046826727009787
                 21.06   -0.12846616875047
                 7.495   -0.30126627246289
                 2.797   -0.25563070233011
                0.5215      1.093793361012
 s    1 1.00
                0.1596                   1
 p    3 1.00
                 9.439   0.056979251590039
                 2.002    0.31320721150073
                0.5456    0.76037674173753
 p    1 1.00
                0.1517                   1
 d    1 1.00
                  0.55                   1

6 0
 s    8 1.00
                  6665  0.00069158396281299
                  1000  0.0053257961529341
                   228   0.027060721042034
                 64.71    0.10165684614077
                 21.06     0.2745748236174
                 7.495    0.44829431892377
                 2.797    0.28490261071525
                0.5215   0.015194859206082
 s    8 1.00
                  6665  -0.00029326965268655
                  1000  -0.0023180354739745
                   228  -0.011499786038565
                 64.71  -0.046826727009787
                 21.06   -0.12846616875047
                 7.495   -0.30126627246289
                 2.797   -0.25563070233011
                0.5215      1.093793361012
 s    1 1.00
                0.1596                   1
 p    3 1.00
                 9.439   0.056979251590039
                 2.002    0.31320721150073
                0.5456    0.76037674173753
 p    1 1.00
                0.1517                   1
 d    1 1.00
                  0.55                   1

7 0
 s    8 1.00
                  6665  0.00069158396281299
                  1000  0.0053257961529341
                   228   0.027060721042034
                 64.71    0.10165684614077
                 21.06     0.2745748236174
                 7.495    0.44829431892377
                 2.797    0.28490261071525
                0.5215   0.015194859206082
 s    8 1.00
                  6665  -0.00029326965268655
                  1000  -0.0023180354739745
                   228  -0.011499786038565
                 64.71  -0.046826727009787
                 21.06   -0.12846616875047
                 7.495   -0.30126627246289
                 2.797   -0.25563070233011
                0.5215      1.093793361012
 s    1 1.00
                0.1596                   1
 p    3 1.00
                 9.439   0.056979251590039
                 2.002    0.31320721150073
                0.5456    0.76037674173753
 p    1 1.00
                0.1517                   1
 d    1 1.00
                  0.55                   1

8 0
 s    3 1.00
                 13.01   0.033498726389998
                 1.962    0.23480080117413
                0.4446     0.8136829578829
 s    1 1.00
                 0.122                   1
 p    1 1.00
                 0.727                   1

9 0
 s    8 1.00
                  6665  0.00069158396281299
                  1000  0.0053257961529341
                   228   0.027060721042034
                 64.71    0.10165684614077
                 21.06     0.2745748236174
                 7.495    0.44829431892377
                 2.797    0.28490261071525
                0.5215   0.015194859206082
 s    8 1.00
                  6665  -0.00029326965268655
                  1000  -0.0023180354739745
                   228  -0.011499786038565
                 64.71  -0.046826727009787
                 21.06   -0.12846616875047
                 7.495   -0.30126627246289
                 2.797   -0.25563070233011
                0.5215      1.093793361012
 s    1 1.00
                0.1596                   1
 p    3 1.00
                 9.439   0.056979251590039
                 2.002    0.31320721150073
                0.5456    0.76037674173753
 p    1 1.00
                0.1517                   1
 d    1 1.00
                  0.55                   1

10 0
 s    3 1.00
                 13.01   0.033498726389998
                 1.962    0.23480080117413
                0.4446     0.8136829578829
 s    1 1.00
                 0.122                   1
 p    1 1.00
                 0.727                   1

11 0
 s    3 1.00
                 13.01   0.033498726389998
                 1.962    0.23480080117413
                0.4446     0.8136829578829
 s    1 1.00
                 0.122                   1
 p    1 1.00
                 0.727                   1

12 0
 s    3 1.00
                 13.01   0.033498726389998
                 1.962    0.23480080117413
                0.4446     0.8136829578829
 s    1 1.00
                 0.122                   1
 p    1 1.00
                 0.727                   1

13 0
 s    8 1.00
                  6665  0.00069158396281299
                  1000  0.0053257961529341
                   228   0.027060721042034
                 64.71    0.10165684614077
                 21.06     0.2745748236174
                 7.495    0.44829431892377
                 2.797    0.28490261071525
                0.5215   0.015194859206082
 s    8 1.00
                  6665  -0.00029326965268655
                  1000  -0.0023180354739745
                   228  -0.011499786038565
                 64.71  -0.046826727009787
                 21.06   -0.12846616875047
                 7.495   -0.30126627246289
                 2.797   -0.25563070233011
                0.5215      1.093793361012
 s    1 1.00
                0.1596                   1
 p    3 1.00
                 9.439   0.056979251590039
                 2.002    0.31320721150073
                0.5456    0.76037674173753
 p    1 1.00
                0.1517                   1
 d    1 1.00
                  0.55                   1

14 0
 s    3 1.00
                 13.01   0.033498726389998
                 1.962    0.23480080117413
                0.4446     0.8136829578829
 s    1 1.00
                 0.122                   1
 p    1 1.00
                 0.727                   1

15 0
 s    3 1.00
                 13.01   0.033498726389998
                 1.962    0.23480080117413
                0.4446     0.8136829578829
 s    1 1.00
                 0.122                   1
 p    1 1.00
                 0.727                   1

16 0
 s    8 1.00
                  6665  0.00069158396281299
                  1000  0.0053257961529341
                   228   0.027060721042034
                 64.71    0.10165684614077
                 21.06     0.2745748236174
                 7.495    0.44829431892377
                 2.797    0.28490261071525
                0.5215   0.015194859206082
 s    8 1.00
                  6665  -0.00029326965268655
                  1000  -0.0023180354739745
                   228  -0.011499786038565
                 64.71  -0.046826727009787
                 21.06   -0.12846616875047
                 7.495   -0.30126627246289
                 2.797   -0.25563070233011
                0.5215      1.093793361012
 s    1 1.00
                0.1596                   1
 p    3 1.00
                 9.439   0.056979251590039
                 2.002    0.31320721150073
                0.5456    0.76037674173753
 p    1 1.00
                0.1517                   1
 d    1 1.00
                  0.55                   1

17 0
 s    3 1.00
                 13.01   0.033498726389998
                 1.962    0.23480080117413
                0.4446     0.8136829578829
 s    1 1.00
                 0.122                   1
 p    1 1.00
                 0.727                   1

18 0
 s    3 1.00
                 13.01   0.033498726389998
                 1.962    0.23480080117413
                0.4446     0.8136829578829
 s    1 1.00
                 0.122                   1
 p    1 1.00
                 0.727                   1

19 0
 s    8 1.00
                  6665  0.00069158396281299
                  1000  0.0053257961529341
                   228   0.027060721042034
                 64.71    0.10165684614077
                 21.06     0.2745748236174
                 7.495    0.44829431892377
                 2.797    0.28490261071525
                0.5215   0.015194859206082
 s    8 1.00
                  6665  -0.00029326965268655
                  1000  -0.0023180354739745
                   228  -0.011499786038565
                 64.71  -0.046826727009787
                 21.06   -0.12846616875047
                 7.495   -0.30126627246289
                 2.797   -0.25563070233011
                0.5215      1.093793361012
 s    1 1.00
                0.1596                   1
 p    3 1.00
                 9.439   0.056979251590039
                 2.002    0.31320721150073
                0.5456    0.76037674173753
 p    1 1.00
                0.1517                   1
 d    1 1.00
                  0.55                   1

20 0
 s    3 1.00
                 13.01   0.033498726389998
                 1.962    0.23480080117413
                0.4446     0.8136829578829
 s    1 1.00
                 0.122                   1
 p    1 1.00
                 0.727                   1

21 0
 s    8 1.00
                  6665  0.00069158396281299
                  1000  0.0053257961529341
                   228   0.027060721042034
                 64.71    0.10165684614077
                 21.06     0.2745748236174
                 7.495    0.44829431892377
                 2.797    0.28490261071525
                0.5215   0.015194859206082
 s    8 1.00
                  6665  -0.00029326965268655
                  1000  -0.0023180354739745
                   228  -0.011499786038565
                 64.71  -0.046826727009787
                 21.06   -0.12846616875047
                 7.495   -0.30126627246289
                 2.797   -0.25563070233011
                0.5215      1.093793361012
 s    1 1.00
                0.1596                   1
 p    3 1.00
                 9.439   0.056979251590039
                 2.002    0.31320721150073
                0.5456    0.76037674173753
 p    1 1.00
                0.1517                   1
 d    1 1.00
                  0.55                   1

22 0
 s    3 1.00
                 13.01   0.033498726389998
                 1.962    0.23480080117413
                0.4446     0.8136829578829
 s    1 1.00
                 0.122                   1
 p    1 1.00
                 0.727                   1

23 0
 s    3 1.00
                 13.01   0.033498726389998
                 1.962    0.23480080117413
                0.4446     0.8136829578829
 s    1 1.00
                 0.122                   1
 p    1 1.00
                 0.727                   1

24 0
 s    3 1.00
                 13.01   0.033498726389998
                 1.962    0.23480080117413
                0.4446     0.8136829578829
 s    1 1.00
                 0.122                   1
 p    1 1.00
                 0.727                   1

25 0
 s    8 1.00
                  6665  0.00069158396281299
                  1000  0.0053257961529341
                   228   0.027060721042034
                 64.71    0.10165684614077
                 21.06     0.2745748236174
                 7.495    0.44829431892377
                 2.797    0.28490261071525
                0.5215   0.015194859206082
 s    8 1.00
                  6665  -0.00029326965268655
                  1000  -0.0023180354739745
                   228  -0.011499786038565
                 64.71  -0.046826727009787
                 21.06   -0.12846616875047
                 7.495   -0.30126627246289
                 2.797   -0.25563070233011
                0.5215      1.093793361012
 s    1 1.00
                0.1596                   1
 p    3 1.00
                 9.439   0.056979251590039
                 2.002    0.31320721150073
                0.5456    0.76037674173753
 p    1 1.00
                0.1517                   1
 d    1 1.00
                  0.55                   1

26 0
 s    3 1.00
                 13.01   0.033498726389998
                 1.962    0.23480080117413
                0.4446     0.8136829578829
 s    1 1.00
                 0.122                   1
 p    1 1.00
                 0.727                   1

27 0
 s    3 1.00
                 13.01   0.033498726389998
                 1.962    0.23480080117413
                0.4446     0.8136829578829
 s    1 1.00
                 0.122                   1
 p    1 1.00
                 0.727                   1

28 0
 s    8 1.00
                  6665  0.00069158396281299
                  1000  0.0053257961529341
                   228   0.027060721042034
                 64.71    0.10165684614077
                 21.06     0.2745748236174
                 7.495    0.44829431892377
                 2.797    0.28490261071525
                0.5215   0.015194859206082
 s    8 1.00
                  6665  -0.00029326965268655
                  1000  -0.0023180354739745
                   228  -0.011499786038565
                 64.71  -0.046826727009787
                 21.06   -0.12846616875047
                 7.495   -0.30126627246289
                 2.797   -0.25563070233011
                0.5215      1.093793361012
 s    1 1.00
                0.1596                   1
 p    3 1.00
                 9.439   0.056979251590039
                 2.002    0.31320721150073
                0.5456    0.76037674173753
 p    1 1.00
                0.1517                   1
 d    1 1.00
                  0.55                   1

29 0
 s    3 1.00
                 13.01   0.033498726389998
                 1.962    0.23480080117413
                0.4446     0.8136829578829
 s    1 1.00
                 0.122                   1
 p    1 1.00
                 0.727                   1

30 0
 s    3 1.00
                 13.01   0.033498726389998
                 1.962    0.23480080117413
                0.4446     0.8136829578829
 s    1 1.00
                 0.122                   1
 p    1 1.00
                 0.727                   1

31 0
 s    8 1.00
                  6665  0.00069158396281299
                  1000  0.0053257961529341
                   228   0.027060721042034
                 64.71    0.10165684614077
                 21.06     0.2745748236174
                 7.495    0.44829431892377
                 2.797    0.28490261071525
                0.5215   0.015194859206082
 s    8 1.00
                  6665  -0.00029326965268655
                  1000  -0.0023180354739745
                   228  -0.011499786038565
                 64.71  -0.046826727009787
                 21.06   -0.12846616875047
                 7.495   -0.30126627246289
                 2.797   -0.25563070233011
                0.5215      1.093793361012
 s    1 1.00
                0.1596                   1
 p    3 1.00
                 9.439   0.056979251590039
                 2.002    0.31320721150073
                0.5456    0.76037674173753
 p    1 1.00
                0.1517                   1
 d    1 1.00
                  0.55                   1

32 0
 s    3 1.00
                 13.01   0.033498726389998
                 1.962    0.23480080117413
                0.4446     0.8136829578829
 s    1 1.00
                 0.122                   1
 p    1 1.00
                 0.727                   1

33 0
 s    3 1.00
                 13.01   0.033498726389998
                 1.962    0.23480080117413
                0.4446     0.8136829578829
 s    1 1.00
                 0.122                   1
 p    1 1.00
                 0.727                   1

34 0
 s    3 1.00
                 13.01   0.033498726389998
                 1.962    0.23480080117413
                0.4446     0.8136829578829
 s    1 1.00
                 0.122                   1
 p    1 1.00
                 0.727                   1

35 0
 s    3 1.00
                 13.01   0.033498726389998
                 1.962    0.23480080117413
                0.4446     0.8136829578829
 s    1 1.00
                 0.122                   1
 p    1 1.00
                 0.727                   1

36 0
 s    3 1.00
                 13.01   0.033498726389998
                 1.962    0.23480080117413
                0.4446     0.8136829578829
 s    1 1.00
                 0.122                   1
 p    1 1.00
                 0.727                   1

37 0
 s    3 1.00
                 13.01   0.033498726389998
                 1.962    0.23480080117413
                0.4446     0.8136829578829
 s    1 1.00
                 0.122                   1
 p    1 1.00
                 0.727                   1

[5d]
[7f]
[9g]

[MO]
 Sym= A
 Ene=               0
 Spin= Alpha
 Occup=    1.00000
   1    -6.6959219947077e-05
   2    -4.9373524464269e-05
   3    0.00013428832505098
   4    -4.639874710038e-08
   5    5.8854624542038e-06
   6    1.2740433854622e-05
   7    5.3818205904558e-07
   8    -2.6027032696681e-05
   9    -8.2506611351073e-05
  10    7.7855025426412e-06
  11    -5.2731199079197e-08
  12    -2.1922216738227e-07
  13    3.7549011122682e-07
  14    6.1448373921131e-09
  15    -1.7391921524363e-05
  16    -0.00020845185514317
  17    -2.8466419289407e-07
  18    1.9894908354163e-06
  19    -4.1786008657745e-06
  20    -7.4634092908075e-06
  21    7.0187873344799e-05
  22    1.6530206214261e-07
  23    -4.0262967304454e-06
  24    1.4632068487858e-06
  25        1.001373087494
  26     0.001976198849916
  27    -0.0068883528031513
  28    -4.9922383194044e-06
  29    9.7551273659109e-06
  30    -0.0016457624745433
  31    -3.1184751789152e-07
  32    -2.2638244527335e-06
  33    0.0019044340381502
  34    0.00011612000063242
  35    -2.8753854198163e-06
  36    1.452267682347e-06
  37    6.6940718604618e-05
  38    -0.00017425196178655
  39    0.00028347425301049
  40    0.00039331678946809
  41    0.0014887811666508
  42    1.5640256906739e-05
  43    -9.9534767987483e-06
  44    1.1388084109012e-05
  45    8.220912349959e-05
  46    -6.5033258902637e-05
  47    0.0036274740850812
  48    -0.0005165887431378
  49    -8.2893353700522e-06
  50    2.559890561822e-06
  51    2.9566462090553e-05
  52    -0.00010944885233623
  53    -8.4665506501978e-05
  54    -0.00016565431628261
  55    0.0013813567390971
  56    7.8437702761501e-05
  57    -7.3322090753542e-06
  58    -3.4928054257211e-05
  59    -0.00042607136481385
  60    0.00048036914393483
  61    -0.00095621689152984
  62    -0.00011659866668649
  63    0.0001498590677272
  64    -0.00014313172374051
  65    5.4535418918097e-05
  66    -0.00012812820615438
  67    -3.920797631044e-05
  68    -9.6546543393844e-05
  69    0.00051714018293942
  70    -6.1534619717129e-05
  71    4.0643281299979e-05
  72    -6.2134210362688e-05
  73    0.0010109957906489
  74    -0.0007772254745582
  75    -0.00065230793188174
  76    -0.00013998467828644
  77    -0.00012111170468658
  78    8.9758423491102e-05
  79    5.8545797218805e-05
  80    -0.00015055162337917
  81    -6.1246051402718e-05
  82    0.00021296694564109
  83    6.6606303706153e-05
  84    -4.8942719044562e-05
  85    4.7903899169154e-05
  86    2.5076525649313e-05
  87    4.9066421857717e-05
  88    -0.00061664567938839
  89    -1.5700849724404e-05
  90    -1.7194255523694e-05
  91    1.1534158999285e-05
  92    0.00026005908118546
  93    0.00064013116080401
  94    -1.4215819132705e-05
  95    1.8616405603844e-05
  96    1.1422092528788e-05
  97    7.7605646537799e-06
  98    -1.9922323525396e-05
  99    -4.7320548913123e-05
 100    -3.956029029503e-05
 101    -0.00016245140751755
 102    7.6068022873204e-06
 103    -1.0369778630221e-05
 104    7.6126179151171e-05
 105    -1.8989817606384e-05
 106    -0.00020452242107355
 107    -6.4083934335361e-05
 108    9.3409419504987e-06
 109    7.5610167772785e-05
 110    7.7675914021268e-05
 111    -6.3476357680267e-05
 112    -4.4672042175045e-05
 113    1.9464316816242e-05
 114    7.0663462251113e-05
 115    -4.8644771031692e-05
 116    -9.905640380295e-05
 117    0.00084738542191034
 118    -2.5162362151389e-05
 119    -1.0676791626997e-05
 120    3.2213672203698e-05
 121    0.00028706382205283
 122    3.4633291187305e-05
 123    -0.00014933991621342
 124    -6.2577455162206e-06
 125    1.1539751278145e-05
 126    1.5034415991042e-05
 127    -3.2147633394658e-05
 128    5.0393215561233e-05
 129    -1.9640563877115e-05
 130    -0.00033089294070573
 131    7.8618719277822e-06
 132    5.9564184372165e-06
 133    2.9463970990941e-05
 134    2.5848410656149e-05
 135    -0.00011747651808282
 136    -1.3649347690289e-05
 137    -2.4805683383764e-05
 138    -2.71101662771e-05
 139    -2.166996738162e-05
 140    -3.9473650944554e-05
 141     0.000297873310136
 142    7.8173706257014e-06
 143    -2.7477673907765e-06
 144    -6.081484926906e-06
 145    -0.0002312508313794
 146     5.63080126282e-05
 147    6.1516378923736e-05
 148    -2.5118330943384e-06
 149    3.1710432664677e-06
 150    -4.0854658689757e-06
 151    1.2384827952026e-05
 152    -4.8793919888997e-06
 153    -9.7026302653955e-05
 154    -0.00010133408497891
 155    -2.6490981787813e-05
 156    2.8533521517409e-05
 157    1.9378406418089e-05
 158    -2.5825005743269e-05
 159    -8.7509142509767e-05
 160    -5.9127772463366e-05
 161    -7.2076769168072e-06
 162    6.5790856377524e-06
 163    -1.3038651073705e-06
 164    -4.6097698510105e-06
 165    -0.00025446678341649
 166    -1.7540838477318e-05
 167    1.4023257489579e-05
 168    6.7570851789606e-06
 169    0.00023537881304592
 170    -0.00021066035661517
 171    -0.00013727355502509
 172    -2.6221524671193e-06
 173    1.0009250993128e-05
 174    -1.3514341759188e-05
 175    3.2026777709215e-06
 176    -1.8020596458724e-05
 177    -1.6265348873715e-05
 178        8.53650697e-05
 179    -1.0153768931693e-06
 180    1.7879869601276e-06
 181    -4.8185933421025e-06
 182    1.5741710032822e-05
 183    2.7925120602328e-05
 184    -7.2938687365593e-05
 185    -4.703056561669e-06
 186    3.6944160027934e-06
 187    5.4728224215327e-06
 188    0.00012926477031267
 189    -0.0001020470573971
 190    -8.8254465048532e-05
 191    1.2529494961381e-06
 192    2.2004790593841e-06
 193    -7.6431242179345e-06
 194    -3.0586003079599e-06
 195    -5.3985066727546e-06
 196    -1.3512952868468e-05
 197    -1.9112681344669e-05
 198    5.6625530371164e-06
 199    1.9370673770906e-06
 200    -3.3585731513943e-06
 201    -1.3110521660391e-05
 202    2.591905592971e-06
 203    -1.3232262243905e-05
 204    9.8780396640142e-06
 205    1.1757644330319e-05
 206    8.602102183981e-06
 207    6.8147211955471e-05
 208    -1.6058649911681e-05
 209    3.9005569953728e-06
 210    1.5754638463935e-05
 211    -1.8280266652413e-05
 212    -3.1293433990208e-05
 213    0.00026286349304133
 214    4.7969795445754e-06
 215    -1.913945808995e-06
 216    -6.3945005527993e-06
 217    0.00019444149908559
 218    -5.2651142080854e-05
 219    -7.8412940683793e-05
 220    -1.9559178064781e-06
 221    -1.6375141597907e-05
 222    5.4194447494591e-06
 223    9.2430139365883e-06
 224    -1.7741626492953e-06
 225    2.6007687788963e-05
 226    5.5487518954572e-05
 227    -1.243977905609e-05
 228    -2.0310961607242e-06
 229    -9.7540304078096e-07
 230    9.9907976376954e-06
 231    5.4378637550914e-05
 232    -4.0408848985546e-06
 233    6.4063268177119e-06
 234    1.2075505544767e-05
 235    4.5207110211715e-07
 236    7.6471559459743e-07
 237    -7.8912250803737e-05
 238    2.2837203473846e-06
 239    2.0464797128908e-06
 240    -3.7879592798414e-06
 241    3.5916851006348e-05
 242    -6.3295070293588e-05
 243    1.8069374082835e-05
 244    1.9454829829953e-06
 245    1.8618845773528e-06
 246    -1.9043909868235e-06
 247    1.6272453007824e-07
 248    9.3280919901005e-07
 249    -1.7762452646501e-05
 250    1.118819739359e-05
 251    -4.5064449626509e-06
 252    -8.3983555304862e-07
 253    -1.0622130135169e-09
 254    -1.5988054410679e-05
 255    5.5997910066272e-05
 256    7.6527792879177e-08
 257    4.3418452161065e-06
 258    -8.5289961459809e-07
 259    -1.0132329495258e-05
 260    -2.0173201959495e-05
 261    7.4990754612468e-05
 262    -5.5250847488567e-07