[Molden Format]
made by pyscf v[2.0.1]
[Atoms] (AU)
O   1   8     0.00000000000000     0.00000000000000    11.69764103529358
H   2   1     0.00000000000000     0.00000000000000     9.87423921339262
H   3   1    -0.05031916615174     1.78353065140343    12.07351273176025
O   4   8     0.00000000000000     0.00000000000000     2.31533471513237
C   5   6     0.00000000000000     0.00000000000000     0.00000000000000
C   6   6     2.01118073026938    -1.40227222164369    -1.50774939176400
C   7   6    -2.01249334291722     1.41331050329955    -1.50315905028694
H   8   1     3.32037363730244    -2.26721897153159    -0.13599698591495
C   9   6     3.45899267434009     0.28739631745591    -3.37437943254505
H   10   1     1.07662969841332    -2.94725144642667    -2.56541439481080
H   11   1    -2.67503415753480     0.18421555839588    -3.06194479365997
H   12   1    -1.07974048864772     3.03851734677796    -2.43674295017013
C   13   6    -4.21607110578555     2.32938802552922     0.11994162256091
H   14   1     4.24440173074564     1.93368664142019    -2.34976285512790
H   15   1     2.15020713235517     1.04714335134846    -4.81494497423699
C   16   6     5.60746363007797    -1.12419643481196    -4.70268606082550
H   17   1    -3.46838323670267     3.50951302338067     1.66946842715333
H   18   1    -5.11873485366228     0.68575958301209     1.04047743976495
C   19   6    -6.18314754751344     3.80909592987882    -1.39656589068747
H   20   1     6.93011263717176    -1.87550812453645    -3.26656317360070
C   21   6     7.06356622236532     0.52877932406334    -6.57829775293605
H   22   1     4.82318879258361    -2.78573437948532    -5.70504560381835
H   23   1    -6.91582688743803     2.61304780074712    -2.95074552451969
H   24   1    -5.26532430573853     5.45420349051338    -2.31005832200284
C   25   6    -8.39941882261433     4.73263980500213     0.21800571437956
H   26   1     7.83338371486801     2.19084139882824    -5.57093109900697
H   27   1     5.73544244039420     1.27376866537418    -8.01071492370229
C   28   6     9.21124858443101    -0.89699110072176    -7.88926949186242
H   29   1    -7.66272760055236     5.92277078003992     1.77035591474408
H   30   1    -9.31497248082589     3.08753015622020     1.12614408368786
C   31   6   -10.35481709231879     6.21833079391143    -1.30905206253246
H   32   1    10.58815905329501    -1.61074586756696    -6.49512691622620
H   33   1    10.23506248045667     0.32468009384095    -9.23072870921204
H   34   1     8.47665842847139    -2.53598436989925    -8.94921964622535
H   35   1    -9.48948872868064     7.90013588951020    -2.18823918416067
H   36   1   -11.93332513000955     6.86460487874102    -0.11255798845995
H   37   1   -11.15126291841033     5.04495968327630    -2.83849898862534
[GTO]
1 0
 s    8 1.00
                 11720  0.00070964594651845
                  1759  0.0054672722921914
                 400.8   0.027823118610189
                 113.7    0.10474773971146
                 37.03    0.28292084635691
                 13.27    0.44849523869833
                 5.025    0.27081688521277
                 1.013    0.01545029160744
 s    8 1.00
                 11720  -0.00031444341168873
                  1759  -0.0024821376810179
                 400.8  -0.012316355381583
                 113.7  -0.050538917343672
                 37.03   -0.13938490331632
                 13.27   -0.32507749481778
                 5.025   -0.22984830758785
                 1.013     1.0953793467883
 s    1 1.00
                0.3023                   1
 p    3 1.00
                  17.7   0.062679166281506
                 3.854    0.33353656587936
                 1.046    0.74123964163973
 p    1 1.00
                0.2753                   1
 d    1 1.00
                 1.185                   1

2 0
 s    3 1.00
                 13.01   0.033498726389998
                 1.962    0.23480080117413
                0.4446     0.8136829578829
 s    1 1.00
                 0.122                   1
 p    1 1.00
                 0.727                   1

3 0
 s    3 1.00
                 13.01   0.033498726389998
                 1.962    0.23480080117413
                0.4446     0.8136829578829
 s    1 1.00
                 0.122                   1
 p    1 1.00
                 0.727                   1

4 0
 s    8 1.00
                 11720  0.00070964594651845
                  1759  0.0054672722921914
                 400.8   0.027823118610189
                 113.7    0.10474773971146
                 37.03    0.28292084635691
                 13.27    0.44849523869833
                 5.025    0.27081688521277
                 1.013    0.01545029160744
 s    8 1.00
                 11720  -0.00031444341168873
                  1759  -0.0024821376810179
                 400.8  -0.012316355381583
                 113.7  -0.050538917343672
                 37.03   -0.13938490331632
                 13.27   -0.32507749481778
                 5.025   -0.22984830758785
                 1.013     1.0953793467883
 s    1 1.00
                0.3023                   1
 p    3 1.00
                  17.7   0.062679166281506
                 3.854    0.33353656587936
                 1.046    0.74123964163973
 p    1 1.00
                0.2753                   1
 d    1 1.00
                 1.185                   1

5 0
 s    8 1.00
                  6665  0.00069158396281299
                  1000  0.0053257961529341
                   228   0.027060721042034
                 64.71    0.10165684614077
                 21.06     0.2745748236174
                 7.495    0.44829431892377
                 2.797    0.28490261071525
                0.5215   0.015194859206082
 s    8 1.00
                  6665  -0.00029326965268655
                  1000  -0.0023180354739745
                   228  -0.011499786038565
                 64.71  -0.046826727009787
                 21.06   -0.12846616875047
                 7.495   -0.30126627246289
                 2.797   -0.25563070233011
                0.5215      1.093793361012
 s    1 1.00
                0.1596                   1
 p    3 1.00
                 9.439   0.056979251590039
                 2.002    0.31320721150073
                0.5456    0.76037674173753
 p    1 1.00
                0.1517                   1
 d    1 1.00
                  0.55                   1

6 0
 s    8 1.00
                  6665  0.00069158396281299
                  1000  0.0053257961529341
                   228   0.027060721042034
                 64.71    0.10165684614077
                 21.06     0.2745748236174
                 7.495    0.44829431892377
                 2.797    0.28490261071525
                0.5215   0.015194859206082
 s    8 1.00
                  6665  -0.00029326965268655
                  1000  -0.0023180354739745
                   228  -0.011499786038565
                 64.71  -0.046826727009787
                 21.06   -0.12846616875047
                 7.495   -0.30126627246289
                 2.797   -0.25563070233011
                0.5215      1.093793361012
 s    1 1.00
                0.1596                   1
 p    3 1.00
                 9.439   0.056979251590039
                 2.002    0.31320721150073
                0.5456    0.76037674173753
 p    1 1.00
                0.1517                   1
 d    1 1.00
                  0.55                   1

7 0
 s    8 1.00
                  6665  0.00069158396281299
                  1000  0.0053257961529341
                   228   0.027060721042034
                 64.71    0.10165684614077
                 21.06     0.2745748236174
                 7.495    0.44829431892377
                 2.797    0.28490261071525
                0.5215   0.015194859206082
 s    8 1.00
                  6665  -0.00029326965268655
                  1000  -0.0023180354739745
                   228  -0.011499786038565
                 64.71  -0.046826727009787
                 21.06   -0.12846616875047
                 7.495   -0.30126627246289
                 2.797   -0.25563070233011
                0.5215      1.093793361012
 s    1 1.00
                0.1596                   1
 p    3 1.00
                 9.439   0.056979251590039
                 2.002    0.31320721150073
                0.5456    0.76037674173753
 p    1 1.00
                0.1517                   1
 d    1 1.00
                  0.55                   1

8 0
 s    3 1.00
                 13.01   0.033498726389998
                 1.962    0.23480080117413
                0.4446     0.8136829578829
 s    1 1.00
                 0.122                   1
 p    1 1.00
                 0.727                   1

9 0
 s    8 1.00
                  6665  0.00069158396281299
                  1000  0.0053257961529341
                   228   0.027060721042034
                 64.71    0.10165684614077
                 21.06     0.2745748236174
                 7.495    0.44829431892377
                 2.797    0.28490261071525
                0.5215   0.015194859206082
 s    8 1.00
                  6665  -0.00029326965268655
                  1000  -0.0023180354739745
                   228  -0.011499786038565
                 64.71  -0.046826727009787
                 21.06   -0.12846616875047
                 7.495   -0.30126627246289
                 2.797   -0.25563070233011
                0.5215      1.093793361012
 s    1 1.00
                0.1596                   1
 p    3 1.00
                 9.439   0.056979251590039
                 2.002    0.31320721150073
                0.5456    0.76037674173753
 p    1 1.00
                0.1517                   1
 d    1 1.00
                  0.55                   1

10 0
 s    3 1.00
                 13.01   0.033498726389998
                 1.962    0.23480080117413
                0.4446     0.8136829578829
 s    1 1.00
                 0.122                   1
 p    1 1.00
                 0.727                   1

11 0
 s    3 1.00
                 13.01   0.033498726389998
                 1.962    0.23480080117413
                0.4446     0.8136829578829
 s    1 1.00
                 0.122                   1
 p    1 1.00
                 0.727                   1

12 0
 s    3 1.00
                 13.01   0.033498726389998
                 1.962    0.23480080117413
                0.4446     0.8136829578829
 s    1 1.00
                 0.122                   1
 p    1 1.00
                 0.727                   1

13 0
 s    8 1.00
                  6665  0.00069158396281299
                  1000  0.0053257961529341
                   228   0.027060721042034
                 64.71    0.10165684614077
                 21.06     0.2745748236174
                 7.495    0.44829431892377
                 2.797    0.28490261071525
                0.5215   0.015194859206082
 s    8 1.00
                  6665  -0.00029326965268655
                  1000  -0.0023180354739745
                   228  -0.011499786038565
                 64.71  -0.046826727009787
                 21.06   -0.12846616875047
                 7.495   -0.30126627246289
                 2.797   -0.25563070233011
                0.5215      1.093793361012
 s    1 1.00
                0.1596                   1
 p    3 1.00
                 9.439   0.056979251590039
                 2.002    0.31320721150073
                0.5456    0.76037674173753
 p    1 1.00
                0.1517                   1
 d    1 1.00
                  0.55                   1

14 0
 s    3 1.00
                 13.01   0.033498726389998
                 1.962    0.23480080117413
                0.4446     0.8136829578829
 s    1 1.00
                 0.122                   1
 p    1 1.00
                 0.727                   1

15 0
 s    3 1.00
                 13.01   0.033498726389998
                 1.962    0.23480080117413
                0.4446     0.8136829578829
 s    1 1.00
                 0.122                   1
 p    1 1.00
                 0.727                   1

16 0
 s    8 1.00
                  6665  0.00069158396281299
                  1000  0.0053257961529341
                   228   0.027060721042034
                 64.71    0.10165684614077
                 21.06     0.2745748236174
                 7.495    0.44829431892377
                 2.797    0.28490261071525
                0.5215   0.015194859206082
 s    8 1.00
                  6665  -0.00029326965268655
                  1000  -0.0023180354739745
                   228  -0.011499786038565
                 64.71  -0.046826727009787
                 21.06   -0.12846616875047
                 7.495   -0.30126627246289
                 2.797   -0.25563070233011
                0.5215      1.093793361012
 s    1 1.00
                0.1596                   1
 p    3 1.00
                 9.439   0.056979251590039
                 2.002    0.31320721150073
                0.5456    0.76037674173753
 p    1 1.00
                0.1517                   1
 d    1 1.00
                  0.55                   1

17 0
 s    3 1.00
                 13.01   0.033498726389998
                 1.962    0.23480080117413
                0.4446     0.8136829578829
 s    1 1.00
                 0.122                   1
 p    1 1.00
                 0.727                   1

18 0
 s    3 1.00
                 13.01   0.033498726389998
                 1.962    0.23480080117413
                0.4446     0.8136829578829
 s    1 1.00
                 0.122                   1
 p    1 1.00
                 0.727                   1

19 0
 s    8 1.00
                  6665  0.00069158396281299
                  1000  0.0053257961529341
                   228   0.027060721042034
                 64.71    0.10165684614077
                 21.06     0.2745748236174
                 7.495    0.44829431892377
                 2.797    0.28490261071525
                0.5215   0.015194859206082
 s    8 1.00
                  6665  -0.00029326965268655
                  1000  -0.0023180354739745
                   228  -0.011499786038565
                 64.71  -0.046826727009787
                 21.06   -0.12846616875047
                 7.495   -0.30126627246289
                 2.797   -0.25563070233011
                0.5215      1.093793361012
 s    1 1.00
                0.1596                   1
 p    3 1.00
                 9.439   0.056979251590039
                 2.002    0.31320721150073
                0.5456    0.76037674173753
 p    1 1.00
                0.1517                   1
 d    1 1.00
                  0.55                   1

20 0
 s    3 1.00
                 13.01   0.033498726389998
                 1.962    0.23480080117413
                0.4446     0.8136829578829
 s    1 1.00
                 0.122                   1
 p    1 1.00
                 0.727                   1

21 0
 s    8 1.00
                  6665  0.00069158396281299
                  1000  0.0053257961529341
                   228   0.027060721042034
                 64.71    0.10165684614077
                 21.06     0.2745748236174
                 7.495    0.44829431892377
                 2.797    0.28490261071525
                0.5215   0.015194859206082
 s    8 1.00
                  6665  -0.00029326965268655
                  1000  -0.0023180354739745
                   228  -0.011499786038565
                 64.71  -0.046826727009787
                 21.06   -0.12846616875047
                 7.495   -0.30126627246289
                 2.797   -0.25563070233011
                0.5215      1.093793361012
 s    1 1.00
                0.1596                   1
 p    3 1.00
                 9.439   0.056979251590039
                 2.002    0.31320721150073
                0.5456    0.76037674173753
 p    1 1.00
                0.1517                   1
 d    1 1.00
                  0.55                   1

22 0
 s    3 1.00
                 13.01   0.033498726389998
                 1.962    0.23480080117413
                0.4446     0.8136829578829
 s    1 1.00
                 0.122                   1
 p    1 1.00
                 0.727                   1

23 0
 s    3 1.00
                 13.01   0.033498726389998
                 1.962    0.23480080117413
                0.4446     0.8136829578829
 s    1 1.00
                 0.122                   1
 p    1 1.00
                 0.727                   1

24 0
 s    3 1.00
                 13.01   0.033498726389998
                 1.962    0.23480080117413
                0.4446     0.8136829578829
 s    1 1.00
                 0.122                   1
 p    1 1.00
                 0.727                   1

25 0
 s    8 1.00
                  6665  0.00069158396281299
                  1000  0.0053257961529341
                   228   0.027060721042034
                 64.71    0.10165684614077
                 21.06     0.2745748236174
                 7.495    0.44829431892377
                 2.797    0.28490261071525
                0.5215   0.015194859206082
 s    8 1.00
                  6665  -0.00029326965268655
                  1000  -0.0023180354739745
                   228  -0.011499786038565
                 64.71  -0.046826727009787
                 21.06   -0.12846616875047
                 7.495   -0.30126627246289
                 2.797   -0.25563070233011
                0.5215      1.093793361012
 s    1 1.00
                0.1596                   1
 p    3 1.00
                 9.439   0.056979251590039
                 2.002    0.31320721150073
                0.5456    0.76037674173753
 p    1 1.00
                0.1517                   1
 d    1 1.00
                  0.55                   1

26 0
 s    3 1.00
                 13.01   0.033498726389998
                 1.962    0.23480080117413
                0.4446     0.8136829578829
 s    1 1.00
                 0.122                   1
 p    1 1.00
                 0.727                   1

27 0
 s    3 1.00
                 13.01   0.033498726389998
                 1.962    0.23480080117413
                0.4446     0.8136829578829
 s    1 1.00
                 0.122                   1
 p    1 1.00
                 0.727                   1

28 0
 s    8 1.00
                  6665  0.00069158396281299
                  1000  0.0053257961529341
                   228   0.027060721042034
                 64.71    0.10165684614077
                 21.06     0.2745748236174
                 7.495    0.44829431892377
                 2.797    0.28490261071525
                0.5215   0.015194859206082
 s    8 1.00
                  6665  -0.00029326965268655
                  1000  -0.0023180354739745
                   228  -0.011499786038565
                 64.71  -0.046826727009787
                 21.06   -0.12846616875047
                 7.495   -0.30126627246289
                 2.797   -0.25563070233011
                0.5215      1.093793361012
 s    1 1.00
                0.1596                   1
 p    3 1.00
                 9.439   0.056979251590039
                 2.002    0.31320721150073
                0.5456    0.76037674173753
 p    1 1.00
                0.1517                   1
 d    1 1.00
                  0.55                   1

29 0
 s    3 1.00
                 13.01   0.033498726389998
                 1.962    0.23480080117413
                0.4446     0.8136829578829
 s    1 1.00
                 0.122                   1
 p    1 1.00
                 0.727                   1

30 0
 s    3 1.00
                 13.01   0.033498726389998
                 1.962    0.23480080117413
                0.4446     0.8136829578829
 s    1 1.00
                 0.122                   1
 p    1 1.00
                 0.727                   1

31 0
 s    8 1.00
                  6665  0.00069158396281299
                  1000  0.0053257961529341
                   228   0.027060721042034
                 64.71    0.10165684614077
                 21.06     0.2745748236174
                 7.495    0.44829431892377
                 2.797    0.28490261071525
                0.5215   0.015194859206082
 s    8 1.00
                  6665  -0.00029326965268655
                  1000  -0.0023180354739745
                   228  -0.011499786038565
                 64.71  -0.046826727009787
                 21.06   -0.12846616875047
                 7.495   -0.30126627246289
                 2.797   -0.25563070233011
                0.5215      1.093793361012
 s    1 1.00
                0.1596                   1
 p    3 1.00
                 9.439   0.056979251590039
                 2.002    0.31320721150073
                0.5456    0.76037674173753
 p    1 1.00
                0.1517                   1
 d    1 1.00
                  0.55                   1

32 0
 s    3 1.00
                 13.01   0.033498726389998
                 1.962    0.23480080117413
                0.4446     0.8136829578829
 s    1 1.00
                 0.122                   1
 p    1 1.00
                 0.727                   1

33 0
 s    3 1.00
                 13.01   0.033498726389998
                 1.962    0.23480080117413
                0.4446     0.8136829578829
 s    1 1.00
                 0.122                   1
 p    1 1.00
                 0.727                   1

34 0
 s    3 1.00
                 13.01   0.033498726389998
                 1.962    0.23480080117413
                0.4446     0.8136829578829
 s    1 1.00
                 0.122                   1
 p    1 1.00
                 0.727                   1

35 0
 s    3 1.00
                 13.01   0.033498726389998
                 1.962    0.23480080117413
                0.4446     0.8136829578829
 s    1 1.00
                 0.122                   1
 p    1 1.00
                 0.727                   1

36 0
 s    3 1.00
                 13.01   0.033498726389998
                 1.962    0.23480080117413
                0.4446     0.8136829578829
 s    1 1.00
                 0.122                   1
 p    1 1.00
                 0.727                   1

37 0
 s    3 1.00
                 13.01   0.033498726389998
                 1.962    0.23480080117413
                0.4446     0.8136829578829
 s    1 1.00
                 0.122                   1
 p    1 1.00
                 0.727                   1

[5d]
[7f]
[9g]

[MO]
 Sym= A
 Ene=               0
 Spin= Alpha
 Occup=    1.00000
   1    -1.8458756846901e-05
   2    -8.1104336551443e-06
   3    3.2737165260936e-05
   4    -3.2390582652699e-08
   5    1.2337528172802e-06
   6    -3.5555505989395e-07
   7    2.2638890055836e-07
   8    -8.1622514502174e-06
   9    -2.5480314913005e-05
  10    4.8573034782786e-06
  11    9.6784435190485e-09
  12    -3.8839856632028e-07
  13    4.210035154589e-07
  14    2.3411519054568e-08
  15    -3.6294852934262e-06
  16    -5.009098660532e-05
  17    -1.8795857995382e-08
  18    5.1095293456847e-07
  19    -1.5694039390788e-05
  20    -1.7063433177481e-06
  21    2.1401776441781e-05
  22    8.1980582694141e-08
  23    -2.860692956967e-06
  24    6.6506011647565e-07
  25       1.0013572105712
  26    0.0019416223130731
  27    -0.0067486434836624
  28    -4.4655169367015e-06
  29    7.1511421023987e-06
  30    -0.0016625154477109
  31    -4.0833585256964e-07
  32    -9.9054048779968e-07
  33    0.0018023968349877
  34    0.0001318712642437
  35    -3.0545561163884e-06
  36    1.2986861288997e-06
  37    6.7819570705723e-05
  38    -0.00017667348725525
  39    0.00027060593179603
  40    0.00036532709052613
  41    0.0013852400476202
  42    1.4728798749718e-05
  43    -9.9108602740178e-06
  44    -1.7516047911414e-05
  45    8.2579221478418e-05
  46    -6.3130039086772e-05
  47    0.0035222444472409
  48    -0.00054301436246534
  49    -8.6376854170372e-06
  50    2.4915264957596e-06
  51    2.8368336700703e-05
  52    -0.00010650125609121
  53    -8.5120389996908e-05
  54    -0.00016651844106336
  55    0.0013644175180401
  56    7.8113013755616e-05
  57    -7.5418943731895e-06
  58    -3.6495678068286e-05
  59    -0.00042309850404862
  60    0.00047530396939371
  61    -0.00091664383173877
  62    -0.00011814722687522
  63    0.00015034502909356
  64    -0.00014285187449354
  65    5.5369403894583e-05
  66    -0.00013095437804455
  67    -4.0761181862175e-05
  68    -9.9313215053237e-05
  69    0.00051027206365756
  70    -6.054199017348e-05
  71    3.9593739739128e-05
  72    -6.2900601013718e-05
  73    0.00099693403569259
  74    -0.00076864427096156
  75    -0.00063152381259006
  76    -0.00014172608091529
  77    -0.00012058712826064
  78    8.965857710451e-05
  79    5.9331127371015e-05
  80    -0.00015269970433393
  81    -6.581317664564e-05
  82    0.00020573231541389
  83    6.5773128996402e-05
  84    -4.8294810929523e-05
  85    4.9340797350684e-05
  86    2.4968211969044e-05
  87    4.8940578582403e-05
  88    -0.0006004291238023
  89    -1.5941990222478e-05
  90    -1.7079093443346e-05
  91    1.2314562663981e-05
  92    0.0002553179157692
  93    0.00061957460412407
  94    -2.0186092560395e-05
  95    1.7883241326963e-05
  96    1.1085674460172e-05
  97    7.0189810918847e-06
  98    -2.0922910346336e-05
  99    -4.5090233449888e-05
 100    -3.634923034147e-05
 101    -0.00015676550913501
 102    9.8911952529887e-06
 103    -9.6307583870921e-06
 104    7.3871563656833e-05
 105    -1.7598564715929e-05
 106    -0.00019948493618138
 107    -6.4600574025019e-05
 108    1.1864462414263e-05
 109    7.4287587192243e-05
 110    7.716684335748e-05
 111    -5.7102747720009e-05
 112    -4.582713835369e-05
 113    1.8088742694655e-05
 114    6.9257801648373e-05
 115    -5.0101567043478e-05
 116    -0.0001018248276349
 117    0.00083797350080211
 118    -2.6662301697247e-05
 119    -9.5921316754863e-06
 120    3.2577946341799e-05
 121    0.0002997236220013
 122    2.8677998211865e-05
 123    -0.00013040176224462
 124    -6.4525223412219e-06
 125    1.2800376397892e-05
 126    1.6106785828064e-05
 127    -3.2217123205547e-05
 128    4.9808700665447e-05
 129    -1.8781712959407e-05
 130    -0.00031889931441238
 131    7.3823802934939e-06
 132    5.8332835391711e-06
 133    2.9080658184853e-05
 134    2.5940901958288e-05
 135    -0.00011881762067725
 136    -1.340262473799e-05
 137    -2.3822146736274e-05
 138    -2.6437780211794e-05
 139    -2.0978595858372e-05
 140    -3.8240520339666e-05
 141    0.00028319553720559
 142    7.9838248377405e-06
 143    -2.3947254942304e-06
 144    -6.2046087598876e-06
 145    -0.00022920927998311
 146    5.0267403138754e-05
 147    6.4989629837293e-05
 148    -2.338642785307e-06
 149    3.0168668802643e-06
 150    -3.2979810026436e-06
 151    1.1780239461637e-05
 152    -4.9946718910351e-06
 153    -9.7095851648882e-05
 154    -0.00011683428785125
 155    -2.5628078665595e-05
 156    3.0373558976132e-05
 157    2.0799219536751e-05
 158    -2.5822330322087e-05
 159    -8.9938930767658e-05
 160    -5.9586314619097e-05
 161    -7.1040305075659e-06
 162    5.9429759893877e-06
 163    -2.711645386487e-06
 164    -7.1033286957257e-06
 165    -0.00023315461777073
 166    -1.7148712470559e-05
 167    1.3954724629014e-05
 168    6.5448361258912e-06
 169    0.00023994605920823
 170    -0.00021551146321203
 171    -0.000130000502609
 172    -3.0718463766647e-06
 173    1.0077842602511e-05
 174    -1.3656554691197e-05
 175    3.3305416759357e-06
 176    -1.851488108999e-05
 177    -1.586115072928e-05
 178    8.2809721734236e-05
 179    -6.6814120538368e-07
 180    2.0448421875864e-06
 181    -5.0128037941727e-06
 182    1.493823917382e-05
 183    2.6552079849277e-05
 184    -6.3283778797972e-05
 185    -4.8825738179815e-06
 186    3.4413179980588e-06
 187    5.6143300407074e-06
 188    0.0001255969473038
 189    -0.00010227434735042
 190    -8.3260304085972e-05
 191    1.3019252053707e-06
 192    1.9415235268451e-06
 193    -7.7111225817018e-06
 194    -3.0962021854079e-06
 195    -4.9745639309464e-06
 196    -1.3919621955732e-05
 197    -1.8389927871448e-05
 198    5.6374162485368e-06
 199    1.9735913554631e-06
 200    -3.6426501702787e-06
 201    -1.3602540527964e-05
 202    4.1760802356207e-06
 203    -1.290356415908e-05
 204    1.0110825273345e-05
 205    1.1803401002053e-05
 206    8.2282108710061e-06
 207    6.8363288331334e-05
 208    -1.6261418558273e-05
 209    3.9620933185337e-06
 210    1.551320900976e-05
 211    -1.7666924959949e-05
 212    -3.0288196907691e-05
 213    0.00025226330896274
 214    4.1593969084719e-06
 215    -1.7005563837845e-06
 216    -6.3634842784898e-06
 217    0.0001958700142398
 218    -5.3736814368065e-05
 219    -7.6375306653996e-05
 220    -1.9094748943244e-06
 221    -1.6522349225805e-05
 222    5.4101004325849e-06
 223    9.1486671431972e-06
 224    -1.6739245279018e-06
 225    2.5043959998472e-05
 226    5.3634719731707e-05
 227    -1.2173022267288e-05
 228     -1.8406557295e-06
 229    -9.9464353110206e-07
 230    9.5792258683706e-06
 231    5.4419748275729e-05
 232    -3.9254543772015e-06
 233    6.2498872508037e-06
 234    1.1923528089207e-05
 235    3.8269965981056e-07
 236    6.2174307039381e-07
 237    -7.8089877993043e-05
 238    2.3511110432492e-06
 239    1.9851563073859e-06
 240    -3.8037695074128e-06
 241    3.5003106696281e-05
 242    -6.226910182385e-05
 243    1.7639992596566e-05
 244    1.8716242827833e-06
 245    1.7892557258134e-06
 246    -1.9265934774048e-06
 247    1.7566188091262e-07
 248    9.253539159466e-07
 249    -1.7887720946184e-05
 250    1.409197490013e-05
 251    -4.6567841148859e-06
 252    -1.01768021791e-06
 253    -3.0477520242666e-07
 254    -1.5503449291471e-05
 255    5.623113448534e-05
 256    -1.8184363713384e-07
 257    4.4809940993581e-06
 258    -9.4270454161605e-07
 259    -1.0649167030602e-05
 260    -2.1003384757871e-05
 261    8.1358602406356e-05
 262    -3.9991744255085e-07