[Molden Format]
made by pyscf v[2.0.1]
[Atoms] (AU)
O   1   8     0.00000000000000     0.00000000000000    10.94175058546756
H   2   1     0.00000000000000     0.00000000000000     9.11834876356659
H   3   1    -0.05031916615174     1.78353065140343    11.31762228193423
O   4   8     0.00000000000000     0.00000000000000     2.31533471513237
C   5   6     0.00000000000000     0.00000000000000     0.00000000000000
C   6   6     2.01118073026938    -1.40227222164369    -1.50774939176400
C   7   6    -2.01249334291722     1.41331050329955    -1.50315905028694
H   8   1     3.32037363730244    -2.26721897153159    -0.13599698591495
C   9   6     3.45899267434009     0.28739631745591    -3.37437943254505
H   10   1     1.07662969841332    -2.94725144642667    -2.56541439481080
H   11   1    -2.67503415753480     0.18421555839588    -3.06194479365997
H   12   1    -1.07974048864772     3.03851734677796    -2.43674295017013
C   13   6    -4.21607110578555     2.32938802552922     0.11994162256091
H   14   1     4.24440173074564     1.93368664142019    -2.34976285512790
H   15   1     2.15020713235517     1.04714335134846    -4.81494497423699
C   16   6     5.60746363007797    -1.12419643481196    -4.70268606082550
H   17   1    -3.46838323670267     3.50951302338067     1.66946842715333
H   18   1    -5.11873485366228     0.68575958301209     1.04047743976495
C   19   6    -6.18314754751344     3.80909592987882    -1.39656589068747
H   20   1     6.93011263717176    -1.87550812453645    -3.26656317360070
C   21   6     7.06356622236532     0.52877932406334    -6.57829775293605
H   22   1     4.82318879258361    -2.78573437948532    -5.70504560381835
H   23   1    -6.91582688743803     2.61304780074712    -2.95074552451969
H   24   1    -5.26532430573853     5.45420349051338    -2.31005832200284
C   25   6    -8.39941882261433     4.73263980500213     0.21800571437956
H   26   1     7.83338371486801     2.19084139882824    -5.57093109900697
H   27   1     5.73544244039420     1.27376866537418    -8.01071492370229
C   28   6     9.21124858443101    -0.89699110072176    -7.88926949186242
H   29   1    -7.66272760055236     5.92277078003992     1.77035591474408
H   30   1    -9.31497248082589     3.08753015622020     1.12614408368786
C   31   6   -10.35481709231879     6.21833079391143    -1.30905206253246
H   32   1    10.58815905329501    -1.61074586756696    -6.49512691622620
H   33   1    10.23506248045667     0.32468009384095    -9.23072870921204
H   34   1     8.47665842847139    -2.53598436989925    -8.94921964622535
H   35   1    -9.48948872868064     7.90013588951020    -2.18823918416067
H   36   1   -11.93332513000955     6.86460487874102    -0.11255798845995
H   37   1   -11.15126291841033     5.04495968327630    -2.83849898862534
[GTO]
1 0
 s    8 1.00
                 11720  0.00070964594651845
                  1759  0.0054672722921914
                 400.8   0.027823118610189
                 113.7    0.10474773971146
                 37.03    0.28292084635691
                 13.27    0.44849523869833
                 5.025    0.27081688521277
                 1.013    0.01545029160744
 s    8 1.00
                 11720  -0.00031444341168873
                  1759  -0.0024821376810179
                 400.8  -0.012316355381583
                 113.7  -0.050538917343672
                 37.03   -0.13938490331632
                 13.27   -0.32507749481778
                 5.025   -0.22984830758785
                 1.013     1.0953793467883
 s    1 1.00
                0.3023                   1
 p    3 1.00
                  17.7   0.062679166281506
                 3.854    0.33353656587936
                 1.046    0.74123964163973
 p    1 1.00
                0.2753                   1
 d    1 1.00
                 1.185                   1

2 0
 s    3 1.00
                 13.01   0.033498726389998
                 1.962    0.23480080117413
                0.4446     0.8136829578829
 s    1 1.00
                 0.122                   1
 p    1 1.00
                 0.727                   1

3 0
 s    3 1.00
                 13.01   0.033498726389998
                 1.962    0.23480080117413
                0.4446     0.8136829578829
 s    1 1.00
                 0.122                   1
 p    1 1.00
                 0.727                   1

4 0
 s    8 1.00
                 11720  0.00070964594651845
                  1759  0.0054672722921914
                 400.8   0.027823118610189
                 113.7    0.10474773971146
                 37.03    0.28292084635691
                 13.27    0.44849523869833
                 5.025    0.27081688521277
                 1.013    0.01545029160744
 s    8 1.00
                 11720  -0.00031444341168873
                  1759  -0.0024821376810179
                 400.8  -0.012316355381583
                 113.7  -0.050538917343672
                 37.03   -0.13938490331632
                 13.27   -0.32507749481778
                 5.025   -0.22984830758785
                 1.013     1.0953793467883
 s    1 1.00
                0.3023                   1
 p    3 1.00
                  17.7   0.062679166281506
                 3.854    0.33353656587936
                 1.046    0.74123964163973
 p    1 1.00
                0.2753                   1
 d    1 1.00
                 1.185                   1

5 0
 s    8 1.00
                  6665  0.00069158396281299
                  1000  0.0053257961529341
                   228   0.027060721042034
                 64.71    0.10165684614077
                 21.06     0.2745748236174
                 7.495    0.44829431892377
                 2.797    0.28490261071525
                0.5215   0.015194859206082
 s    8 1.00
                  6665  -0.00029326965268655
                  1000  -0.0023180354739745
                   228  -0.011499786038565
                 64.71  -0.046826727009787
                 21.06   -0.12846616875047
                 7.495   -0.30126627246289
                 2.797   -0.25563070233011
                0.5215      1.093793361012
 s    1 1.00
                0.1596                   1
 p    3 1.00
                 9.439   0.056979251590039
                 2.002    0.31320721150073
                0.5456    0.76037674173753
 p    1 1.00
                0.1517                   1
 d    1 1.00
                  0.55                   1

6 0
 s    8 1.00
                  6665  0.00069158396281299
                  1000  0.0053257961529341
                   228   0.027060721042034
                 64.71    0.10165684614077
                 21.06     0.2745748236174
                 7.495    0.44829431892377
                 2.797    0.28490261071525
                0.5215   0.015194859206082
 s    8 1.00
                  6665  -0.00029326965268655
                  1000  -0.0023180354739745
                   228  -0.011499786038565
                 64.71  -0.046826727009787
                 21.06   -0.12846616875047
                 7.495   -0.30126627246289
                 2.797   -0.25563070233011
                0.5215      1.093793361012
 s    1 1.00
                0.1596                   1
 p    3 1.00
                 9.439   0.056979251590039
                 2.002    0.31320721150073
                0.5456    0.76037674173753
 p    1 1.00
                0.1517                   1
 d    1 1.00
                  0.55                   1

7 0
 s    8 1.00
                  6665  0.00069158396281299
                  1000  0.0053257961529341
                   228   0.027060721042034
                 64.71    0.10165684614077
                 21.06     0.2745748236174
                 7.495    0.44829431892377
                 2.797    0.28490261071525
                0.5215   0.015194859206082
 s    8 1.00
                  6665  -0.00029326965268655
                  1000  -0.0023180354739745
                   228  -0.011499786038565
                 64.71  -0.046826727009787
                 21.06   -0.12846616875047
                 7.495   -0.30126627246289
                 2.797   -0.25563070233011
                0.5215      1.093793361012
 s    1 1.00
                0.1596                   1
 p    3 1.00
                 9.439   0.056979251590039
                 2.002    0.31320721150073
                0.5456    0.76037674173753
 p    1 1.00
                0.1517                   1
 d    1 1.00
                  0.55                   1

8 0
 s    3 1.00
                 13.01   0.033498726389998
                 1.962    0.23480080117413
                0.4446     0.8136829578829
 s    1 1.00
                 0.122                   1
 p    1 1.00
                 0.727                   1

9 0
 s    8 1.00
                  6665  0.00069158396281299
                  1000  0.0053257961529341
                   228   0.027060721042034
                 64.71    0.10165684614077
                 21.06     0.2745748236174
                 7.495    0.44829431892377
                 2.797    0.28490261071525
                0.5215   0.015194859206082
 s    8 1.00
                  6665  -0.00029326965268655
                  1000  -0.0023180354739745
                   228  -0.011499786038565
                 64.71  -0.046826727009787
                 21.06   -0.12846616875047
                 7.495   -0.30126627246289
                 2.797   -0.25563070233011
                0.5215      1.093793361012
 s    1 1.00
                0.1596                   1
 p    3 1.00
                 9.439   0.056979251590039
                 2.002    0.31320721150073
                0.5456    0.76037674173753
 p    1 1.00
                0.1517                   1
 d    1 1.00
                  0.55                   1

10 0
 s    3 1.00
                 13.01   0.033498726389998
                 1.962    0.23480080117413
                0.4446     0.8136829578829
 s    1 1.00
                 0.122                   1
 p    1 1.00
                 0.727                   1

11 0
 s    3 1.00
                 13.01   0.033498726389998
                 1.962    0.23480080117413
                0.4446     0.8136829578829
 s    1 1.00
                 0.122                   1
 p    1 1.00
                 0.727                   1

12 0
 s    3 1.00
                 13.01   0.033498726389998
                 1.962    0.23480080117413
                0.4446     0.8136829578829
 s    1 1.00
                 0.122                   1
 p    1 1.00
                 0.727                   1

13 0
 s    8 1.00
                  6665  0.00069158396281299
                  1000  0.0053257961529341
                   228   0.027060721042034
                 64.71    0.10165684614077
                 21.06     0.2745748236174
                 7.495    0.44829431892377
                 2.797    0.28490261071525
                0.5215   0.015194859206082
 s    8 1.00
                  6665  -0.00029326965268655
                  1000  -0.0023180354739745
                   228  -0.011499786038565
                 64.71  -0.046826727009787
                 21.06   -0.12846616875047
                 7.495   -0.30126627246289
                 2.797   -0.25563070233011
                0.5215      1.093793361012
 s    1 1.00
                0.1596                   1
 p    3 1.00
                 9.439   0.056979251590039
                 2.002    0.31320721150073
                0.5456    0.76037674173753
 p    1 1.00
                0.1517                   1
 d    1 1.00
                  0.55                   1

14 0
 s    3 1.00
                 13.01   0.033498726389998
                 1.962    0.23480080117413
                0.4446     0.8136829578829
 s    1 1.00
                 0.122                   1
 p    1 1.00
                 0.727                   1

15 0
 s    3 1.00
                 13.01   0.033498726389998
                 1.962    0.23480080117413
                0.4446     0.8136829578829
 s    1 1.00
                 0.122                   1
 p    1 1.00
                 0.727                   1

16 0
 s    8 1.00
                  6665  0.00069158396281299
                  1000  0.0053257961529341
                   228   0.027060721042034
                 64.71    0.10165684614077
                 21.06     0.2745748236174
                 7.495    0.44829431892377
                 2.797    0.28490261071525
                0.5215   0.015194859206082
 s    8 1.00
                  6665  -0.00029326965268655
                  1000  -0.0023180354739745
                   228  -0.011499786038565
                 64.71  -0.046826727009787
                 21.06   -0.12846616875047
                 7.495   -0.30126627246289
                 2.797   -0.25563070233011
                0.5215      1.093793361012
 s    1 1.00
                0.1596                   1
 p    3 1.00
                 9.439   0.056979251590039
                 2.002    0.31320721150073
                0.5456    0.76037674173753
 p    1 1.00
                0.1517                   1
 d    1 1.00
                  0.55                   1

17 0
 s    3 1.00
                 13.01   0.033498726389998
                 1.962    0.23480080117413
                0.4446     0.8136829578829
 s    1 1.00
                 0.122                   1
 p    1 1.00
                 0.727                   1

18 0
 s    3 1.00
                 13.01   0.033498726389998
                 1.962    0.23480080117413
                0.4446     0.8136829578829
 s    1 1.00
                 0.122                   1
 p    1 1.00
                 0.727                   1

19 0
 s    8 1.00
                  6665  0.00069158396281299
                  1000  0.0053257961529341
                   228   0.027060721042034
                 64.71    0.10165684614077
                 21.06     0.2745748236174
                 7.495    0.44829431892377
                 2.797    0.28490261071525
                0.5215   0.015194859206082
 s    8 1.00
                  6665  -0.00029326965268655
                  1000  -0.0023180354739745
                   228  -0.011499786038565
                 64.71  -0.046826727009787
                 21.06   -0.12846616875047
                 7.495   -0.30126627246289
                 2.797   -0.25563070233011
                0.5215      1.093793361012
 s    1 1.00
                0.1596                   1
 p    3 1.00
                 9.439   0.056979251590039
                 2.002    0.31320721150073
                0.5456    0.76037674173753
 p    1 1.00
                0.1517                   1
 d    1 1.00
                  0.55                   1

20 0
 s    3 1.00
                 13.01   0.033498726389998
                 1.962    0.23480080117413
                0.4446     0.8136829578829
 s    1 1.00
                 0.122                   1
 p    1 1.00
                 0.727                   1

21 0
 s    8 1.00
                  6665  0.00069158396281299
                  1000  0.0053257961529341
                   228   0.027060721042034
                 64.71    0.10165684614077
                 21.06     0.2745748236174
                 7.495    0.44829431892377
                 2.797    0.28490261071525
                0.5215   0.015194859206082
 s    8 1.00
                  6665  -0.00029326965268655
                  1000  -0.0023180354739745
                   228  -0.011499786038565
                 64.71  -0.046826727009787
                 21.06   -0.12846616875047
                 7.495   -0.30126627246289
                 2.797   -0.25563070233011
                0.5215      1.093793361012
 s    1 1.00
                0.1596                   1
 p    3 1.00
                 9.439   0.056979251590039
                 2.002    0.31320721150073
                0.5456    0.76037674173753
 p    1 1.00
                0.1517                   1
 d    1 1.00
                  0.55                   1

22 0
 s    3 1.00
                 13.01   0.033498726389998
                 1.962    0.23480080117413
                0.4446     0.8136829578829
 s    1 1.00
                 0.122                   1
 p    1 1.00
                 0.727                   1

23 0
 s    3 1.00
                 13.01   0.033498726389998
                 1.962    0.23480080117413
                0.4446     0.8136829578829
 s    1 1.00
                 0.122                   1
 p    1 1.00
                 0.727                   1

24 0
 s    3 1.00
                 13.01   0.033498726389998
                 1.962    0.23480080117413
                0.4446     0.8136829578829
 s    1 1.00
                 0.122                   1
 p    1 1.00
                 0.727                   1

25 0
 s    8 1.00
                  6665  0.00069158396281299
                  1000  0.0053257961529341
                   228   0.027060721042034
                 64.71    0.10165684614077
                 21.06     0.2745748236174
                 7.495    0.44829431892377
                 2.797    0.28490261071525
                0.5215   0.015194859206082
 s    8 1.00
                  6665  -0.00029326965268655
                  1000  -0.0023180354739745
                   228  -0.011499786038565
                 64.71  -0.046826727009787
                 21.06   -0.12846616875047
                 7.495   -0.30126627246289
                 2.797   -0.25563070233011
                0.5215      1.093793361012
 s    1 1.00
                0.1596                   1
 p    3 1.00
                 9.439   0.056979251590039
                 2.002    0.31320721150073
                0.5456    0.76037674173753
 p    1 1.00
                0.1517                   1
 d    1 1.00
                  0.55                   1

26 0
 s    3 1.00
                 13.01   0.033498726389998
                 1.962    0.23480080117413
                0.4446     0.8136829578829
 s    1 1.00
                 0.122                   1
 p    1 1.00
                 0.727                   1

27 0
 s    3 1.00
                 13.01   0.033498726389998
                 1.962    0.23480080117413
                0.4446     0.8136829578829
 s    1 1.00
                 0.122                   1
 p    1 1.00
                 0.727                   1

28 0
 s    8 1.00
                  6665  0.00069158396281299
                  1000  0.0053257961529341
                   228   0.027060721042034
                 64.71    0.10165684614077
                 21.06     0.2745748236174
                 7.495    0.44829431892377
                 2.797    0.28490261071525
                0.5215   0.015194859206082
 s    8 1.00
                  6665  -0.00029326965268655
                  1000  -0.0023180354739745
                   228  -0.011499786038565
                 64.71  -0.046826727009787
                 21.06   -0.12846616875047
                 7.495   -0.30126627246289
                 2.797   -0.25563070233011
                0.5215      1.093793361012
 s    1 1.00
                0.1596                   1
 p    3 1.00
                 9.439   0.056979251590039
                 2.002    0.31320721150073
                0.5456    0.76037674173753
 p    1 1.00
                0.1517                   1
 d    1 1.00
                  0.55                   1

29 0
 s    3 1.00
                 13.01   0.033498726389998
                 1.962    0.23480080117413
                0.4446     0.8136829578829
 s    1 1.00
                 0.122                   1
 p    1 1.00
                 0.727                   1

30 0
 s    3 1.00
                 13.01   0.033498726389998
                 1.962    0.23480080117413
                0.4446     0.8136829578829
 s    1 1.00
                 0.122                   1
 p    1 1.00
                 0.727                   1

31 0
 s    8 1.00
                  6665  0.00069158396281299
                  1000  0.0053257961529341
                   228   0.027060721042034
                 64.71    0.10165684614077
                 21.06     0.2745748236174
                 7.495    0.44829431892377
                 2.797    0.28490261071525
                0.5215   0.015194859206082
 s    8 1.00
                  6665  -0.00029326965268655
                  1000  -0.0023180354739745
                   228  -0.011499786038565
                 64.71  -0.046826727009787
                 21.06   -0.12846616875047
                 7.495   -0.30126627246289
                 2.797   -0.25563070233011
                0.5215      1.093793361012
 s    1 1.00
                0.1596                   1
 p    3 1.00
                 9.439   0.056979251590039
                 2.002    0.31320721150073
                0.5456    0.76037674173753
 p    1 1.00
                0.1517                   1
 d    1 1.00
                  0.55                   1

32 0
 s    3 1.00
                 13.01   0.033498726389998
                 1.962    0.23480080117413
                0.4446     0.8136829578829
 s    1 1.00
                 0.122                   1
 p    1 1.00
                 0.727                   1

33 0
 s    3 1.00
                 13.01   0.033498726389998
                 1.962    0.23480080117413
                0.4446     0.8136829578829
 s    1 1.00
                 0.122                   1
 p    1 1.00
                 0.727                   1

34 0
 s    3 1.00
                 13.01   0.033498726389998
                 1.962    0.23480080117413
                0.4446     0.8136829578829
 s    1 1.00
                 0.122                   1
 p    1 1.00
                 0.727                   1

35 0
 s    3 1.00
                 13.01   0.033498726389998
                 1.962    0.23480080117413
                0.4446     0.8136829578829
 s    1 1.00
                 0.122                   1
 p    1 1.00
                 0.727                   1

36 0
 s    3 1.00
                 13.01   0.033498726389998
                 1.962    0.23480080117413
                0.4446     0.8136829578829
 s    1 1.00
                 0.122                   1
 p    1 1.00
                 0.727                   1

37 0
 s    3 1.00
                 13.01   0.033498726389998
                 1.962    0.23480080117413
                0.4446     0.8136829578829
 s    1 1.00
                 0.122                   1
 p    1 1.00
                 0.727                   1

[5d]
[7f]
[9g]

[MO]
 Sym= A
 Ene=               0
 Spin= Alpha
 Occup=    1.00000
   1    -2.8741398208172e-05
   2    -1.6002431625726e-05
   3    6.254906464256e-05
   4    -5.847412542712e-08
   5    2.3721765391756e-06
   6    -3.2900224237689e-07
   7    3.8557201662071e-07
   8    -1.4142221459222e-05
   9    -4.6787015906717e-05
  10    8.7665753266321e-06
  11    1.3551511591349e-08
  12    -6.4161308080208e-07
  13    5.6926534497561e-07
  14    3.0923608473815e-08
  15    -7.6368110653908e-06
  16    -9.2549389697737e-05
  17    -4.1030413810841e-08
  18    8.8549755141315e-07
  19    -2.748002919085e-05
  20    -3.5635134657796e-06
  21    3.7925948003207e-05
  22    1.3330285497043e-07
  23    -4.5751212451117e-06
  24    1.362566893971e-06
  25       1.0013591167533
  26    0.0019458188284952
  27     -0.00676465895707
  28    -4.5729365815413e-06
  29    7.6255216276971e-06
  30    -0.0016592104536162
  31    -3.3369141029036e-07
  32    -1.1844128558448e-06
  33    0.0018114604876978
  34    0.00012982461096689
  35    -3.0222564068332e-06
  36    1.3200006271463e-06
  37    6.7673240088906e-05
  38    -0.00017627502345611
  39    0.00027178610762173
  40    0.00036805855352907
  41    0.0013960365503327
  42    1.4851029941822e-05
  43    -9.9153531625494e-06
  44    -1.4349521421011e-05
  45    8.2028848444293e-05
  46    -6.3074885621719e-05
  47    0.0035333168665241
  48    -0.00053969869463202
  49    -8.5602051080394e-06
  50    2.4662771014827e-06
  51    2.8494710062299e-05
  52    -0.00010678361855595
  53    -8.5077777012092e-05
  54    -0.00016642629596572
  55    0.0013666958295625
  56    7.8097938766787e-05
  57    -7.5006783098056e-06
  58    -3.6291145699225e-05
  59    -0.00042334538876616
  60    0.00047585965739707
  61    -0.00092064275664057
  62    -0.00011793916839324
  63    0.00015021990690159
  64    -0.00014282578872472
  65    5.5264738076773e-05
  66    -0.0001305995866418
  67    -4.0546176952648e-05
  68    -9.8925660090425e-05
  69    0.00051052294794395
  70    -6.0634919104084e-05
  71    3.9699713072085e-05
  72    -6.2797433912147e-05
  73    0.00099843005008744
  74    -0.00076939915955512
  75    -0.00063381150180518
  76    -0.00014147175712478
  77    -0.00012060240426679
  78    8.9640523864697e-05
  79    5.9200329124589e-05
  80    -0.00015238698323545
  81    -6.5281918463794e-05
  82    0.00020625128061067
  83    6.5866118085105e-05
  84    -4.8372913296352e-05
  85    4.9178052344909e-05
  86    2.4980870064612e-05
  87    4.8951993207091e-05
  88    -0.00060228643220739
  89    -1.590678440464e-05
  90    -1.7083411403482e-05
  91    1.2215549154654e-05
  92    0.00025572933362201
  93    0.00062182877042169
  94    -1.9496430176657e-05
  95    1.7953035214406e-05
  96    1.1121768021154e-05
  97    7.1132599987783e-06
  98    -2.0796964000747e-05
  99    -4.5322312240432e-05
 100    -3.6723842604449e-05
 101    -0.00015730222305511
 102    9.6217731323029e-06
 103    -9.7041414246021e-06
 104    7.4100900788677e-05
 105    -1.7742024211119e-05
 106    -0.00019999398166698
 107    -6.4517023523248e-05
 108    1.1564647717466e-05
 109    7.4414667540046e-05
 110    7.7199426252115e-05
 111    -5.7841514496977e-05
 112    -4.5682272579948e-05
 113    1.8244449090875e-05
 114    6.9397533979448e-05
 115    -4.9945246452773e-05
 116    -0.00010151833006872
 117    0.00083941161112677
 118    -2.6465193670245e-05
 119    -9.7247393466841e-06
 120    3.2545605181156e-05
 121    0.00029777703044059
 122    2.9380624564757e-05
 123    -0.00013317872835767
 124    -6.4363677941046e-06
 125    1.2645521799758e-05
 126    1.5928507238013e-05
 127    -3.2174274084587e-05
 128    4.981696884241e-05
 129    -1.8878912846516e-05
 130    -0.00032017597749008
 131    7.4383950383984e-06
 132    5.8467533853181e-06
 133    2.911912361377e-05
 134    2.5932204767079e-05
 135    -0.00011865320088487
 136    -1.3419856209766e-05
 137    -2.3933005996924e-05
 138    -2.6509936065061e-05
 139    -2.1057779680282e-05
 140    -3.8381182387195e-05
 141    0.00028487177425806
 142    7.9640711283147e-06
 143    -2.4317252480645e-06
 144    -6.1906795824796e-06
 145    -0.00022949575176105
 146    5.0967588501232e-05
 147    6.4622778104018e-05
 148    -2.3597734319724e-06
 149    3.0253178899661e-06
 150    -3.3812492497436e-06
 151    1.1849931043743e-05
 152    -4.9819372091064e-06
 153    -9.6964842847136e-05
 154    -0.00011473615098373
 155    -2.5738306989244e-05
 156    3.0107238073321e-05
 157    2.0589866283579e-05
 158    -2.5782258160831e-05
 159    -8.9756701662069e-05
 160    -5.9496209447269e-05
 161    -7.1193076370244e-06
 162    6.0595512184151e-06
 163    -2.5030856876924e-06
 164    -6.7388885366909e-06
 165    -0.00023632448491806
 166    -1.7204374638902e-05
 167    1.3962556143143e-05
 168    6.5527552587583e-06
 169    0.00023914081859124
 170    -0.0002145700332449
 171    -0.00013101345064896
 172    -3.005235486381e-06
 173    1.0052560800767e-05
 174    -1.3619654604025e-05
 175    3.3108113618997e-06
 176    -1.8417451824511e-05
 177    -1.5905897119212e-05
 178    8.3149314893203e-05
 179    -7.130625427359e-07
 180    2.0185984646624e-06
 181    -4.9957310213012e-06
 182    1.5025301498367e-05
 183    2.6700690718826e-05
 184    -6.4342874426979e-05
 185    -4.861990798724e-06
 186    3.4685785207031e-06
 187    5.5979339828886e-06
 188    0.00012598646336949
 189    -0.00010222815472752
 190    -8.3802030090091e-05
 191    1.2968707320384e-06
 192    1.9705938384264e-06
 193    -7.7022871330291e-06
 194    -3.0922270793004e-06
 195    -5.0213147099492e-06
 196    -1.3875816158882e-05
 197    -1.8467975737603e-05
 198    5.6428717865338e-06
 199    1.9688205315401e-06
 200    -3.6099022844247e-06
 201    -1.3507613266923e-05
 202    3.9994094674343e-06
 203    -1.293885171613e-05
 204    1.007120745068e-05
 205    1.1795045176416e-05
 206     8.27230686457e-06
 207    6.8262825115781e-05
 208    -1.6222230219827e-05
 209    3.9486371528856e-06
 210    1.5536093857061e-05
 211    -1.7745890927728e-05
 212    -3.0417474188805e-05
 213    0.00025355987699713
 214    4.233325711205e-06
 215    -1.7190555253717e-06
 216    -6.3701194790109e-06
 217    0.00019573039657055
 218    -5.3697166503761e-05
 219    -7.6596261066844e-05
 220    -1.9130455980618e-06
 221    -1.6504023951523e-05
 222    5.4166955380632e-06
 223    9.1578838324994e-06
 224    -1.6887023071291e-06
 225    2.5146843610838e-05
 226    5.3826812830161e-05
 227    -1.2200484323576e-05
 228    -1.861049709426e-06
 229    -9.9192420611191e-07
 230    9.6227130766574e-06
 231    5.4400841676516e-05
 232    -3.9375413215289e-06
 233    6.2671062576513e-06
 234    1.193676361536e-05
 235    3.8657051197389e-07
 236    6.3088723970053e-07
 237    -7.8143895555732e-05
 238    2.3440295006758e-06
 239    1.9925499273778e-06
 240    -3.8018730300711e-06
 241    3.509110293753e-05
 242    -6.2384062148342e-05
 243    1.7700252046009e-05
 244    1.880359838308e-06
 245    1.7957685014884e-06
 246    -1.9248345810922e-06
 247    1.7510247776309e-07
 248    9.2667110960841e-07
 249    -1.7871958854707e-05
 250    1.3730031050379e-05
 251    -4.6419710965728e-06
 252    -9.8677004703972e-07
 253    -2.6974559393505e-07
 254    -1.5579693666899e-05
 255    5.6195068939123e-05
 256    -1.5189426132946e-07
 257    4.4666347923146e-06
 258    -9.3593636787044e-07
 259    -1.0579271296707e-05
 260    -2.0886682370685e-05
 261    8.0585507501095e-05
 262    -4.0848649449294e-07