[Molden Format]
made by pyscf v[2.0.1]
[Atoms] (AU)
O   1   8     0.00000000000000     0.00000000000000    10.56380536055454
H   2   1     0.00000000000000     0.00000000000000     8.74040353865358
H   3   1    -0.05031916615174     1.78353065140343    10.93967705702121
O   4   8     0.00000000000000     0.00000000000000     2.31533471513237
C   5   6     0.00000000000000     0.00000000000000     0.00000000000000
C   6   6     2.01118073026938    -1.40227222164369    -1.50774939176400
C   7   6    -2.01249334291722     1.41331050329955    -1.50315905028694
H   8   1     3.32037363730244    -2.26721897153159    -0.13599698591495
C   9   6     3.45899267434009     0.28739631745591    -3.37437943254505
H   10   1     1.07662969841332    -2.94725144642667    -2.56541439481080
H   11   1    -2.67503415753480     0.18421555839588    -3.06194479365997
H   12   1    -1.07974048864772     3.03851734677796    -2.43674295017013
C   13   6    -4.21607110578555     2.32938802552922     0.11994162256091
H   14   1     4.24440173074564     1.93368664142019    -2.34976285512790
H   15   1     2.15020713235517     1.04714335134846    -4.81494497423699
C   16   6     5.60746363007797    -1.12419643481196    -4.70268606082550
H   17   1    -3.46838323670267     3.50951302338067     1.66946842715333
H   18   1    -5.11873485366228     0.68575958301209     1.04047743976495
C   19   6    -6.18314754751344     3.80909592987882    -1.39656589068747
H   20   1     6.93011263717176    -1.87550812453645    -3.26656317360070
C   21   6     7.06356622236532     0.52877932406334    -6.57829775293605
H   22   1     4.82318879258361    -2.78573437948532    -5.70504560381835
H   23   1    -6.91582688743803     2.61304780074712    -2.95074552451969
H   24   1    -5.26532430573853     5.45420349051338    -2.31005832200284
C   25   6    -8.39941882261433     4.73263980500213     0.21800571437956
H   26   1     7.83338371486801     2.19084139882824    -5.57093109900697
H   27   1     5.73544244039420     1.27376866537418    -8.01071492370229
C   28   6     9.21124858443101    -0.89699110072176    -7.88926949186242
H   29   1    -7.66272760055236     5.92277078003992     1.77035591474408
H   30   1    -9.31497248082589     3.08753015622020     1.12614408368786
C   31   6   -10.35481709231879     6.21833079391143    -1.30905206253246
H   32   1    10.58815905329501    -1.61074586756696    -6.49512691622620
H   33   1    10.23506248045667     0.32468009384095    -9.23072870921204
H   34   1     8.47665842847139    -2.53598436989925    -8.94921964622535
H   35   1    -9.48948872868064     7.90013588951020    -2.18823918416067
H   36   1   -11.93332513000955     6.86460487874102    -0.11255798845995
H   37   1   -11.15126291841033     5.04495968327630    -2.83849898862534
[GTO]
1 0
 s    8 1.00
                 11720  0.00070964594651845
                  1759  0.0054672722921914
                 400.8   0.027823118610189
                 113.7    0.10474773971146
                 37.03    0.28292084635691
                 13.27    0.44849523869833
                 5.025    0.27081688521277
                 1.013    0.01545029160744
 s    8 1.00
                 11720  -0.00031444341168873
                  1759  -0.0024821376810179
                 400.8  -0.012316355381583
                 113.7  -0.050538917343672
                 37.03   -0.13938490331632
                 13.27   -0.32507749481778
                 5.025   -0.22984830758785
                 1.013     1.0953793467883
 s    1 1.00
                0.3023                   1
 p    3 1.00
                  17.7   0.062679166281506
                 3.854    0.33353656587936
                 1.046    0.74123964163973
 p    1 1.00
                0.2753                   1
 d    1 1.00
                 1.185                   1

2 0
 s    3 1.00
                 13.01   0.033498726389998
                 1.962    0.23480080117413
                0.4446     0.8136829578829
 s    1 1.00
                 0.122                   1
 p    1 1.00
                 0.727                   1

3 0
 s    3 1.00
                 13.01   0.033498726389998
                 1.962    0.23480080117413
                0.4446     0.8136829578829
 s    1 1.00
                 0.122                   1
 p    1 1.00
                 0.727                   1

4 0
 s    8 1.00
                 11720  0.00070964594651845
                  1759  0.0054672722921914
                 400.8   0.027823118610189
                 113.7    0.10474773971146
                 37.03    0.28292084635691
                 13.27    0.44849523869833
                 5.025    0.27081688521277
                 1.013    0.01545029160744
 s    8 1.00
                 11720  -0.00031444341168873
                  1759  -0.0024821376810179
                 400.8  -0.012316355381583
                 113.7  -0.050538917343672
                 37.03   -0.13938490331632
                 13.27   -0.32507749481778
                 5.025   -0.22984830758785
                 1.013     1.0953793467883
 s    1 1.00
                0.3023                   1
 p    3 1.00
                  17.7   0.062679166281506
                 3.854    0.33353656587936
                 1.046    0.74123964163973
 p    1 1.00
                0.2753                   1
 d    1 1.00
                 1.185                   1

5 0
 s    8 1.00
                  6665  0.00069158396281299
                  1000  0.0053257961529341
                   228   0.027060721042034
                 64.71    0.10165684614077
                 21.06     0.2745748236174
                 7.495    0.44829431892377
                 2.797    0.28490261071525
                0.5215   0.015194859206082
 s    8 1.00
                  6665  -0.00029326965268655
                  1000  -0.0023180354739745
                   228  -0.011499786038565
                 64.71  -0.046826727009787
                 21.06   -0.12846616875047
                 7.495   -0.30126627246289
                 2.797   -0.25563070233011
                0.5215      1.093793361012
 s    1 1.00
                0.1596                   1
 p    3 1.00
                 9.439   0.056979251590039
                 2.002    0.31320721150073
                0.5456    0.76037674173753
 p    1 1.00
                0.1517                   1
 d    1 1.00
                  0.55                   1

6 0
 s    8 1.00
                  6665  0.00069158396281299
                  1000  0.0053257961529341
                   228   0.027060721042034
                 64.71    0.10165684614077
                 21.06     0.2745748236174
                 7.495    0.44829431892377
                 2.797    0.28490261071525
                0.5215   0.015194859206082
 s    8 1.00
                  6665  -0.00029326965268655
                  1000  -0.0023180354739745
                   228  -0.011499786038565
                 64.71  -0.046826727009787
                 21.06   -0.12846616875047
                 7.495   -0.30126627246289
                 2.797   -0.25563070233011
                0.5215      1.093793361012
 s    1 1.00
                0.1596                   1
 p    3 1.00
                 9.439   0.056979251590039
                 2.002    0.31320721150073
                0.5456    0.76037674173753
 p    1 1.00
                0.1517                   1
 d    1 1.00
                  0.55                   1

7 0
 s    8 1.00
                  6665  0.00069158396281299
                  1000  0.0053257961529341
                   228   0.027060721042034
                 64.71    0.10165684614077
                 21.06     0.2745748236174
                 7.495    0.44829431892377
                 2.797    0.28490261071525
                0.5215   0.015194859206082
 s    8 1.00
                  6665  -0.00029326965268655
                  1000  -0.0023180354739745
                   228  -0.011499786038565
                 64.71  -0.046826727009787
                 21.06   -0.12846616875047
                 7.495   -0.30126627246289
                 2.797   -0.25563070233011
                0.5215      1.093793361012
 s    1 1.00
                0.1596                   1
 p    3 1.00
                 9.439   0.056979251590039
                 2.002    0.31320721150073
                0.5456    0.76037674173753
 p    1 1.00
                0.1517                   1
 d    1 1.00
                  0.55                   1

8 0
 s    3 1.00
                 13.01   0.033498726389998
                 1.962    0.23480080117413
                0.4446     0.8136829578829
 s    1 1.00
                 0.122                   1
 p    1 1.00
                 0.727                   1

9 0
 s    8 1.00
                  6665  0.00069158396281299
                  1000  0.0053257961529341
                   228   0.027060721042034
                 64.71    0.10165684614077
                 21.06     0.2745748236174
                 7.495    0.44829431892377
                 2.797    0.28490261071525
                0.5215   0.015194859206082
 s    8 1.00
                  6665  -0.00029326965268655
                  1000  -0.0023180354739745
                   228  -0.011499786038565
                 64.71  -0.046826727009787
                 21.06   -0.12846616875047
                 7.495   -0.30126627246289
                 2.797   -0.25563070233011
                0.5215      1.093793361012
 s    1 1.00
                0.1596                   1
 p    3 1.00
                 9.439   0.056979251590039
                 2.002    0.31320721150073
                0.5456    0.76037674173753
 p    1 1.00
                0.1517                   1
 d    1 1.00
                  0.55                   1

10 0
 s    3 1.00
                 13.01   0.033498726389998
                 1.962    0.23480080117413
                0.4446     0.8136829578829
 s    1 1.00
                 0.122                   1
 p    1 1.00
                 0.727                   1

11 0
 s    3 1.00
                 13.01   0.033498726389998
                 1.962    0.23480080117413
                0.4446     0.8136829578829
 s    1 1.00
                 0.122                   1
 p    1 1.00
                 0.727                   1

12 0
 s    3 1.00
                 13.01   0.033498726389998
                 1.962    0.23480080117413
                0.4446     0.8136829578829
 s    1 1.00
                 0.122                   1
 p    1 1.00
                 0.727                   1

13 0
 s    8 1.00
                  6665  0.00069158396281299
                  1000  0.0053257961529341
                   228   0.027060721042034
                 64.71    0.10165684614077
                 21.06     0.2745748236174
                 7.495    0.44829431892377
                 2.797    0.28490261071525
                0.5215   0.015194859206082
 s    8 1.00
                  6665  -0.00029326965268655
                  1000  -0.0023180354739745
                   228  -0.011499786038565
                 64.71  -0.046826727009787
                 21.06   -0.12846616875047
                 7.495   -0.30126627246289
                 2.797   -0.25563070233011
                0.5215      1.093793361012
 s    1 1.00
                0.1596                   1
 p    3 1.00
                 9.439   0.056979251590039
                 2.002    0.31320721150073
                0.5456    0.76037674173753
 p    1 1.00
                0.1517                   1
 d    1 1.00
                  0.55                   1

14 0
 s    3 1.00
                 13.01   0.033498726389998
                 1.962    0.23480080117413
                0.4446     0.8136829578829
 s    1 1.00
                 0.122                   1
 p    1 1.00
                 0.727                   1

15 0
 s    3 1.00
                 13.01   0.033498726389998
                 1.962    0.23480080117413
                0.4446     0.8136829578829
 s    1 1.00
                 0.122                   1
 p    1 1.00
                 0.727                   1

16 0
 s    8 1.00
                  6665  0.00069158396281299
                  1000  0.0053257961529341
                   228   0.027060721042034
                 64.71    0.10165684614077
                 21.06     0.2745748236174
                 7.495    0.44829431892377
                 2.797    0.28490261071525
                0.5215   0.015194859206082
 s    8 1.00
                  6665  -0.00029326965268655
                  1000  -0.0023180354739745
                   228  -0.011499786038565
                 64.71  -0.046826727009787
                 21.06   -0.12846616875047
                 7.495   -0.30126627246289
                 2.797   -0.25563070233011
                0.5215      1.093793361012
 s    1 1.00
                0.1596                   1
 p    3 1.00
                 9.439   0.056979251590039
                 2.002    0.31320721150073
                0.5456    0.76037674173753
 p    1 1.00
                0.1517                   1
 d    1 1.00
                  0.55                   1

17 0
 s    3 1.00
                 13.01   0.033498726389998
                 1.962    0.23480080117413
                0.4446     0.8136829578829
 s    1 1.00
                 0.122                   1
 p    1 1.00
                 0.727                   1

18 0
 s    3 1.00
                 13.01   0.033498726389998
                 1.962    0.23480080117413
                0.4446     0.8136829578829
 s    1 1.00
                 0.122                   1
 p    1 1.00
                 0.727                   1

19 0
 s    8 1.00
                  6665  0.00069158396281299
                  1000  0.0053257961529341
                   228   0.027060721042034
                 64.71    0.10165684614077
                 21.06     0.2745748236174
                 7.495    0.44829431892377
                 2.797    0.28490261071525
                0.5215   0.015194859206082
 s    8 1.00
                  6665  -0.00029326965268655
                  1000  -0.0023180354739745
                   228  -0.011499786038565
                 64.71  -0.046826727009787
                 21.06   -0.12846616875047
                 7.495   -0.30126627246289
                 2.797   -0.25563070233011
                0.5215      1.093793361012
 s    1 1.00
                0.1596                   1
 p    3 1.00
                 9.439   0.056979251590039
                 2.002    0.31320721150073
                0.5456    0.76037674173753
 p    1 1.00
                0.1517                   1
 d    1 1.00
                  0.55                   1

20 0
 s    3 1.00
                 13.01   0.033498726389998
                 1.962    0.23480080117413
                0.4446     0.8136829578829
 s    1 1.00
                 0.122                   1
 p    1 1.00
                 0.727                   1

21 0
 s    8 1.00
                  6665  0.00069158396281299
                  1000  0.0053257961529341
                   228   0.027060721042034
                 64.71    0.10165684614077
                 21.06     0.2745748236174
                 7.495    0.44829431892377
                 2.797    0.28490261071525
                0.5215   0.015194859206082
 s    8 1.00
                  6665  -0.00029326965268655
                  1000  -0.0023180354739745
                   228  -0.011499786038565
                 64.71  -0.046826727009787
                 21.06   -0.12846616875047
                 7.495   -0.30126627246289
                 2.797   -0.25563070233011
                0.5215      1.093793361012
 s    1 1.00
                0.1596                   1
 p    3 1.00
                 9.439   0.056979251590039
                 2.002    0.31320721150073
                0.5456    0.76037674173753
 p    1 1.00
                0.1517                   1
 d    1 1.00
                  0.55                   1

22 0
 s    3 1.00
                 13.01   0.033498726389998
                 1.962    0.23480080117413
                0.4446     0.8136829578829
 s    1 1.00
                 0.122                   1
 p    1 1.00
                 0.727                   1

23 0
 s    3 1.00
                 13.01   0.033498726389998
                 1.962    0.23480080117413
                0.4446     0.8136829578829
 s    1 1.00
                 0.122                   1
 p    1 1.00
                 0.727                   1

24 0
 s    3 1.00
                 13.01   0.033498726389998
                 1.962    0.23480080117413
                0.4446     0.8136829578829
 s    1 1.00
                 0.122                   1
 p    1 1.00
                 0.727                   1

25 0
 s    8 1.00
                  6665  0.00069158396281299
                  1000  0.0053257961529341
                   228   0.027060721042034
                 64.71    0.10165684614077
                 21.06     0.2745748236174
                 7.495    0.44829431892377
                 2.797    0.28490261071525
                0.5215   0.015194859206082
 s    8 1.00
                  6665  -0.00029326965268655
                  1000  -0.0023180354739745
                   228  -0.011499786038565
                 64.71  -0.046826727009787
                 21.06   -0.12846616875047
                 7.495   -0.30126627246289
                 2.797   -0.25563070233011
                0.5215      1.093793361012
 s    1 1.00
                0.1596                   1
 p    3 1.00
                 9.439   0.056979251590039
                 2.002    0.31320721150073
                0.5456    0.76037674173753
 p    1 1.00
                0.1517                   1
 d    1 1.00
                  0.55                   1

26 0
 s    3 1.00
                 13.01   0.033498726389998
                 1.962    0.23480080117413
                0.4446     0.8136829578829
 s    1 1.00
                 0.122                   1
 p    1 1.00
                 0.727                   1

27 0
 s    3 1.00
                 13.01   0.033498726389998
                 1.962    0.23480080117413
                0.4446     0.8136829578829
 s    1 1.00
                 0.122                   1
 p    1 1.00
                 0.727                   1

28 0
 s    8 1.00
                  6665  0.00069158396281299
                  1000  0.0053257961529341
                   228   0.027060721042034
                 64.71    0.10165684614077
                 21.06     0.2745748236174
                 7.495    0.44829431892377
                 2.797    0.28490261071525
                0.5215   0.015194859206082
 s    8 1.00
                  6665  -0.00029326965268655
                  1000  -0.0023180354739745
                   228  -0.011499786038565
                 64.71  -0.046826727009787
                 21.06   -0.12846616875047
                 7.495   -0.30126627246289
                 2.797   -0.25563070233011
                0.5215      1.093793361012
 s    1 1.00
                0.1596                   1
 p    3 1.00
                 9.439   0.056979251590039
                 2.002    0.31320721150073
                0.5456    0.76037674173753
 p    1 1.00
                0.1517                   1
 d    1 1.00
                  0.55                   1

29 0
 s    3 1.00
                 13.01   0.033498726389998
                 1.962    0.23480080117413
                0.4446     0.8136829578829
 s    1 1.00
                 0.122                   1
 p    1 1.00
                 0.727                   1

30 0
 s    3 1.00
                 13.01   0.033498726389998
                 1.962    0.23480080117413
                0.4446     0.8136829578829
 s    1 1.00
                 0.122                   1
 p    1 1.00
                 0.727                   1

31 0
 s    8 1.00
                  6665  0.00069158396281299
                  1000  0.0053257961529341
                   228   0.027060721042034
                 64.71    0.10165684614077
                 21.06     0.2745748236174
                 7.495    0.44829431892377
                 2.797    0.28490261071525
                0.5215   0.015194859206082
 s    8 1.00
                  6665  -0.00029326965268655
                  1000  -0.0023180354739745
                   228  -0.011499786038565
                 64.71  -0.046826727009787
                 21.06   -0.12846616875047
                 7.495   -0.30126627246289
                 2.797   -0.25563070233011
                0.5215      1.093793361012
 s    1 1.00
                0.1596                   1
 p    3 1.00
                 9.439   0.056979251590039
                 2.002    0.31320721150073
                0.5456    0.76037674173753
 p    1 1.00
                0.1517                   1
 d    1 1.00
                  0.55                   1

32 0
 s    3 1.00
                 13.01   0.033498726389998
                 1.962    0.23480080117413
                0.4446     0.8136829578829
 s    1 1.00
                 0.122                   1
 p    1 1.00
                 0.727                   1

33 0
 s    3 1.00
                 13.01   0.033498726389998
                 1.962    0.23480080117413
                0.4446     0.8136829578829
 s    1 1.00
                 0.122                   1
 p    1 1.00
                 0.727                   1

34 0
 s    3 1.00
                 13.01   0.033498726389998
                 1.962    0.23480080117413
                0.4446     0.8136829578829
 s    1 1.00
                 0.122                   1
 p    1 1.00
                 0.727                   1

35 0
 s    3 1.00
                 13.01   0.033498726389998
                 1.962    0.23480080117413
                0.4446     0.8136829578829
 s    1 1.00
                 0.122                   1
 p    1 1.00
                 0.727                   1

36 0
 s    3 1.00
                 13.01   0.033498726389998
                 1.962    0.23480080117413
                0.4446     0.8136829578829
 s    1 1.00
                 0.122                   1
 p    1 1.00
                 0.727                   1

37 0
 s    3 1.00
                 13.01   0.033498726389998
                 1.962    0.23480080117413
                0.4446     0.8136829578829
 s    1 1.00
                 0.122                   1
 p    1 1.00
                 0.727                   1

[5d]
[7f]
[9g]

[MO]
 Sym= A
 Ene=               0
 Spin= Alpha
 Occup=    1.00000
   1    1.2167392718929e-06
   2    1.4931011371316e-06
   3    -1.1844718240811e-05
   4    4.1195644603635e-08
   5    3.2513596749942e-08
   6    1.5916917123354e-06
   7    -1.1577723944896e-07
   8    1.5831872139635e-06
   9    7.7747113155847e-06
  10    -7.0743577453286e-07
  11    -4.8081414191677e-09
  12    5.1834636545008e-08
  13    1.1831154693339e-08
  14    -1.6830368339941e-09
  15    -1.3265007753375e-06
  16    2.1034818843367e-05
  17    -3.5587889458436e-08
  18    5.0475552788867e-09
  19    2.8617220894643e-06
  20    6.6686367311476e-07
  21    -4.7225471187249e-06
  22    1.9189089628417e-08
  23    -7.1341413480879e-08
  24    -2.3153093386497e-07
  25    -5.6010659224519e-06
  26    -0.00010966639818614
  27    -6.4094175880698e-06
  28    9.7639816836451e-05
  29    0.00012359712847948
  30    6.1444980439577e-05
  31    0.00015806777430592
  32    7.4161923976447e-05
  33    7.5310380450986e-05
  34    -1.1740681989445e-05
  35    -2.2636839404807e-05
  36    1.1467813415787e-05
  37    5.6376388720823e-06
  38    -9.0585874145827e-06
  39    -9.6369263119969e-05
  40    -0.0006041607602456
  41    0.0011671153986037
  42    0.00070775389008682
  43    -0.00054850107697766
  44    0.00043487106920961
  45    0.00011824114578478
  46    -1.3357016341502e-05
  47    -0.00074185587959848
  48    -0.00010556967165353
  49    -2.6334918730304e-05
  50    5.0994665751876e-05
  51    6.8226945957071e-05
  52    -0.00013676405256206
  53    1.556750334025e-05
  54    0.00028015416959214
  55    -6.9384873518079e-05
  56    -0.00040751533336434
  57    0.00029321579748915
  58    0.00017108708336798
  59    -0.00014562207769189
  60    9.233020191152e-05
  61    0.00023685801371108
  62    3.5404045618885e-05
  63    -2.2596756322234e-05
  64    1.7166556946541e-05
  65    -1.921458641683e-05
  66    5.1118222601714e-05
  67    7.536699450533e-05
  68    0.0011945520501104
  69    -0.00079766761349582
  70    -0.0018685009692061
  71    0.0007856803987556
  72    0.0012506301086262
  73    -0.0024211194952327
  74    0.0014641423416685
  75    -0.00044684222938091
  76    0.00017896686719512
  77    -0.00016955201703908
  78    6.6928919232837e-05
  79    -9.273732806592e-05
  80    0.00020518736165236
  81    -0.00024869684354447
  82    -0.00029768616433209
  83    -2.6998054438008e-05
  84    2.0568225609685e-05
  85    1.6559811423344e-05
  86    -1.1645793528666e-05
  87    3.7974480393023e-05
  88    0.00033166809558006
  89    -7.7311541164662e-05
  90    1.0761975629964e-05
  91    -1.4822987832056e-05
  92    -5.1177559366874e-05
  93    -0.00016781051180867
  94    -0.0001488427246247
  95    6.2573151368741e-06
  96    -1.2550963191853e-05
  97    -1.5813787557512e-06
  98    1.3977929592059e-05
  99    4.7665534173804e-06
 100    5.9010743643418e-05
 101    3.4194409353225e-05
 102    -5.9961043308991e-06
 103    1.2111426037089e-05
 104    -2.5892097512554e-06
 105    3.6903637543218e-05
 106    -8.2198091536307e-05
 107    -2.2050933531846e-05
 108    -3.5754597352115e-05
 109    6.2338085366526e-05
 110    7.2921897437534e-05
 111    -5.1498572018046e-05
 112    -1.7532692482189e-07
 113    2.0192910135711e-05
 114    7.0885174321642e-05
 115    6.1305699837479e-05
 116    -0.0028660863667708
 117    -0.0040473371914215
 118    0.0042190195139424
 119    -0.0027825378739978
 120     0.001585207323076
 121    0.0050314833700238
 122    -0.002936238024459
 123    0.00029921931692538
 124    2.9302459960186e-06
 125    -0.00032408549054269
 126    0.00013987652763554
 127    0.00011284369240651
 128    -7.5304708721509e-05
 129    -7.3234826131536e-06
 130    4.1771536367771e-05
 131    -2.318522113223e-06
 132    -5.2785323615421e-06
 133    2.7259645143084e-07
 134    2.1371675466608e-05
 135    -6.6238609701326e-05
 136    1.0123005948369e-06
 137    5.4732172728655e-06
 138    5.3046591442415e-06
 139    6.1730604901842e-06
 140    4.1801425502506e-05
 141    -5.2433500749497e-05
 142    1.1621028666165e-05
 143    -1.9584730332707e-05
 144    2.6342237983324e-05
 145    0.00015830430838227
 146    -2.2911581891031e-05
 147    -2.9714169766937e-05
 148    5.8670323361064e-07
 149    9.3390011890781e-06
 150    -1.053097616317e-07
 151    -1.5217377293453e-06
 152    2.2039185642689e-07
 153    -0.00059940200947055
 154    -0.00014296533364278
 155    8.5803747074015e-05
 156    1.8160525317823e-05
 157    0.00016523642302444
 158    -0.00056184710684618
 159    -8.834080693057e-05
 160    -1.1849909434656e-05
 161    -0.00013507076273163
 162    0.0001324933325899
 163    -0.00041715462005483
 164    0.0022583319016888
 165    0.0071036793107729
 166    -0.0052023366661865
 167    0.0030365974072163
 168    0.00093990051488012
 169    -0.0070004565475976
 170     0.003905901040434
 171    0.0012696509679456
 172    0.0011651939065317
 173    -0.00094622616000529
 174    0.00022986910441788
 175    -0.00030593445478067
 176    0.0010083916927273
 177    5.4814491055936e-05
 178    -3.1309941562475e-05
 179    -1.6489239992267e-06
 180    1.5124089109629e-07
 181    -3.3146652451715e-07
 182    2.6309647015375e-06
 183    -7.0233242767252e-06
 184    -7.0132072213772e-05
 185    1.9221755846781e-05
 186    1.138318775764e-05
 187    -1.5839315727461e-05
 188    4.728963774385e-06
 189    3.281643702215e-05
 190    -2.2235882200529e-05
 191    9.407154998859e-07
 192    -2.155257998738e-06
 193    5.3190531805082e-08
 194    2.6680988054369e-06
 195    2.4472882938641e-06
 196    1.8350098471415e-05
 197    -4.6862242770734e-06
 198    -2.2381143630434e-06
 199    1.2929967819569e-06
 200    2.1148933886253e-06
 201    0.0019505758136872
 202    0.0016672557764842
 203    -5.8057757291064e-05
 204    0.00014430006700011
 205    0.00017525154849605
 206    0.0024454631804138
 207    0.0021334341315232
 208    -0.00018998939284201
 209    -7.2564350638756e-05
 210    0.00014638324721549
 211    0.0013061134714066
 212    -0.016424085729158
 213    -0.016466127349792
 214     0.029261903322105
 215    -0.024499278368093
 216     0.025185912333205
 217     0.013204989516528
 218    -0.011844857080396
 219     0.014694783284391
 220    0.00034430198572937
 221    -0.0029501963209334
 222    0.0022129072367795
 223    -0.00090076245472321
 224    0.0031026105377918
 225    -2.982288194696e-06
 226    -9.7874715845519e-06
 227    1.4126001263319e-06
 228    1.960448193896e-07
 229    -6.7377739135043e-07
 230    -1.6197389947052e-06
 231    1.2459821294412e-05
 232    6.1703573420434e-07
 233    -8.3292530588426e-07
 234    1.2466125722558e-06
 235    5.2659125055375e-06
 236    -2.6829352320678e-05
 237    -1.6236499708439e-05
 238    -4.8557451463822e-07
 239    6.7812402714361e-05
 240    -1.6982283358508e-05
 241    5.4723434114217e-06
 242    5.1029360788197e-05
 243    -1.880680358388e-05
 244    -3.2354763245901e-07
 245    -2.9132483090938e-06
 246    -1.3774502384168e-06
 247    -9.68250509622e-07
 248    -3.9301513358001e-07
 249    0.0054746639690259
 250    0.0046260153321246
 251    0.00051586877866909
 252    -0.00049724643697243
 253    0.00035965487837419
 254    0.0076276821752863
 255    0.0055300404803926
 256    0.00066098018644939
 257    -0.00025216619126449
 258    0.00029118038007527
 259      0.99574082164156
 260    -0.035337902044496
 261     -0.03478309619357
 262    -0.024546060407305
 263      0.01761487213416
 264    -0.018287134300567