[Molden Format]
made by pyscf v[2.0.1]
[Atoms] (AU)
O   1   8     0.00000000000000     0.00000000000000     9.42996968581551
H   2   1     0.00000000000000     0.00000000000000     7.60656786391454
H   3   1    -0.05031916615174     1.78353065140343     9.80584138228218
O   4   8     0.00000000000000     0.00000000000000     2.31533471513237
C   5   6     0.00000000000000     0.00000000000000     0.00000000000000
C   6   6     2.01118073026938    -1.40227222164369    -1.50774939176400
C   7   6    -2.01249334291722     1.41331050329955    -1.50315905028694
H   8   1     3.32037363730244    -2.26721897153159    -0.13599698591495
C   9   6     3.45899267434009     0.28739631745591    -3.37437943254505
H   10   1     1.07662969841332    -2.94725144642667    -2.56541439481080
H   11   1    -2.67503415753480     0.18421555839588    -3.06194479365997
H   12   1    -1.07974048864772     3.03851734677796    -2.43674295017013
C   13   6    -4.21607110578555     2.32938802552922     0.11994162256091
H   14   1     4.24440173074564     1.93368664142019    -2.34976285512790
H   15   1     2.15020713235517     1.04714335134846    -4.81494497423699
C   16   6     5.60746363007797    -1.12419643481196    -4.70268606082550
H   17   1    -3.46838323670267     3.50951302338067     1.66946842715333
H   18   1    -5.11873485366228     0.68575958301209     1.04047743976495
C   19   6    -6.18314754751344     3.80909592987882    -1.39656589068747
H   20   1     6.93011263717176    -1.87550812453645    -3.26656317360070
C   21   6     7.06356622236532     0.52877932406334    -6.57829775293605
H   22   1     4.82318879258361    -2.78573437948532    -5.70504560381835
H   23   1    -6.91582688743803     2.61304780074712    -2.95074552451969
H   24   1    -5.26532430573853     5.45420349051338    -2.31005832200284
C   25   6    -8.39941882261433     4.73263980500213     0.21800571437956
H   26   1     7.83338371486801     2.19084139882824    -5.57093109900697
H   27   1     5.73544244039420     1.27376866537418    -8.01071492370229
C   28   6     9.21124858443101    -0.89699110072176    -7.88926949186242
H   29   1    -7.66272760055236     5.92277078003992     1.77035591474408
H   30   1    -9.31497248082589     3.08753015622020     1.12614408368786
C   31   6   -10.35481709231879     6.21833079391143    -1.30905206253246
H   32   1    10.58815905329501    -1.61074586756696    -6.49512691622620
H   33   1    10.23506248045667     0.32468009384095    -9.23072870921204
H   34   1     8.47665842847139    -2.53598436989925    -8.94921964622535
H   35   1    -9.48948872868064     7.90013588951020    -2.18823918416067
H   36   1   -11.93332513000955     6.86460487874102    -0.11255798845995
H   37   1   -11.15126291841033     5.04495968327630    -2.83849898862534
[GTO]
1 0
 s    8 1.00
                 11720  0.00070964594651845
                  1759  0.0054672722921914
                 400.8   0.027823118610189
                 113.7    0.10474773971146
                 37.03    0.28292084635691
                 13.27    0.44849523869833
                 5.025    0.27081688521277
                 1.013    0.01545029160744
 s    8 1.00
                 11720  -0.00031444341168873
                  1759  -0.0024821376810179
                 400.8  -0.012316355381583
                 113.7  -0.050538917343672
                 37.03   -0.13938490331632
                 13.27   -0.32507749481778
                 5.025   -0.22984830758785
                 1.013     1.0953793467883
 s    1 1.00
                0.3023                   1
 p    3 1.00
                  17.7   0.062679166281506
                 3.854    0.33353656587936
                 1.046    0.74123964163973
 p    1 1.00
                0.2753                   1
 d    1 1.00
                 1.185                   1

2 0
 s    3 1.00
                 13.01   0.033498726389998
                 1.962    0.23480080117413
                0.4446     0.8136829578829
 s    1 1.00
                 0.122                   1
 p    1 1.00
                 0.727                   1

3 0
 s    3 1.00
                 13.01   0.033498726389998
                 1.962    0.23480080117413
                0.4446     0.8136829578829
 s    1 1.00
                 0.122                   1
 p    1 1.00
                 0.727                   1

4 0
 s    8 1.00
                 11720  0.00070964594651845
                  1759  0.0054672722921914
                 400.8   0.027823118610189
                 113.7    0.10474773971146
                 37.03    0.28292084635691
                 13.27    0.44849523869833
                 5.025    0.27081688521277
                 1.013    0.01545029160744
 s    8 1.00
                 11720  -0.00031444341168873
                  1759  -0.0024821376810179
                 400.8  -0.012316355381583
                 113.7  -0.050538917343672
                 37.03   -0.13938490331632
                 13.27   -0.32507749481778
                 5.025   -0.22984830758785
                 1.013     1.0953793467883
 s    1 1.00
                0.3023                   1
 p    3 1.00
                  17.7   0.062679166281506
                 3.854    0.33353656587936
                 1.046    0.74123964163973
 p    1 1.00
                0.2753                   1
 d    1 1.00
                 1.185                   1

5 0
 s    8 1.00
                  6665  0.00069158396281299
                  1000  0.0053257961529341
                   228   0.027060721042034
                 64.71    0.10165684614077
                 21.06     0.2745748236174
                 7.495    0.44829431892377
                 2.797    0.28490261071525
                0.5215   0.015194859206082
 s    8 1.00
                  6665  -0.00029326965268655
                  1000  -0.0023180354739745
                   228  -0.011499786038565
                 64.71  -0.046826727009787
                 21.06   -0.12846616875047
                 7.495   -0.30126627246289
                 2.797   -0.25563070233011
                0.5215      1.093793361012
 s    1 1.00
                0.1596                   1
 p    3 1.00
                 9.439   0.056979251590039
                 2.002    0.31320721150073
                0.5456    0.76037674173753
 p    1 1.00
                0.1517                   1
 d    1 1.00
                  0.55                   1

6 0
 s    8 1.00
                  6665  0.00069158396281299
                  1000  0.0053257961529341
                   228   0.027060721042034
                 64.71    0.10165684614077
                 21.06     0.2745748236174
                 7.495    0.44829431892377
                 2.797    0.28490261071525
                0.5215   0.015194859206082
 s    8 1.00
                  6665  -0.00029326965268655
                  1000  -0.0023180354739745
                   228  -0.011499786038565
                 64.71  -0.046826727009787
                 21.06   -0.12846616875047
                 7.495   -0.30126627246289
                 2.797   -0.25563070233011
                0.5215      1.093793361012
 s    1 1.00
                0.1596                   1
 p    3 1.00
                 9.439   0.056979251590039
                 2.002    0.31320721150073
                0.5456    0.76037674173753
 p    1 1.00
                0.1517                   1
 d    1 1.00
                  0.55                   1

7 0
 s    8 1.00
                  6665  0.00069158396281299
                  1000  0.0053257961529341
                   228   0.027060721042034
                 64.71    0.10165684614077
                 21.06     0.2745748236174
                 7.495    0.44829431892377
                 2.797    0.28490261071525
                0.5215   0.015194859206082
 s    8 1.00
                  6665  -0.00029326965268655
                  1000  -0.0023180354739745
                   228  -0.011499786038565
                 64.71  -0.046826727009787
                 21.06   -0.12846616875047
                 7.495   -0.30126627246289
                 2.797   -0.25563070233011
                0.5215      1.093793361012
 s    1 1.00
                0.1596                   1
 p    3 1.00
                 9.439   0.056979251590039
                 2.002    0.31320721150073
                0.5456    0.76037674173753
 p    1 1.00
                0.1517                   1
 d    1 1.00
                  0.55                   1

8 0
 s    3 1.00
                 13.01   0.033498726389998
                 1.962    0.23480080117413
                0.4446     0.8136829578829
 s    1 1.00
                 0.122                   1
 p    1 1.00
                 0.727                   1

9 0
 s    8 1.00
                  6665  0.00069158396281299
                  1000  0.0053257961529341
                   228   0.027060721042034
                 64.71    0.10165684614077
                 21.06     0.2745748236174
                 7.495    0.44829431892377
                 2.797    0.28490261071525
                0.5215   0.015194859206082
 s    8 1.00
                  6665  -0.00029326965268655
                  1000  -0.0023180354739745
                   228  -0.011499786038565
                 64.71  -0.046826727009787
                 21.06   -0.12846616875047
                 7.495   -0.30126627246289
                 2.797   -0.25563070233011
                0.5215      1.093793361012
 s    1 1.00
                0.1596                   1
 p    3 1.00
                 9.439   0.056979251590039
                 2.002    0.31320721150073
                0.5456    0.76037674173753
 p    1 1.00
                0.1517                   1
 d    1 1.00
                  0.55                   1

10 0
 s    3 1.00
                 13.01   0.033498726389998
                 1.962    0.23480080117413
                0.4446     0.8136829578829
 s    1 1.00
                 0.122                   1
 p    1 1.00
                 0.727                   1

11 0
 s    3 1.00
                 13.01   0.033498726389998
                 1.962    0.23480080117413
                0.4446     0.8136829578829
 s    1 1.00
                 0.122                   1
 p    1 1.00
                 0.727                   1

12 0
 s    3 1.00
                 13.01   0.033498726389998
                 1.962    0.23480080117413
                0.4446     0.8136829578829
 s    1 1.00
                 0.122                   1
 p    1 1.00
                 0.727                   1

13 0
 s    8 1.00
                  6665  0.00069158396281299
                  1000  0.0053257961529341
                   228   0.027060721042034
                 64.71    0.10165684614077
                 21.06     0.2745748236174
                 7.495    0.44829431892377
                 2.797    0.28490261071525
                0.5215   0.015194859206082
 s    8 1.00
                  6665  -0.00029326965268655
                  1000  -0.0023180354739745
                   228  -0.011499786038565
                 64.71  -0.046826727009787
                 21.06   -0.12846616875047
                 7.495   -0.30126627246289
                 2.797   -0.25563070233011
                0.5215      1.093793361012
 s    1 1.00
                0.1596                   1
 p    3 1.00
                 9.439   0.056979251590039
                 2.002    0.31320721150073
                0.5456    0.76037674173753
 p    1 1.00
                0.1517                   1
 d    1 1.00
                  0.55                   1

14 0
 s    3 1.00
                 13.01   0.033498726389998
                 1.962    0.23480080117413
                0.4446     0.8136829578829
 s    1 1.00
                 0.122                   1
 p    1 1.00
                 0.727                   1

15 0
 s    3 1.00
                 13.01   0.033498726389998
                 1.962    0.23480080117413
                0.4446     0.8136829578829
 s    1 1.00
                 0.122                   1
 p    1 1.00
                 0.727                   1

16 0
 s    8 1.00
                  6665  0.00069158396281299
                  1000  0.0053257961529341
                   228   0.027060721042034
                 64.71    0.10165684614077
                 21.06     0.2745748236174
                 7.495    0.44829431892377
                 2.797    0.28490261071525
                0.5215   0.015194859206082
 s    8 1.00
                  6665  -0.00029326965268655
                  1000  -0.0023180354739745
                   228  -0.011499786038565
                 64.71  -0.046826727009787
                 21.06   -0.12846616875047
                 7.495   -0.30126627246289
                 2.797   -0.25563070233011
                0.5215      1.093793361012
 s    1 1.00
                0.1596                   1
 p    3 1.00
                 9.439   0.056979251590039
                 2.002    0.31320721150073
                0.5456    0.76037674173753
 p    1 1.00
                0.1517                   1
 d    1 1.00
                  0.55                   1

17 0
 s    3 1.00
                 13.01   0.033498726389998
                 1.962    0.23480080117413
                0.4446     0.8136829578829
 s    1 1.00
                 0.122                   1
 p    1 1.00
                 0.727                   1

18 0
 s    3 1.00
                 13.01   0.033498726389998
                 1.962    0.23480080117413
                0.4446     0.8136829578829
 s    1 1.00
                 0.122                   1
 p    1 1.00
                 0.727                   1

19 0
 s    8 1.00
                  6665  0.00069158396281299
                  1000  0.0053257961529341
                   228   0.027060721042034
                 64.71    0.10165684614077
                 21.06     0.2745748236174
                 7.495    0.44829431892377
                 2.797    0.28490261071525
                0.5215   0.015194859206082
 s    8 1.00
                  6665  -0.00029326965268655
                  1000  -0.0023180354739745
                   228  -0.011499786038565
                 64.71  -0.046826727009787
                 21.06   -0.12846616875047
                 7.495   -0.30126627246289
                 2.797   -0.25563070233011
                0.5215      1.093793361012
 s    1 1.00
                0.1596                   1
 p    3 1.00
                 9.439   0.056979251590039
                 2.002    0.31320721150073
                0.5456    0.76037674173753
 p    1 1.00
                0.1517                   1
 d    1 1.00
                  0.55                   1

20 0
 s    3 1.00
                 13.01   0.033498726389998
                 1.962    0.23480080117413
                0.4446     0.8136829578829
 s    1 1.00
                 0.122                   1
 p    1 1.00
                 0.727                   1

21 0
 s    8 1.00
                  6665  0.00069158396281299
                  1000  0.0053257961529341
                   228   0.027060721042034
                 64.71    0.10165684614077
                 21.06     0.2745748236174
                 7.495    0.44829431892377
                 2.797    0.28490261071525
                0.5215   0.015194859206082
 s    8 1.00
                  6665  -0.00029326965268655
                  1000  -0.0023180354739745
                   228  -0.011499786038565
                 64.71  -0.046826727009787
                 21.06   -0.12846616875047
                 7.495   -0.30126627246289
                 2.797   -0.25563070233011
                0.5215      1.093793361012
 s    1 1.00
                0.1596                   1
 p    3 1.00
                 9.439   0.056979251590039
                 2.002    0.31320721150073
                0.5456    0.76037674173753
 p    1 1.00
                0.1517                   1
 d    1 1.00
                  0.55                   1

22 0
 s    3 1.00
                 13.01   0.033498726389998
                 1.962    0.23480080117413
                0.4446     0.8136829578829
 s    1 1.00
                 0.122                   1
 p    1 1.00
                 0.727                   1

23 0
 s    3 1.00
                 13.01   0.033498726389998
                 1.962    0.23480080117413
                0.4446     0.8136829578829
 s    1 1.00
                 0.122                   1
 p    1 1.00
                 0.727                   1

24 0
 s    3 1.00
                 13.01   0.033498726389998
                 1.962    0.23480080117413
                0.4446     0.8136829578829
 s    1 1.00
                 0.122                   1
 p    1 1.00
                 0.727                   1

25 0
 s    8 1.00
                  6665  0.00069158396281299
                  1000  0.0053257961529341
                   228   0.027060721042034
                 64.71    0.10165684614077
                 21.06     0.2745748236174
                 7.495    0.44829431892377
                 2.797    0.28490261071525
                0.5215   0.015194859206082
 s    8 1.00
                  6665  -0.00029326965268655
                  1000  -0.0023180354739745
                   228  -0.011499786038565
                 64.71  -0.046826727009787
                 21.06   -0.12846616875047
                 7.495   -0.30126627246289
                 2.797   -0.25563070233011
                0.5215      1.093793361012
 s    1 1.00
                0.1596                   1
 p    3 1.00
                 9.439   0.056979251590039
                 2.002    0.31320721150073
                0.5456    0.76037674173753
 p    1 1.00
                0.1517                   1
 d    1 1.00
                  0.55                   1

26 0
 s    3 1.00
                 13.01   0.033498726389998
                 1.962    0.23480080117413
                0.4446     0.8136829578829
 s    1 1.00
                 0.122                   1
 p    1 1.00
                 0.727                   1

27 0
 s    3 1.00
                 13.01   0.033498726389998
                 1.962    0.23480080117413
                0.4446     0.8136829578829
 s    1 1.00
                 0.122                   1
 p    1 1.00
                 0.727                   1

28 0
 s    8 1.00
                  6665  0.00069158396281299
                  1000  0.0053257961529341
                   228   0.027060721042034
                 64.71    0.10165684614077
                 21.06     0.2745748236174
                 7.495    0.44829431892377
                 2.797    0.28490261071525
                0.5215   0.015194859206082
 s    8 1.00
                  6665  -0.00029326965268655
                  1000  -0.0023180354739745
                   228  -0.011499786038565
                 64.71  -0.046826727009787
                 21.06   -0.12846616875047
                 7.495   -0.30126627246289
                 2.797   -0.25563070233011
                0.5215      1.093793361012
 s    1 1.00
                0.1596                   1
 p    3 1.00
                 9.439   0.056979251590039
                 2.002    0.31320721150073
                0.5456    0.76037674173753
 p    1 1.00
                0.1517                   1
 d    1 1.00
                  0.55                   1

29 0
 s    3 1.00
                 13.01   0.033498726389998
                 1.962    0.23480080117413
                0.4446     0.8136829578829
 s    1 1.00
                 0.122                   1
 p    1 1.00
                 0.727                   1

30 0
 s    3 1.00
                 13.01   0.033498726389998
                 1.962    0.23480080117413
                0.4446     0.8136829578829
 s    1 1.00
                 0.122                   1
 p    1 1.00
                 0.727                   1

31 0
 s    8 1.00
                  6665  0.00069158396281299
                  1000  0.0053257961529341
                   228   0.027060721042034
                 64.71    0.10165684614077
                 21.06     0.2745748236174
                 7.495    0.44829431892377
                 2.797    0.28490261071525
                0.5215   0.015194859206082
 s    8 1.00
                  6665  -0.00029326965268655
                  1000  -0.0023180354739745
                   228  -0.011499786038565
                 64.71  -0.046826727009787
                 21.06   -0.12846616875047
                 7.495   -0.30126627246289
                 2.797   -0.25563070233011
                0.5215      1.093793361012
 s    1 1.00
                0.1596                   1
 p    3 1.00
                 9.439   0.056979251590039
                 2.002    0.31320721150073
                0.5456    0.76037674173753
 p    1 1.00
                0.1517                   1
 d    1 1.00
                  0.55                   1

32 0
 s    3 1.00
                 13.01   0.033498726389998
                 1.962    0.23480080117413
                0.4446     0.8136829578829
 s    1 1.00
                 0.122                   1
 p    1 1.00
                 0.727                   1

33 0
 s    3 1.00
                 13.01   0.033498726389998
                 1.962    0.23480080117413
                0.4446     0.8136829578829
 s    1 1.00
                 0.122                   1
 p    1 1.00
                 0.727                   1

34 0
 s    3 1.00
                 13.01   0.033498726389998
                 1.962    0.23480080117413
                0.4446     0.8136829578829
 s    1 1.00
                 0.122                   1
 p    1 1.00
                 0.727                   1

35 0
 s    3 1.00
                 13.01   0.033498726389998
                 1.962    0.23480080117413
                0.4446     0.8136829578829
 s    1 1.00
                 0.122                   1
 p    1 1.00
                 0.727                   1

36 0
 s    3 1.00
                 13.01   0.033498726389998
                 1.962    0.23480080117413
                0.4446     0.8136829578829
 s    1 1.00
                 0.122                   1
 p    1 1.00
                 0.727                   1

37 0
 s    3 1.00
                 13.01   0.033498726389998
                 1.962    0.23480080117413
                0.4446     0.8136829578829
 s    1 1.00
                 0.122                   1
 p    1 1.00
                 0.727                   1

[5d]
[7f]
[9g]

[MO]
 Sym= A
 Ene=               0
 Spin= Alpha
 Occup=    1.00000
   1    2.7085705925464e-06
   2    3.2034311896477e-06
   3    -2.6498986374644e-05
   4    1.6730635323379e-06
   5    -1.0108767016205e-06
   6    2.3684297411087e-06
   7    7.4231458616957e-07
   8    1.4987809078417e-06
   9    1.4024117459528e-05
  10    -1.3696630955081e-06
  11    -4.9350858046037e-08
  12    8.1923619851925e-08
  13    1.601158890696e-07
  14    2.8984919002505e-08
  15    -1.6897315710858e-06
  16    4.0506305955825e-05
  17    -1.7002870081381e-07
  18    4.1993631394656e-07
  19    6.0966909083725e-06
  20    -1.1219429003831e-07
  21    -4.0888155283327e-06
  22    1.6633431389225e-07
  23    -6.3227346657733e-07
  24    -5.1552076316817e-07
  25    -6.135264852897e-06
  26    -0.00011089870151985
  27    -1.5807367292684e-06
  28    9.8750590686049e-05
  29    0.00012283977874854
  30    6.1547038941099e-05
  31    0.00015858842217932
  32    7.4336538224588e-05
  33    6.905242827072e-05
  34    -1.1413846288969e-05
  35    -2.2647552892689e-05
  36    1.1604392104153e-05
  37    5.6655958107439e-06
  38    -9.1103183800799e-06
  39    -9.7008611535798e-05
  40    -0.00060571954797101
  41    0.0011558246431966
  42    0.00070852527754177
  43    -0.00055091465588343
  44    0.00043509014923206
  45    0.0001191018525489
  46    -1.6225945464834e-05
  47    -0.00074462760323811
  48    -0.00010660680630447
  49    -2.612764898248e-05
  50    5.075667689541e-05
  51    6.8373868562391e-05
  52    -0.00013679130583015
  53    1.5422893383787e-05
  54    0.00027951129887524
  55    -6.9716222443446e-05
  56    -0.00040741388566137
  57    0.00029340808336615
  58    0.00017030470933965
  59    -0.00014602304805572
  60    9.3248765029612e-05
  61    0.00023758116984936
  62     3.54120121282e-05
  63    -2.2881415740559e-05
  64    1.7266535523397e-05
  65    -1.9116756068842e-05
  66    5.1043223569213e-05
  67    7.506468456215e-05
  68    0.0011949462885573
  69    -0.0007853214525494
  70    -0.0018672441402158
  71    0.00078488042819546
  72    0.0012517864244632
  73    -0.0024222326607236
  74    0.0014643799891102
  75    -0.00043994511657581
  76    0.00017949839103747
  77    -0.00016953401809788
  78    6.6853129545324e-05
  79    -9.3123667170835e-05
  80    0.00020560942433421
  81    -0.00024954107406981
  82    -0.00029708219458072
  83    -2.6981892201517e-05
  84    2.0533789800801e-05
  85    1.6538811465068e-05
  86    -1.1563886561186e-05
  87    3.8332523610759e-05
  88    0.00033089192670425
  89    -7.7631156072278e-05
  90    1.0427842089758e-05
  91    -1.4404531353171e-05
  92    -5.1832903060536e-05
  93    -0.00016825027327112
  94    -0.00014855107987786
  95    6.2128791958396e-06
  96    -1.2509324674176e-05
  97    -1.623044427735e-06
  98    1.3916504303485e-05
  99    4.8730656999716e-06
 100    5.8920561325989e-05
 101    3.4602084012064e-05
 102    -5.8925442369622e-06
 103    1.2109643251917e-05
 104    -2.6683873312088e-06
 105    3.7339857560276e-05
 106    -8.0944421133396e-05
 107    -2.2017266444464e-05
 108    -3.5749672754058e-05
 109    6.2231289747173e-05
 110    7.3835866662973e-05
 111    -4.9871754850712e-05
 112    -1.8272150330172e-07
 113    2.014245942527e-05
 114    7.0808750197157e-05
 115    6.1027120198017e-05
 116    -0.0028687812062623
 117    -0.0040681343513351
 118    0.0042170419216611
 119    -0.002782275144924
 120    0.0015879275759629
 121    0.0050307018714121
 122    -0.0029396847708674
 123    0.0003110180651338
 124    2.3142945698721e-06
 125    -0.00032381741613696
 126    0.00013983399167357
 127    0.00011344546091575
 128    -7.6058871495954e-05
 129    -7.2630776413626e-06
 130    4.2223706754039e-05
 131    -2.3014427923946e-06
 132    -5.2892733867479e-06
 133    2.5631864638154e-07
 134    2.134395809509e-05
 135    -6.6012955725037e-05
 136    1.0117518651075e-06
 137    5.4730441852032e-06
 138    5.3453204080097e-06
 139    6.132477107762e-06
 140    4.1620324540881e-05
 141    -5.2446843941102e-05
 142    1.1847592202099e-05
 143    -1.9625846033968e-05
 144    2.6233505219581e-05
 145    0.00015784655545693
 146    -2.3050508388962e-05
 147    -2.9005868207181e-05
 148    6.0218063235446e-07
 149    9.2734955148102e-06
 150    -8.6411976423189e-08
 151    -1.4974663387252e-06
 152    2.1028421470951e-07
 153    -0.0006003766730028
 154    -0.00014307142788823
 155    8.5773663805304e-05
 156    1.8269161228367e-05
 157    0.00016517926931087
 158    -0.00056270174485372
 159    -9.0972662578678e-05
 160    -1.2058838489056e-05
 161    -0.00013508970061428
 162    0.00013238297626098
 163     -0.00041760832915
 164    0.0022602639792915
 165     0.007122334095282
 166    -0.0051992975776055
 167    0.0030332894695296
 168    0.00094435567493875
 169    -0.0069931499120741
 170    0.0038991979227323
 171    0.0012818082793062
 172     0.001166272095165
 173    -0.0009461780188315
 174    0.00022967942801935
 175    -0.00030650935078789
 176    0.0010093394582528
 177    5.4751683280239e-05
 178    -3.1387647451392e-05
 179    -1.625132121444e-06
 180    1.5690891332758e-07
 181    -3.5605641931655e-07
 182    2.5939082499788e-06
 183    -6.9966543789634e-06
 184    -6.9300972691481e-05
 185    1.9112044243188e-05
 186    1.1299169875681e-05
 187    -1.572295594439e-05
 188    4.460194721772e-06
 189    3.2550124183605e-05
 190    -2.1980944740138e-05
 191    9.4218217447537e-07
 192    -2.1487872571499e-06
 193    3.1917410567117e-08
 194    2.6528713271355e-06
 195    2.4692161212431e-06
 196    1.824019621049e-05
 197    -4.549763464784e-06
 198    -2.2124279551237e-06
 199    1.2987950124737e-06
 200    2.088082773725e-06
 201    0.0019509756250667
 202    0.0016697185988803
 203    -5.79498159313e-05
 204    0.00014431872060197
 205    0.00017520644067824
 206    0.0024455348791627
 207    0.0021358033118318
 208    -0.00018989785696183
 209    -7.2638259823358e-05
 210    0.00014627159052534
 211    0.0013056154698506
 212    -0.016428142956023
 213    -0.016477187318168
 214       0.0292590730358
 215    -0.024499334169341
 216     0.025190169003875
 217     0.013203663762005
 218    -0.011849022797872
 219     0.014702717586507
 220    0.00034246459787176
 221    -0.0029497154850826
 222    0.0022131751399111
 223    -0.00089975814998385
 224    0.0031009997585524
 225    -2.9874861287315e-06
 226    -9.7778462244452e-06
 227    1.414217422616e-06
 228    1.9873596305768e-07
 229    -6.7334951637665e-07
 230    -1.6114547057348e-06
 231    1.2353816148989e-05
 232    6.1523581054941e-07
 233    -8.3033915204067e-07
 234    1.2405382491234e-06
 235    5.2500394384169e-06
 236    -2.689506172385e-05
 237    -1.6305138002487e-05
 238    -4.1478685483396e-07
 239    6.7804452199504e-05
 240    -1.7050736343674e-05
 241    5.4427488661619e-06
 242    5.0955745348017e-05
 243    -1.8776059019888e-05
 244    -3.2129761036967e-07
 245    -2.9268700412765e-06
 246    -1.3798461858473e-06
 247    -9.6382500210762e-07
 248    -3.8775916374075e-07
 249    0.0054728755741731
 250    0.0046227190776336
 251    0.00051612226552227
 252    -0.0004971827471358
 253    0.00035946519710651
 254    0.0076245289840739
 255    0.0055197270203456
 256    0.00066086981192796
 257    -0.00025219546433589
 258    0.00029081219886949
 259      0.99574218183286
 260    -0.035329262813678
 261    -0.034763404124367
 262    -0.024541396579461
 263     0.017611641129933
 264    -0.018282565215028
 265    -0.011462886275569