[Molden Format]
made by pyscf v[2.0.1]
[Atoms] (AU)
O   1   8     0.00000000000000     0.00000000000000    11.69764103529358
H   2   1     0.00000000000000     0.00000000000000     9.87423921339262
H   3   1    -0.05031916615174     1.78353065140343    12.07351273176025
O   4   8     0.00000000000000     0.00000000000000     2.31533471513237
C   5   6     0.00000000000000     0.00000000000000     0.00000000000000
C   6   6     2.01118073026938    -1.40227222164369    -1.50774939176400
C   7   6    -2.01249334291722     1.41331050329955    -1.50315905028694
H   8   1     3.32037363730244    -2.26721897153159    -0.13599698591495
C   9   6     3.45899267434009     0.28739631745591    -3.37437943254505
H   10   1     1.07662969841332    -2.94725144642667    -2.56541439481080
H   11   1    -2.67503415753480     0.18421555839588    -3.06194479365997
H   12   1    -1.07974048864772     3.03851734677796    -2.43674295017013
C   13   6    -4.21607110578555     2.32938802552922     0.11994162256091
H   14   1     4.24440173074564     1.93368664142019    -2.34976285512790
H   15   1     2.15020713235517     1.04714335134846    -4.81494497423699
C   16   6     5.60746363007797    -1.12419643481196    -4.70268606082550
H   17   1    -3.46838323670267     3.50951302338067     1.66946842715333
H   18   1    -5.11873485366228     0.68575958301209     1.04047743976495
C   19   6    -6.18314754751344     3.80909592987882    -1.39656589068747
H   20   1     6.93011263717176    -1.87550812453645    -3.26656317360070
C   21   6     7.06356622236532     0.52877932406334    -6.57829775293605
H   22   1     4.82318879258361    -2.78573437948532    -5.70504560381835
H   23   1    -6.91582688743803     2.61304780074712    -2.95074552451969
H   24   1    -5.26532430573853     5.45420349051338    -2.31005832200284
C   25   6    -8.39941882261433     4.73263980500213     0.21800571437956
H   26   1     7.83338371486801     2.19084139882824    -5.57093109900697
H   27   1     5.73544244039420     1.27376866537418    -8.01071492370229
C   28   6     9.21124858443101    -0.89699110072176    -7.88926949186242
H   29   1    -7.66272760055236     5.92277078003992     1.77035591474408
H   30   1    -9.31497248082589     3.08753015622020     1.12614408368786
C   31   6   -10.35481709231879     6.21833079391143    -1.30905206253246
H   32   1    10.58815905329501    -1.61074586756696    -6.49512691622620
H   33   1    10.23506248045667     0.32468009384095    -9.23072870921204
H   34   1     8.47665842847139    -2.53598436989925    -8.94921964622535
H   35   1    -9.48948872868064     7.90013588951020    -2.18823918416067
H   36   1   -11.93332513000955     6.86460487874102    -0.11255798845995
H   37   1   -11.15126291841033     5.04495968327630    -2.83849898862534
[GTO]
1 0
 s    8 1.00
                 11720  0.00070964594651845
                  1759  0.0054672722921914
                 400.8   0.027823118610189
                 113.7    0.10474773971146
                 37.03    0.28292084635691
                 13.27    0.44849523869833
                 5.025    0.27081688521277
                 1.013    0.01545029160744
 s    8 1.00
                 11720  -0.00031444341168873
                  1759  -0.0024821376810179
                 400.8  -0.012316355381583
                 113.7  -0.050538917343672
                 37.03   -0.13938490331632
                 13.27   -0.32507749481778
                 5.025   -0.22984830758785
                 1.013     1.0953793467883
 s    1 1.00
                0.3023                   1
 p    3 1.00
                  17.7   0.062679166281506
                 3.854    0.33353656587936
                 1.046    0.74123964163973
 p    1 1.00
                0.2753                   1
 d    1 1.00
                 1.185                   1

2 0
 s    3 1.00
                 13.01   0.033498726389998
                 1.962    0.23480080117413
                0.4446     0.8136829578829
 s    1 1.00
                 0.122                   1
 p    1 1.00
                 0.727                   1

3 0
 s    3 1.00
                 13.01   0.033498726389998
                 1.962    0.23480080117413
                0.4446     0.8136829578829
 s    1 1.00
                 0.122                   1
 p    1 1.00
                 0.727                   1

4 0
 s    8 1.00
                 11720  0.00070964594651845
                  1759  0.0054672722921914
                 400.8   0.027823118610189
                 113.7    0.10474773971146
                 37.03    0.28292084635691
                 13.27    0.44849523869833
                 5.025    0.27081688521277
                 1.013    0.01545029160744
 s    8 1.00
                 11720  -0.00031444341168873
                  1759  -0.0024821376810179
                 400.8  -0.012316355381583
                 113.7  -0.050538917343672
                 37.03   -0.13938490331632
                 13.27   -0.32507749481778
                 5.025   -0.22984830758785
                 1.013     1.0953793467883
 s    1 1.00
                0.3023                   1
 p    3 1.00
                  17.7   0.062679166281506
                 3.854    0.33353656587936
                 1.046    0.74123964163973
 p    1 1.00
                0.2753                   1
 d    1 1.00
                 1.185                   1

5 0
 s    8 1.00
                  6665  0.00069158396281299
                  1000  0.0053257961529341
                   228   0.027060721042034
                 64.71    0.10165684614077
                 21.06     0.2745748236174
                 7.495    0.44829431892377
                 2.797    0.28490261071525
                0.5215   0.015194859206082
 s    8 1.00
                  6665  -0.00029326965268655
                  1000  -0.0023180354739745
                   228  -0.011499786038565
                 64.71  -0.046826727009787
                 21.06   -0.12846616875047
                 7.495   -0.30126627246289
                 2.797   -0.25563070233011
                0.5215      1.093793361012
 s    1 1.00
                0.1596                   1
 p    3 1.00
                 9.439   0.056979251590039
                 2.002    0.31320721150073
                0.5456    0.76037674173753
 p    1 1.00
                0.1517                   1
 d    1 1.00
                  0.55                   1

6 0
 s    8 1.00
                  6665  0.00069158396281299
                  1000  0.0053257961529341
                   228   0.027060721042034
                 64.71    0.10165684614077
                 21.06     0.2745748236174
                 7.495    0.44829431892377
                 2.797    0.28490261071525
                0.5215   0.015194859206082
 s    8 1.00
                  6665  -0.00029326965268655
                  1000  -0.0023180354739745
                   228  -0.011499786038565
                 64.71  -0.046826727009787
                 21.06   -0.12846616875047
                 7.495   -0.30126627246289
                 2.797   -0.25563070233011
                0.5215      1.093793361012
 s    1 1.00
                0.1596                   1
 p    3 1.00
                 9.439   0.056979251590039
                 2.002    0.31320721150073
                0.5456    0.76037674173753
 p    1 1.00
                0.1517                   1
 d    1 1.00
                  0.55                   1

7 0
 s    8 1.00
                  6665  0.00069158396281299
                  1000  0.0053257961529341
                   228   0.027060721042034
                 64.71    0.10165684614077
                 21.06     0.2745748236174
                 7.495    0.44829431892377
                 2.797    0.28490261071525
                0.5215   0.015194859206082
 s    8 1.00
                  6665  -0.00029326965268655
                  1000  -0.0023180354739745
                   228  -0.011499786038565
                 64.71  -0.046826727009787
                 21.06   -0.12846616875047
                 7.495   -0.30126627246289
                 2.797   -0.25563070233011
                0.5215      1.093793361012
 s    1 1.00
                0.1596                   1
 p    3 1.00
                 9.439   0.056979251590039
                 2.002    0.31320721150073
                0.5456    0.76037674173753
 p    1 1.00
                0.1517                   1
 d    1 1.00
                  0.55                   1

8 0
 s    3 1.00
                 13.01   0.033498726389998
                 1.962    0.23480080117413
                0.4446     0.8136829578829
 s    1 1.00
                 0.122                   1
 p    1 1.00
                 0.727                   1

9 0
 s    8 1.00
                  6665  0.00069158396281299
                  1000  0.0053257961529341
                   228   0.027060721042034
                 64.71    0.10165684614077
                 21.06     0.2745748236174
                 7.495    0.44829431892377
                 2.797    0.28490261071525
                0.5215   0.015194859206082
 s    8 1.00
                  6665  -0.00029326965268655
                  1000  -0.0023180354739745
                   228  -0.011499786038565
                 64.71  -0.046826727009787
                 21.06   -0.12846616875047
                 7.495   -0.30126627246289
                 2.797   -0.25563070233011
                0.5215      1.093793361012
 s    1 1.00
                0.1596                   1
 p    3 1.00
                 9.439   0.056979251590039
                 2.002    0.31320721150073
                0.5456    0.76037674173753
 p    1 1.00
                0.1517                   1
 d    1 1.00
                  0.55                   1

10 0
 s    3 1.00
                 13.01   0.033498726389998
                 1.962    0.23480080117413
                0.4446     0.8136829578829
 s    1 1.00
                 0.122                   1
 p    1 1.00
                 0.727                   1

11 0
 s    3 1.00
                 13.01   0.033498726389998
                 1.962    0.23480080117413
                0.4446     0.8136829578829
 s    1 1.00
                 0.122                   1
 p    1 1.00
                 0.727                   1

12 0
 s    3 1.00
                 13.01   0.033498726389998
                 1.962    0.23480080117413
                0.4446     0.8136829578829
 s    1 1.00
                 0.122                   1
 p    1 1.00
                 0.727                   1

13 0
 s    8 1.00
                  6665  0.00069158396281299
                  1000  0.0053257961529341
                   228   0.027060721042034
                 64.71    0.10165684614077
                 21.06     0.2745748236174
                 7.495    0.44829431892377
                 2.797    0.28490261071525
                0.5215   0.015194859206082
 s    8 1.00
                  6665  -0.00029326965268655
                  1000  -0.0023180354739745
                   228  -0.011499786038565
                 64.71  -0.046826727009787
                 21.06   -0.12846616875047
                 7.495   -0.30126627246289
                 2.797   -0.25563070233011
                0.5215      1.093793361012
 s    1 1.00
                0.1596                   1
 p    3 1.00
                 9.439   0.056979251590039
                 2.002    0.31320721150073
                0.5456    0.76037674173753
 p    1 1.00
                0.1517                   1
 d    1 1.00
                  0.55                   1

14 0
 s    3 1.00
                 13.01   0.033498726389998
                 1.962    0.23480080117413
                0.4446     0.8136829578829
 s    1 1.00
                 0.122                   1
 p    1 1.00
                 0.727                   1

15 0
 s    3 1.00
                 13.01   0.033498726389998
                 1.962    0.23480080117413
                0.4446     0.8136829578829
 s    1 1.00
                 0.122                   1
 p    1 1.00
                 0.727                   1

16 0
 s    8 1.00
                  6665  0.00069158396281299
                  1000  0.0053257961529341
                   228   0.027060721042034
                 64.71    0.10165684614077
                 21.06     0.2745748236174
                 7.495    0.44829431892377
                 2.797    0.28490261071525
                0.5215   0.015194859206082
 s    8 1.00
                  6665  -0.00029326965268655
                  1000  -0.0023180354739745
                   228  -0.011499786038565
                 64.71  -0.046826727009787
                 21.06   -0.12846616875047
                 7.495   -0.30126627246289
                 2.797   -0.25563070233011
                0.5215      1.093793361012
 s    1 1.00
                0.1596                   1
 p    3 1.00
                 9.439   0.056979251590039
                 2.002    0.31320721150073
                0.5456    0.76037674173753
 p    1 1.00
                0.1517                   1
 d    1 1.00
                  0.55                   1

17 0
 s    3 1.00
                 13.01   0.033498726389998
                 1.962    0.23480080117413
                0.4446     0.8136829578829
 s    1 1.00
                 0.122                   1
 p    1 1.00
                 0.727                   1

18 0
 s    3 1.00
                 13.01   0.033498726389998
                 1.962    0.23480080117413
                0.4446     0.8136829578829
 s    1 1.00
                 0.122                   1
 p    1 1.00
                 0.727                   1

19 0
 s    8 1.00
                  6665  0.00069158396281299
                  1000  0.0053257961529341
                   228   0.027060721042034
                 64.71    0.10165684614077
                 21.06     0.2745748236174
                 7.495    0.44829431892377
                 2.797    0.28490261071525
                0.5215   0.015194859206082
 s    8 1.00
                  6665  -0.00029326965268655
                  1000  -0.0023180354739745
                   228  -0.011499786038565
                 64.71  -0.046826727009787
                 21.06   -0.12846616875047
                 7.495   -0.30126627246289
                 2.797   -0.25563070233011
                0.5215      1.093793361012
 s    1 1.00
                0.1596                   1
 p    3 1.00
                 9.439   0.056979251590039
                 2.002    0.31320721150073
                0.5456    0.76037674173753
 p    1 1.00
                0.1517                   1
 d    1 1.00
                  0.55                   1

20 0
 s    3 1.00
                 13.01   0.033498726389998
                 1.962    0.23480080117413
                0.4446     0.8136829578829
 s    1 1.00
                 0.122                   1
 p    1 1.00
                 0.727                   1

21 0
 s    8 1.00
                  6665  0.00069158396281299
                  1000  0.0053257961529341
                   228   0.027060721042034
                 64.71    0.10165684614077
                 21.06     0.2745748236174
                 7.495    0.44829431892377
                 2.797    0.28490261071525
                0.5215   0.015194859206082
 s    8 1.00
                  6665  -0.00029326965268655
                  1000  -0.0023180354739745
                   228  -0.011499786038565
                 64.71  -0.046826727009787
                 21.06   -0.12846616875047
                 7.495   -0.30126627246289
                 2.797   -0.25563070233011
                0.5215      1.093793361012
 s    1 1.00
                0.1596                   1
 p    3 1.00
                 9.439   0.056979251590039
                 2.002    0.31320721150073
                0.5456    0.76037674173753
 p    1 1.00
                0.1517                   1
 d    1 1.00
                  0.55                   1

22 0
 s    3 1.00
                 13.01   0.033498726389998
                 1.962    0.23480080117413
                0.4446     0.8136829578829
 s    1 1.00
                 0.122                   1
 p    1 1.00
                 0.727                   1

23 0
 s    3 1.00
                 13.01   0.033498726389998
                 1.962    0.23480080117413
                0.4446     0.8136829578829
 s    1 1.00
                 0.122                   1
 p    1 1.00
                 0.727                   1

24 0
 s    3 1.00
                 13.01   0.033498726389998
                 1.962    0.23480080117413
                0.4446     0.8136829578829
 s    1 1.00
                 0.122                   1
 p    1 1.00
                 0.727                   1

25 0
 s    8 1.00
                  6665  0.00069158396281299
                  1000  0.0053257961529341
                   228   0.027060721042034
                 64.71    0.10165684614077
                 21.06     0.2745748236174
                 7.495    0.44829431892377
                 2.797    0.28490261071525
                0.5215   0.015194859206082
 s    8 1.00
                  6665  -0.00029326965268655
                  1000  -0.0023180354739745
                   228  -0.011499786038565
                 64.71  -0.046826727009787
                 21.06   -0.12846616875047
                 7.495   -0.30126627246289
                 2.797   -0.25563070233011
                0.5215      1.093793361012
 s    1 1.00
                0.1596                   1
 p    3 1.00
                 9.439   0.056979251590039
                 2.002    0.31320721150073
                0.5456    0.76037674173753
 p    1 1.00
                0.1517                   1
 d    1 1.00
                  0.55                   1

26 0
 s    3 1.00
                 13.01   0.033498726389998
                 1.962    0.23480080117413
                0.4446     0.8136829578829
 s    1 1.00
                 0.122                   1
 p    1 1.00
                 0.727                   1

27 0
 s    3 1.00
                 13.01   0.033498726389998
                 1.962    0.23480080117413
                0.4446     0.8136829578829
 s    1 1.00
                 0.122                   1
 p    1 1.00
                 0.727                   1

28 0
 s    8 1.00
                  6665  0.00069158396281299
                  1000  0.0053257961529341
                   228   0.027060721042034
                 64.71    0.10165684614077
                 21.06     0.2745748236174
                 7.495    0.44829431892377
                 2.797    0.28490261071525
                0.5215   0.015194859206082
 s    8 1.00
                  6665  -0.00029326965268655
                  1000  -0.0023180354739745
                   228  -0.011499786038565
                 64.71  -0.046826727009787
                 21.06   -0.12846616875047
                 7.495   -0.30126627246289
                 2.797   -0.25563070233011
                0.5215      1.093793361012
 s    1 1.00
                0.1596                   1
 p    3 1.00
                 9.439   0.056979251590039
                 2.002    0.31320721150073
                0.5456    0.76037674173753
 p    1 1.00
                0.1517                   1
 d    1 1.00
                  0.55                   1

29 0
 s    3 1.00
                 13.01   0.033498726389998
                 1.962    0.23480080117413
                0.4446     0.8136829578829
 s    1 1.00
                 0.122                   1
 p    1 1.00
                 0.727                   1

30 0
 s    3 1.00
                 13.01   0.033498726389998
                 1.962    0.23480080117413
                0.4446     0.8136829578829
 s    1 1.00
                 0.122                   1
 p    1 1.00
                 0.727                   1

31 0
 s    8 1.00
                  6665  0.00069158396281299
                  1000  0.0053257961529341
                   228   0.027060721042034
                 64.71    0.10165684614077
                 21.06     0.2745748236174
                 7.495    0.44829431892377
                 2.797    0.28490261071525
                0.5215   0.015194859206082
 s    8 1.00
                  6665  -0.00029326965268655
                  1000  -0.0023180354739745
                   228  -0.011499786038565
                 64.71  -0.046826727009787
                 21.06   -0.12846616875047
                 7.495   -0.30126627246289
                 2.797   -0.25563070233011
                0.5215      1.093793361012
 s    1 1.00
                0.1596                   1
 p    3 1.00
                 9.439   0.056979251590039
                 2.002    0.31320721150073
                0.5456    0.76037674173753
 p    1 1.00
                0.1517                   1
 d    1 1.00
                  0.55                   1

32 0
 s    3 1.00
                 13.01   0.033498726389998
                 1.962    0.23480080117413
                0.4446     0.8136829578829
 s    1 1.00
                 0.122                   1
 p    1 1.00
                 0.727                   1

33 0
 s    3 1.00
                 13.01   0.033498726389998
                 1.962    0.23480080117413
                0.4446     0.8136829578829
 s    1 1.00
                 0.122                   1
 p    1 1.00
                 0.727                   1

34 0
 s    3 1.00
                 13.01   0.033498726389998
                 1.962    0.23480080117413
                0.4446     0.8136829578829
 s    1 1.00
                 0.122                   1
 p    1 1.00
                 0.727                   1

35 0
 s    3 1.00
                 13.01   0.033498726389998
                 1.962    0.23480080117413
                0.4446     0.8136829578829
 s    1 1.00
                 0.122                   1
 p    1 1.00
                 0.727                   1

36 0
 s    3 1.00
                 13.01   0.033498726389998
                 1.962    0.23480080117413
                0.4446     0.8136829578829
 s    1 1.00
                 0.122                   1
 p    1 1.00
                 0.727                   1

37 0
 s    3 1.00
                 13.01   0.033498726389998
                 1.962    0.23480080117413
                0.4446     0.8136829578829
 s    1 1.00
                 0.122                   1
 p    1 1.00
                 0.727                   1

[5d]
[7f]
[9g]

[MO]
 Sym= A
 Ene=               0
 Spin= Alpha
 Occup=    1.00000
   1    4.4609765679407e-07
   2    5.4137122352489e-07
   3    -4.3638582476482e-06
   4    -5.1556010575057e-08
   5    8.4061027970789e-08
   6    8.1626107635754e-07
   7    -8.0755370728844e-08
   8    8.4874341714869e-07
   9    3.3500441453812e-06
  10    -3.0030605790189e-07
  11    -4.5440424016915e-10
  12    2.9040824642733e-08
  13    -1.4005670423119e-08
  14    -2.4848447043136e-09
  15    -7.0317709137488e-07
  16    8.6775868083765e-06
  17    -7.3506536658434e-09
  18    -2.7423064755697e-08
  19    1.1263426821256e-06
  20    3.8001082288712e-07
  21    -2.623678696399e-06
  22    -1.1690278887935e-09
  23    5.2197699475313e-08
  24    -7.6091680704985e-08
  25    -5.4866651355119e-06
  26    -0.00010916530176014
  27     -6.5086624673e-06
  28    9.7015255591228e-05
  29    0.00012401441555043
  30    6.1705641116779e-05
  31    0.00015778750462913
  32    7.4050729158078e-05
  33    7.6277261762287e-05
  34    -1.179661331457e-05
  35    -2.2627603939636e-05
  36    1.1394682916412e-05
  37    5.6225754753519e-06
  38    -9.0307735778151e-06
  39    -9.6240567867825e-05
  40    -0.00060375780670246
  41    0.0011708834565435
  42    0.00070727312322417
  43    -0.00054717194181311
  44    0.00043431954223981
  45    0.00011767302755485
  46    -1.1624383512635e-05
  47    -0.00074270171333704
  48    -0.0001053579415119
  49    -2.6458216553623e-05
  50    5.1122568690904e-05
  51    6.8116321424506e-05
  52    -0.0001366953263022
  53    1.5649075229361e-05
  54    0.00028053351008952
  55    -6.9468183073436e-05
  56     -0.00040756863476
  57    0.0002931047382099
  58    0.00017149900518428
  59    -0.00014531447479332
  60    9.1707832018282e-05
  61    0.00023744179223794
  62    3.540333407817e-05
  63    -2.245532219903e-05
  64    1.7130279979509e-05
  65    -1.9262742020136e-05
  66    5.1137788651462e-05
  67    7.5550302581753e-05
  68    0.0011943705352051
  69    -0.00080528220966717
  70    -0.0018690687569468
  71    0.0007860770399184
  72    0.0012498764632189
  73    -0.0024206412249835
  74    0.0014639474325461
  75    -0.00045039479950252
  76    0.00017866627141102
  77    -0.00016949369469818
  78    6.6916029236036e-05
  79    -9.2529447826474e-05
  80    0.00020496150491393
  81    -0.00024827266660283
  82    -0.0002982122351116
  83    -2.702214017618e-05
  84    2.0601926072287e-05
  85    1.6579564847696e-05
  86    -1.1701370691827e-05
  87    3.7760990607746e-05
  88    0.00033263878110667
  89    -7.7142588407477e-05
  90    1.0950764658635e-05
  91    -1.5017709488698e-05
  92    -5.0852628255487e-05
  93    -0.00016807678864851
  94    -0.00014925947918554
  95    6.2677967276636e-06
  96    -1.2581695387681e-05
  97    -1.5678939916589e-06
  98    1.4006429650591e-05
  99    4.7296748365314e-06
 100    5.9125044997304e-05
 101    3.4106635676989e-05
 102    -6.0277949033423e-06
 103    1.2126637743937e-05
 104    -2.5812462384077e-06
 105    3.6755819800936e-05
 106    -8.2762994245814e-05
 107    -2.207722374844e-05
 108    -3.5718376861129e-05
 109    6.2391924570873e-05
 110    7.2513184224502e-05
 111    -5.2071910241599e-05
 112    -1.8695328584722e-07
 113    2.0199070113126e-05
 114    7.0914841103641e-05
 115    6.1431252496232e-05
 116    -0.0028644076112895
 117    -0.0040341640553152
 118     0.004219772492962
 119    -0.002782482037711
 120    0.0015840641580968
 121    0.0050324967521203
 122    -0.0029339920130207
 123    0.00029310074040285
 124    3.2961688543514e-06
 125    -0.00032429119900595
 126    0.0001399676060622
 127    0.00011243666473902
 128    -7.4816886919499e-05
 129    -7.3276329287061e-06
 130    4.1828057692265e-05
 131    -2.3388827348167e-06
 132    -5.2753502452023e-06
 133    2.7667221800884e-07
 134    2.1366002327597e-05
 135    -6.6518404320866e-05
 136    1.0101769781323e-06
 137    5.4918189510328e-06
 138    5.2895021818311e-06
 139    6.2137927623628e-06
 140    4.1932529865419e-05
 141    -5.2859868318177e-05
 142    1.1503431772609e-05
 143    -1.9558837635606e-05
 144    2.6385388308477e-05
 145    0.0001587056749875
 146    -2.2992470894264e-05
 147    -3.0078330505914e-05
 148    5.8361984568964e-07
 149    9.3806083477236e-06
 150    -1.0958323448839e-07
 151    -1.5463825498428e-06
 152    2.3008732430458e-07
 153    -0.00059848106837446
 154    -0.00014431790901233
 155    8.5798280933325e-05
 156    1.8159210241567e-05
 157    0.0001653245975996
 158    -0.00056103533076336
 159    -8.6980493477913e-05
 160    -1.1764733758173e-05
 161    -0.0001350339880602
 162    0.00013255081880181
 163    -0.00041696099053875
 164    0.0022569880264794
 165    0.0070933595844397
 166    -0.0052045179317528
 167    0.0030388850370614
 168    0.00093706654953391
 169    -0.0070052895678027
 170    0.0039096591853623
 171    0.0012629125847118
 172    0.0011645492126382
 173    -0.00094624320525939
 174    0.00022995966411659
 175    -0.00030556850274755
 176     0.001007782398474
 177    5.4849805073638e-05
 178    -3.1351156123681e-05
 179    -1.6586724634526e-06
 180    1.5128664838768e-07
 181    -3.1755404395777e-07
 182    2.6395647256964e-06
 183    -7.0571790924727e-06
 184    -7.0428796213855e-05
 185    1.9277539171741e-05
 186    1.1424747803812e-05
 187    -1.5898963474033e-05
 188    4.8093885498975e-06
 189    3.2936957797562e-05
 190    -2.2287454452231e-05
 191    9.4014243997682e-07
 192    -2.1655819404705e-06
 193    6.305505769922e-08
 194    2.6768418144733e-06
 195    2.4423294649242e-06
 196    1.8415513780908e-05
 197    -4.7364462382907e-06
 198    -2.2524905136844e-06
 199    1.2925359196854e-06
 200    2.1246045077861e-06
 201     0.001950359021087
 202    0.0016660720970811
 203    -5.8127616255055e-05
 204    0.00014432531731672
 205    0.00017525429307708
 206    0.0024454627290105
 207    0.0021323711851786
 208    -0.00019006906303966
 209    -7.252399753136e-05
 210    0.00014642362657269
 211    0.0013064992820419
 212    -0.016421046894176
 213    -0.016457103176358
 214     0.029263690088338
 215    -0.024498847698924
 216     0.025183426974736
 217     0.013204081345513
 218    -0.011839868114246
 219     0.014688942472665
 220    0.00034543407108514
 221    -0.002950611026922
 222    0.0022127808655995
 223    -0.00090148529912284
 224    0.0031036696250144
 225    -2.9894817866171e-06
 226    -9.8216496830049e-06
 227    1.4148114191069e-06
 228    1.9698424579912e-07
 229    -6.7498434967957e-07
 230    -1.6324571964466e-06
 231    1.2541061852832e-05
 232    6.2000785411327e-07
 233    -8.3600501104702e-07
 234    1.2506096329376e-06
 235    5.276472326654e-06
 236    -2.6786209462516e-05
 237    -1.6200669297555e-05
 238    -5.227709556568e-07
 239    6.7818745820996e-05
 240    -1.6952111790285e-05
 241    5.4961022930674e-06
 242    5.1102622223036e-05
 243    -1.8852470548356e-05
 244    -3.2592124597282e-07
 245    -2.9049002348329e-06
 246    -1.3765619098099e-06
 247    -9.7234809073414e-07
 248    -3.9540146910437e-07
 249    0.0054759896729767
 250    0.0046268672342855
 251    0.00051563564239151
 252    -0.00049725339489765
 253    0.00035972572967383
 254    0.0076300081817489
 255    0.0055373315034865
 256    0.00066106042269989
 257    -0.00025215214312262
 258    0.00029141014104176
 259      0.99573981864934
 260    -0.035344489754515
 261     -0.03479972190903
 262    -0.024549843114418
 263     0.017617516762038
 264    -0.018290524284345