[Molden Format]
made by pyscf v[2.0.1]
[Atoms] (AU)
O   1   8     0.00000000000000     0.00000000000000     6.40640788651141
H   2   1     0.00000000000000     0.00000000000000     4.58300606461044
H   3   1    -0.05031916615174     1.78353439551780     6.78227958297808
O   4   8     0.00000000000000     0.00000000000000     2.31533471513237
C   5   6     0.00000000000000     0.00000000000000     0.00000000000000
C   6   6     2.01118073026938    -1.40227222164369    -1.50774939176400
C   7   6    -2.01249334291722     1.41331050329955    -1.50319235519811
H   8   1     3.32037363730244    -2.26721897153159    -0.13599698591495
C   9   6     3.45899267434009     0.28739631745591    -3.37437943254505
H   10   1     1.07662969841332    -2.94725144642667    -2.56541439481080
H   11   1    -2.67503415753480     0.18421555839588    -3.06194479365997
H   12   1    -1.08005520873877     3.03851734677796    -2.43674295017013
C   13   6    -4.21607110578555     2.32938802552922     0.11994192435017
H   14   1     4.24440173074564     1.93368664387684    -2.34976285512790
H   15   1     2.18907033049676     1.04714335134846    -4.81494497423699
C   16   6     5.60746363007797    -1.12419643481196    -4.70268606082550
H   17   1    -3.46838323670267     3.50951302338067     1.66946842715333
H   18   1    -5.11873485366228     0.68575958301209     1.04047743976495
C   19   6    -6.18314754751344     3.80909592987882    -1.39656589068747
H   20   1     6.93011263717176    -1.87550812453645    -3.26656317360070
C   21   6     7.10306991577580     0.52877932406334    -6.57829775293605
H   22   1     4.82318879258361    -2.78573437948532    -5.70504560381835
H   23   1    -6.91582688743803     2.61304780074712    -2.95074552451969
H   24   1    -5.26532430573853     5.45420349051338    -2.31005832200284
C   25   6    -8.39941882261433     4.73263980500213     0.21800571437956
H   26   1     7.83338371486801     2.19084139882824    -5.57093109900697
H   27   1     5.73544244039420     1.27376866537418    -8.01071492370229
C   28   6     9.21124858443101    -0.89699110072176    -7.88926949186242
H   29   1    -7.66272760055236     5.92277078003992     1.77035591474408
H   30   1    -9.31497248082589     3.08753015622020     1.12614408368786
C   31   6   -10.35481709231879     6.21833079391143    -1.30905206253246
H   32   1    10.58815905329501    -1.61099162890610    -6.52093739071026
H   33   1    10.23506248045667     0.32468009384095    -9.23072870921204
H   34   1     8.47665842847139    -2.53598436989925    -8.94921964622535
H   35   1    -9.48948872868064     7.90013588951020    -2.18823918416067
H   36   1   -11.93332774482359     6.86460487874102    -0.11255798845995
H   37   1   -11.15126291841033     5.04495968327630    -2.83849898862534
[GTO]
1 0
 s    8 1.00
                 11720  0.00070964594651845
                  1759  0.0054672722921914
                 400.8   0.027823118610189
                 113.7    0.10474773971146
                 37.03    0.28292084635691
                 13.27    0.44849523869833
                 5.025    0.27081688521277
                 1.013    0.01545029160744
 s    8 1.00
                 11720  -0.00031444341168873
                  1759  -0.0024821376810179
                 400.8  -0.012316355381583
                 113.7  -0.050538917343672
                 37.03   -0.13938490331632
                 13.27   -0.32507749481778
                 5.025   -0.22984830758785
                 1.013     1.0953793467883
 s    1 1.00
                0.3023                   1
 p    3 1.00
                  17.7   0.062679166281506
                 3.854    0.33353656587936
                 1.046    0.74123964163973
 p    1 1.00
                0.2753                   1
 d    1 1.00
                 1.185                   1

2 0
 s    3 1.00
                 13.01   0.033498726389998
                 1.962    0.23480080117413
                0.4446     0.8136829578829
 s    1 1.00
                 0.122                   1
 p    1 1.00
                 0.727                   1

3 0
 s    3 1.00
                 13.01   0.033498726389998
                 1.962    0.23480080117413
                0.4446     0.8136829578829
 s    1 1.00
                 0.122                   1
 p    1 1.00
                 0.727                   1

4 0
 s    8 1.00
                 11720  0.00070964594651845
                  1759  0.0054672722921914
                 400.8   0.027823118610189
                 113.7    0.10474773971146
                 37.03    0.28292084635691
                 13.27    0.44849523869833
                 5.025    0.27081688521277
                 1.013    0.01545029160744
 s    8 1.00
                 11720  -0.00031444341168873
                  1759  -0.0024821376810179
                 400.8  -0.012316355381583
                 113.7  -0.050538917343672
                 37.03   -0.13938490331632
                 13.27   -0.32507749481778
                 5.025   -0.22984830758785
                 1.013     1.0953793467883
 s    1 1.00
                0.3023                   1
 p    3 1.00
                  17.7   0.062679166281506
                 3.854    0.33353656587936
                 1.046    0.74123964163973
 p    1 1.00
                0.2753                   1
 d    1 1.00
                 1.185                   1

5 0
 s    8 1.00
                  6665  0.00069158396281299
                  1000  0.0053257961529341
                   228   0.027060721042034
                 64.71    0.10165684614077
                 21.06     0.2745748236174
                 7.495    0.44829431892377
                 2.797    0.28490261071525
                0.5215   0.015194859206082
 s    8 1.00
                  6665  -0.00029326965268655
                  1000  -0.0023180354739745
                   228  -0.011499786038565
                 64.71  -0.046826727009787
                 21.06   -0.12846616875047
                 7.495   -0.30126627246289
                 2.797   -0.25563070233011
                0.5215      1.093793361012
 s    1 1.00
                0.1596                   1
 p    3 1.00
                 9.439   0.056979251590039
                 2.002    0.31320721150073
                0.5456    0.76037674173753
 p    1 1.00
                0.1517                   1
 d    1 1.00
                  0.55                   1

6 0
 s    8 1.00
                  6665  0.00069158396281299
                  1000  0.0053257961529341
                   228   0.027060721042034
                 64.71    0.10165684614077
                 21.06     0.2745748236174
                 7.495    0.44829431892377
                 2.797    0.28490261071525
                0.5215   0.015194859206082
 s    8 1.00
                  6665  -0.00029326965268655
                  1000  -0.0023180354739745
                   228  -0.011499786038565
                 64.71  -0.046826727009787
                 21.06   -0.12846616875047
                 7.495   -0.30126627246289
                 2.797   -0.25563070233011
                0.5215      1.093793361012
 s    1 1.00
                0.1596                   1
 p    3 1.00
                 9.439   0.056979251590039
                 2.002    0.31320721150073
                0.5456    0.76037674173753
 p    1 1.00
                0.1517                   1
 d    1 1.00
                  0.55                   1

7 0
 s    8 1.00
                  6665  0.00069158396281299
                  1000  0.0053257961529341
                   228   0.027060721042034
                 64.71    0.10165684614077
                 21.06     0.2745748236174
                 7.495    0.44829431892377
                 2.797    0.28490261071525
                0.5215   0.015194859206082
 s    8 1.00
                  6665  -0.00029326965268655
                  1000  -0.0023180354739745
                   228  -0.011499786038565
                 64.71  -0.046826727009787
                 21.06   -0.12846616875047
                 7.495   -0.30126627246289
                 2.797   -0.25563070233011
                0.5215      1.093793361012
 s    1 1.00
                0.1596                   1
 p    3 1.00
                 9.439   0.056979251590039
                 2.002    0.31320721150073
                0.5456    0.76037674173753
 p    1 1.00
                0.1517                   1
 d    1 1.00
                  0.55                   1

8 0
 s    3 1.00
                 13.01   0.033498726389998
                 1.962    0.23480080117413
                0.4446     0.8136829578829
 s    1 1.00
                 0.122                   1
 p    1 1.00
                 0.727                   1

9 0
 s    8 1.00
                  6665  0.00069158396281299
                  1000  0.0053257961529341
                   228   0.027060721042034
                 64.71    0.10165684614077
                 21.06     0.2745748236174
                 7.495    0.44829431892377
                 2.797    0.28490261071525
                0.5215   0.015194859206082
 s    8 1.00
                  6665  -0.00029326965268655
                  1000  -0.0023180354739745
                   228  -0.011499786038565
                 64.71  -0.046826727009787
                 21.06   -0.12846616875047
                 7.495   -0.30126627246289
                 2.797   -0.25563070233011
                0.5215      1.093793361012
 s    1 1.00
                0.1596                   1
 p    3 1.00
                 9.439   0.056979251590039
                 2.002    0.31320721150073
                0.5456    0.76037674173753
 p    1 1.00
                0.1517                   1
 d    1 1.00
                  0.55                   1

10 0
 s    3 1.00
                 13.01   0.033498726389998
                 1.962    0.23480080117413
                0.4446     0.8136829578829
 s    1 1.00
                 0.122                   1
 p    1 1.00
                 0.727                   1

11 0
 s    3 1.00
                 13.01   0.033498726389998
                 1.962    0.23480080117413
                0.4446     0.8136829578829
 s    1 1.00
                 0.122                   1
 p    1 1.00
                 0.727                   1

12 0
 s    3 1.00
                 13.01   0.033498726389998
                 1.962    0.23480080117413
                0.4446     0.8136829578829
 s    1 1.00
                 0.122                   1
 p    1 1.00
                 0.727                   1

13 0
 s    8 1.00
                  6665  0.00069158396281299
                  1000  0.0053257961529341
                   228   0.027060721042034
                 64.71    0.10165684614077
                 21.06     0.2745748236174
                 7.495    0.44829431892377
                 2.797    0.28490261071525
                0.5215   0.015194859206082
 s    8 1.00
                  6665  -0.00029326965268655
                  1000  -0.0023180354739745
                   228  -0.011499786038565
                 64.71  -0.046826727009787
                 21.06   -0.12846616875047
                 7.495   -0.30126627246289
                 2.797   -0.25563070233011
                0.5215      1.093793361012
 s    1 1.00
                0.1596                   1
 p    3 1.00
                 9.439   0.056979251590039
                 2.002    0.31320721150073
                0.5456    0.76037674173753
 p    1 1.00
                0.1517                   1
 d    1 1.00
                  0.55                   1

14 0
 s    3 1.00
                 13.01   0.033498726389998
                 1.962    0.23480080117413
                0.4446     0.8136829578829
 s    1 1.00
                 0.122                   1
 p    1 1.00
                 0.727                   1

15 0
 s    3 1.00
                 13.01   0.033498726389998
                 1.962    0.23480080117413
                0.4446     0.8136829578829
 s    1 1.00
                 0.122                   1
 p    1 1.00
                 0.727                   1

16 0
 s    8 1.00
                  6665  0.00069158396281299
                  1000  0.0053257961529341
                   228   0.027060721042034
                 64.71    0.10165684614077
                 21.06     0.2745748236174
                 7.495    0.44829431892377
                 2.797    0.28490261071525
                0.5215   0.015194859206082
 s    8 1.00
                  6665  -0.00029326965268655
                  1000  -0.0023180354739745
                   228  -0.011499786038565
                 64.71  -0.046826727009787
                 21.06   -0.12846616875047
                 7.495   -0.30126627246289
                 2.797   -0.25563070233011
                0.5215      1.093793361012
 s    1 1.00
                0.1596                   1
 p    3 1.00
                 9.439   0.056979251590039
                 2.002    0.31320721150073
                0.5456    0.76037674173753
 p    1 1.00
                0.1517                   1
 d    1 1.00
                  0.55                   1

17 0
 s    3 1.00
                 13.01   0.033498726389998
                 1.962    0.23480080117413
                0.4446     0.8136829578829
 s    1 1.00
                 0.122                   1
 p    1 1.00
                 0.727                   1

18 0
 s    3 1.00
                 13.01   0.033498726389998
                 1.962    0.23480080117413
                0.4446     0.8136829578829
 s    1 1.00
                 0.122                   1
 p    1 1.00
                 0.727                   1

19 0
 s    8 1.00
                  6665  0.00069158396281299
                  1000  0.0053257961529341
                   228   0.027060721042034
                 64.71    0.10165684614077
                 21.06     0.2745748236174
                 7.495    0.44829431892377
                 2.797    0.28490261071525
                0.5215   0.015194859206082
 s    8 1.00
                  6665  -0.00029326965268655
                  1000  -0.0023180354739745
                   228  -0.011499786038565
                 64.71  -0.046826727009787
                 21.06   -0.12846616875047
                 7.495   -0.30126627246289
                 2.797   -0.25563070233011
                0.5215      1.093793361012
 s    1 1.00
                0.1596                   1
 p    3 1.00
                 9.439   0.056979251590039
                 2.002    0.31320721150073
                0.5456    0.76037674173753
 p    1 1.00
                0.1517                   1
 d    1 1.00
                  0.55                   1

20 0
 s    3 1.00
                 13.01   0.033498726389998
                 1.962    0.23480080117413
                0.4446     0.8136829578829
 s    1 1.00
                 0.122                   1
 p    1 1.00
                 0.727                   1

21 0
 s    8 1.00
                  6665  0.00069158396281299
                  1000  0.0053257961529341
                   228   0.027060721042034
                 64.71    0.10165684614077
                 21.06     0.2745748236174
                 7.495    0.44829431892377
                 2.797    0.28490261071525
                0.5215   0.015194859206082
 s    8 1.00
                  6665  -0.00029326965268655
                  1000  -0.0023180354739745
                   228  -0.011499786038565
                 64.71  -0.046826727009787
                 21.06   -0.12846616875047
                 7.495   -0.30126627246289
                 2.797   -0.25563070233011
                0.5215      1.093793361012
 s    1 1.00
                0.1596                   1
 p    3 1.00
                 9.439   0.056979251590039
                 2.002    0.31320721150073
                0.5456    0.76037674173753
 p    1 1.00
                0.1517                   1
 d    1 1.00
                  0.55                   1

22 0
 s    3 1.00
                 13.01   0.033498726389998
                 1.962    0.23480080117413
                0.4446     0.8136829578829
 s    1 1.00
                 0.122                   1
 p    1 1.00
                 0.727                   1

23 0
 s    3 1.00
                 13.01   0.033498726389998
                 1.962    0.23480080117413
                0.4446     0.8136829578829
 s    1 1.00
                 0.122                   1
 p    1 1.00
                 0.727                   1

24 0
 s    3 1.00
                 13.01   0.033498726389998
                 1.962    0.23480080117413
                0.4446     0.8136829578829
 s    1 1.00
                 0.122                   1
 p    1 1.00
                 0.727                   1

25 0
 s    8 1.00
                  6665  0.00069158396281299
                  1000  0.0053257961529341
                   228   0.027060721042034
                 64.71    0.10165684614077
                 21.06     0.2745748236174
                 7.495    0.44829431892377
                 2.797    0.28490261071525
                0.5215   0.015194859206082
 s    8 1.00
                  6665  -0.00029326965268655
                  1000  -0.0023180354739745
                   228  -0.011499786038565
                 64.71  -0.046826727009787
                 21.06   -0.12846616875047
                 7.495   -0.30126627246289
                 2.797   -0.25563070233011
                0.5215      1.093793361012
 s    1 1.00
                0.1596                   1
 p    3 1.00
                 9.439   0.056979251590039
                 2.002    0.31320721150073
                0.5456    0.76037674173753
 p    1 1.00
                0.1517                   1
 d    1 1.00
                  0.55                   1

26 0
 s    3 1.00
                 13.01   0.033498726389998
                 1.962    0.23480080117413
                0.4446     0.8136829578829
 s    1 1.00
                 0.122                   1
 p    1 1.00
                 0.727                   1

27 0
 s    3 1.00
                 13.01   0.033498726389998
                 1.962    0.23480080117413
                0.4446     0.8136829578829
 s    1 1.00
                 0.122                   1
 p    1 1.00
                 0.727                   1

28 0
 s    8 1.00
                  6665  0.00069158396281299
                  1000  0.0053257961529341
                   228   0.027060721042034
                 64.71    0.10165684614077
                 21.06     0.2745748236174
                 7.495    0.44829431892377
                 2.797    0.28490261071525
                0.5215   0.015194859206082
 s    8 1.00
                  6665  -0.00029326965268655
                  1000  -0.0023180354739745
                   228  -0.011499786038565
                 64.71  -0.046826727009787
                 21.06   -0.12846616875047
                 7.495   -0.30126627246289
                 2.797   -0.25563070233011
                0.5215      1.093793361012
 s    1 1.00
                0.1596                   1
 p    3 1.00
                 9.439   0.056979251590039
                 2.002    0.31320721150073
                0.5456    0.76037674173753
 p    1 1.00
                0.1517                   1
 d    1 1.00
                  0.55                   1

29 0
 s    3 1.00
                 13.01   0.033498726389998
                 1.962    0.23480080117413
                0.4446     0.8136829578829
 s    1 1.00
                 0.122                   1
 p    1 1.00
                 0.727                   1

30 0
 s    3 1.00
                 13.01   0.033498726389998
                 1.962    0.23480080117413
                0.4446     0.8136829578829
 s    1 1.00
                 0.122                   1
 p    1 1.00
                 0.727                   1

31 0
 s    8 1.00
                  6665  0.00069158396281299
                  1000  0.0053257961529341
                   228   0.027060721042034
                 64.71    0.10165684614077
                 21.06     0.2745748236174
                 7.495    0.44829431892377
                 2.797    0.28490261071525
                0.5215   0.015194859206082
 s    8 1.00
                  6665  -0.00029326965268655
                  1000  -0.0023180354739745
                   228  -0.011499786038565
                 64.71  -0.046826727009787
                 21.06   -0.12846616875047
                 7.495   -0.30126627246289
                 2.797   -0.25563070233011
                0.5215      1.093793361012
 s    1 1.00
                0.1596                   1
 p    3 1.00
                 9.439   0.056979251590039
                 2.002    0.31320721150073
                0.5456    0.76037674173753
 p    1 1.00
                0.1517                   1
 d    1 1.00
                  0.55                   1

32 0
 s    3 1.00
                 13.01   0.033498726389998
                 1.962    0.23480080117413
                0.4446     0.8136829578829
 s    1 1.00
                 0.122                   1
 p    1 1.00
                 0.727                   1

33 0
 s    3 1.00
                 13.01   0.033498726389998
                 1.962    0.23480080117413
                0.4446     0.8136829578829
 s    1 1.00
                 0.122                   1
 p    1 1.00
                 0.727                   1

34 0
 s    3 1.00
                 13.01   0.033498726389998
                 1.962    0.23480080117413
                0.4446     0.8136829578829
 s    1 1.00
                 0.122                   1
 p    1 1.00
                 0.727                   1

35 0
 s    3 1.00
                 13.01   0.033498726389998
                 1.962    0.23480080117413
                0.4446     0.8136829578829
 s    1 1.00
                 0.122                   1
 p    1 1.00
                 0.727                   1

36 0
 s    3 1.00
                 13.01   0.033498726389998
                 1.962    0.23480080117413
                0.4446     0.8136829578829
 s    1 1.00
                 0.122                   1
 p    1 1.00
                 0.727                   1

37 0
 s    3 1.00
                 13.01   0.033498726389998
                 1.962    0.23480080117413
                0.4446     0.8136829578829
 s    1 1.00
                 0.122                   1
 p    1 1.00
                 0.727                   1

[5d]
[7f]
[9g]

[MO]
 Sym= A
 Ene=               0
 Spin= Alpha
 Occup=    1.00000
   1    1.3107721721345e-05
   2    1.8550620767305e-05
   3    -9.4890133638079e-05
   4    4.394231362788e-05
   5    -3.4895748473631e-05
   6    3.7187572486781e-05
   7    2.5637987018799e-05
   8    -1.7025289064765e-05
   9    4.8572999723778e-05
  10    -4.1703455051915e-06
  11    -2.3035874526822e-06
  12    1.1911230335371e-06
  13    1.9286905010511e-06
  14    4.5835940832169e-07
  15    -1.8703412843637e-05
  16    0.0001405563290185
  17    -1.4960762255577e-05
  18    1.2090305663018e-05
  19    1.1159862775748e-05
  20    -2.7472469190561e-05
  21    2.9739410086095e-05
  22    2.160311832104e-06
  23    -4.32451467688e-06
  24    -2.046079555201e-07
  25    -8.5277476450521e-06
  26    -0.00010915231797218
  27    4.6201782287016e-05
  28    0.00010706678627942
  29    0.00011542624106892
  30    8.0377598705778e-05
  31    0.00017768811529995
  32    6.5849995215484e-05
  33    1.7590592227506e-05
  34    -6.8909740597936e-06
  35    -2.163872739673e-05
  36    1.3867662888587e-05
  37    6.0401535894048e-06
  38    -9.7475619375965e-06
  39    -0.00010619971792535
  40    -0.00063076587836188
  41    0.0010793898064152
  42    0.00071537729479375
  43    -0.00058238969263704
  44    0.00042955883468624
  45    7.6245853084962e-05
  46    -1.6609394708405e-05
  47    -0.00082395581576449
  48    -0.00011841762991996
  49    -2.4040726169181e-05
  50    4.7770121467793e-05
  51    7.1180381908769e-05
  52    -0.00014039762723212
  53    1.2524155589625e-05
  54    0.00027251229521728
  55    -5.5624623211056e-05
  56    -0.00040845771492381
  57    0.00029752154219427
  58    0.00016365224267386
  59    -0.00013855129694906
  60    9.8927200513768e-05
  61    0.00027658873466378
  62    3.7587245591549e-05
  63    -2.5492604200626e-05
  64    1.801237281837e-05
  65    -1.8145289356757e-05
  66    5.1277900251183e-05
  67    7.4911211064381e-05
  68    0.0012068374189898
  69    -0.00072926181830829
  70    -0.0018493587218971
  71    0.00077494578820278
  72    0.0012646261183884
  73    -0.0024569306678222
  74    0.0014802275504226
  75    -0.00037947261300938
  76    0.0001866470038139
  77    -0.00017117604089099
  78    6.5952234820719e-05
  79    -9.8350077726718e-05
  80    0.00021288794979723
  81    -0.00026074660051994
  82    -0.00030880220913654
  83    -2.6771987222307e-05
  84    2.0164949551187e-05
  85    1.7803205498409e-05
  86    -1.0892788608017e-05
  87    4.0926180055262e-05
  88    0.00033033701139386
  89    -7.8404319787957e-05
  90    6.7521991923107e-06
  91    -7.884591563898e-06
  92    -6.1265197240934e-05
  93    -0.00018315550511684
  94    -0.00015179935322836
  95    5.4805179889426e-06
  96    -1.2381838088579e-05
  97    -1.7451432052778e-06
  98    1.3498825839286e-05
  99    6.5760569628613e-06
 100    5.766371653947e-05
 101    4.1088261040989e-05
 102    -5.0440958014087e-06
 103    1.2547274492328e-05
 104    -4.9301721133709e-06
 105    4.3113427079131e-05
 106    -6.7140878542778e-05
 107    -2.0818090763196e-05
 108    -3.5591315779599e-05
 109    6.1202431093888e-05
 110    8.7695291615149e-05
 111    -2.8801480539811e-05
 112    2.9027908542231e-07
 113    1.9126686851302e-05
 114    6.9726684046177e-05
 115    5.4730263840168e-05
 116    -0.0028978270197469
 117    -0.0041962896521266
 118    0.0041889731635976
 119    -0.0027741278531422
 120      0.00162725251726
 121    0.0050114323621409
 122    -0.0029414336748834
 123    0.0004212991891037
 124    -3.8976867146441e-06
 125    -0.00032033781053715
 126    0.00013969603408328
 127    0.00011837642740126
 128    -8.4263096366828e-05
 129    -4.5288486173759e-06
 130    5.2489181597254e-05
 131    -2.1561113209098e-06
 132    -5.5279410605109e-06
 133    8.0369855971393e-08
 134    1.8454719633821e-05
 135    -6.5207277470428e-05
 136    1.1383396698463e-06
 137    5.9935878781359e-06
 138    6.7847933744897e-06
 139    6.3513681306569e-06
 140    4.1395557702574e-05
 141    -6.0389626341174e-05
 142    1.335227485094e-05
 143    -2.0052078634224e-05
 144    2.5094500207765e-05
 145    0.00015712178618591
 146    -2.4561851931666e-05
 147    -2.1057220676902e-05
 148    1.0507111352906e-06
 149    8.5065006649552e-06
 150    4.1707560880862e-07
 151    -1.7418493229868e-06
 152    2.9658351942989e-07
 153    -0.00060045492273029
 154    -0.00019249014209334
 155    8.5785426873651e-05
 156    2.0835436778233e-05
 157    0.00016685928222533
 158    -0.0005629114649017
 159    -0.00011965873928371
 160    -1.3728659052273e-05
 161    -0.00013550337332784
 162    0.00013194023701418
 163    -0.00041982463592015
 164    0.0022816554807433
 165    0.0072647044503668
 166    -0.0051757926856063
 167    0.0030074988351813
 168    0.00098197862541707
 169    -0.0069625751953646
 170    0.0038500543123004
 171    0.0013902644866182
 172    0.0011772778253745
 173    -0.00094675832824512
 174    0.00022834005779123
 175    -0.00031231709829738
 176    0.0010196923929102
 177    5.3831923329944e-05
 178    -3.152752138585e-05
 179    -1.6869252892766e-06
 180    2.1409349617301e-07
 181    -6.8897916179485e-07
 182    2.0129052256885e-06
 183    -7.0737548410836e-06
 184    -5.9003829633985e-05
 185    1.8324822690213e-05
 186    1.0722543423436e-05
 187    -1.5153520420314e-05
 188    1.2969386851718e-06
 189    3.0637152168883e-05
 190    -1.9795389621024e-05
 191    9.2470686118671e-07
 192    -2.1227629188445e-06
 193    -1.1250408714241e-07
 194    2.5893656052449e-06
 195    2.7931063443272e-06
 196    1.8334398192841e-05
 197    -1.6368403525604e-06
 198    -2.0414825220714e-06
 199    1.4080361487248e-06
 200    1.8619519018662e-06
 201     0.001958727886713
 202    0.0016966032787276
 203    -5.6048049365116e-05
 204    0.00014451532961073
 205    0.00017443202548493
 206    0.0024499291668321
 207    0.0021643952894011
 208    -0.00018849900354899
 209    -7.4033312958285e-05
 210    0.00014488392197124
 211     0.001303223325062
 212    -0.016459593033854
 213    -0.016568696399859
 214     0.029239332474361
 215    -0.024495051031118
 216     0.025236712729768
 217     0.013176314437541
 218    -0.011849999402318
 219     0.014769967283533
 220    0.00032593876897083
 221    -0.0029477230789323
 222    0.0022159286806212
 223    -0.00089325166892887
 224    0.0030877557689131
 225    -3.37254658077e-06
 226    -1.0093332104954e-05
 227    1.4979581971948e-06
 228    2.7356540293133e-07
 229    -6.2542470589469e-07
 230    -1.9248170122319e-06
 231    1.0273171436619e-05
 232    5.0393905350817e-07
 233    -8.0450855549071e-07
 234    1.012255860356e-06
 235    5.2311887793409e-06
 236    -2.7758366458645e-05
 237    -1.671445028889e-05
 238    -2.937858077289e-07
 239    6.8366448110244e-05
 240    -1.8548963864203e-05
 241    5.4806443575695e-06
 242    5.065378486521e-05
 243    -1.8837875010872e-05
 244    -3.0064235299208e-07
 245    -3.0698412345147e-06
 246    -1.3219691446147e-06
 247    -1.033358879693e-06
 248    -2.3182010415698e-07
 249    0.0054603001313932
 250    0.0045741405274903
 251    0.00051649335320167
 252    -0.00049624015055312
 253    0.00035677795768189
 254    0.0076046332840242
 255     0.005456530528405
 256    0.0006607403969889
 257    -0.00025257974478543
 258    0.00028799957128442
 259      0.99575064871008
 260    -0.035272170401435
 261    -0.034643616102447
 262    -0.024511276621079
 263     0.017591115901405
 264     -0.01825381282278