[Molden Format]
made by pyscf v[2.0.1]
[Atoms] (AU)
O   1   8     0.00000000000000     0.00000000000000    11.69764103529358
H   2   1     0.00000000000000     0.00000000000000     9.87423921339262
H   3   1    -0.05031916615174     1.78353065140343    12.07351273176025
O   4   8     0.00000000000000     0.00000000000000     2.31533471513237
C   5   6     0.00000000000000     0.00000000000000     0.00000000000000
C   6   6     2.01118073026938    -1.40227222164369    -1.50774939176400
C   7   6    -2.01249334291722     1.41331050329955    -1.50315905028694
H   8   1     3.32037363730244    -2.26721897153159    -0.13599698591495
C   9   6     3.45899267434009     0.28739631745591    -3.37437943254505
H   10   1     1.07662969841332    -2.94725144642667    -2.56541439481080
H   11   1    -2.67503415753480     0.18421555839588    -3.06194479365997
H   12   1    -1.07974048864772     3.03851734677796    -2.43674295017013
C   13   6    -4.21607110578555     2.32938802552922     0.11994162256091
H   14   1     4.24440173074564     1.93368664142019    -2.34976285512790
H   15   1     2.15020713235517     1.04714335134846    -4.81494497423699
C   16   6     5.60746363007797    -1.12419643481196    -4.70268606082550
H   17   1    -3.46838323670267     3.50951302338067     1.66946842715333
H   18   1    -5.11873485366228     0.68575958301209     1.04047743976495
C   19   6    -6.18314754751344     3.80909592987882    -1.39656589068747
H   20   1     6.93011263717176    -1.87550812453645    -3.26656317360070
C   21   6     7.06356622236532     0.52877932406334    -6.57829775293605
H   22   1     4.82318879258361    -2.78573437948532    -5.70504560381835
H   23   1    -6.91582688743803     2.61304780074712    -2.95074552451969
H   24   1    -5.26532430573853     5.45420349051338    -2.31005832200284
C   25   6    -8.39941882261433     4.73263980500213     0.21800571437956
H   26   1     7.83338371486801     2.19084139882824    -5.57093109900697
H   27   1     5.73544244039420     1.27376866537418    -8.01071492370229
C   28   6     9.21124858443101    -0.89699110072176    -7.88926949186242
H   29   1    -7.66272760055236     5.92277078003992     1.77035591474408
H   30   1    -9.31497248082589     3.08753015622020     1.12614408368786
C   31   6   -10.35481709231879     6.21833079391143    -1.30905206253246
H   32   1    10.58815905329501    -1.61074586756696    -6.49512691622620
H   33   1    10.23506248045667     0.32468009384095    -9.23072870921204
H   34   1     8.47665842847139    -2.53598436989925    -8.94921964622535
H   35   1    -9.48948872868064     7.90013588951020    -2.18823918416067
H   36   1   -11.93332513000955     6.86460487874102    -0.11255798845995
H   37   1   -11.15126291841033     5.04495968327630    -2.83849898862534
[GTO]
1 0
 s    8 1.00
                 11720  0.00070964594651845
                  1759  0.0054672722921914
                 400.8   0.027823118610189
                 113.7    0.10474773971146
                 37.03    0.28292084635691
                 13.27    0.44849523869833
                 5.025    0.27081688521277
                 1.013    0.01545029160744
 s    8 1.00
                 11720  -0.00031444341168873
                  1759  -0.0024821376810179
                 400.8  -0.012316355381583
                 113.7  -0.050538917343672
                 37.03   -0.13938490331632
                 13.27   -0.32507749481778
                 5.025   -0.22984830758785
                 1.013     1.0953793467883
 s    1 1.00
                0.3023                   1
 p    3 1.00
                  17.7   0.062679166281506
                 3.854    0.33353656587936
                 1.046    0.74123964163973
 p    1 1.00
                0.2753                   1
 d    1 1.00
                 1.185                   1

2 0
 s    3 1.00
                 13.01   0.033498726389998
                 1.962    0.23480080117413
                0.4446     0.8136829578829
 s    1 1.00
                 0.122                   1
 p    1 1.00
                 0.727                   1

3 0
 s    3 1.00
                 13.01   0.033498726389998
                 1.962    0.23480080117413
                0.4446     0.8136829578829
 s    1 1.00
                 0.122                   1
 p    1 1.00
                 0.727                   1

4 0
 s    8 1.00
                 11720  0.00070964594651845
                  1759  0.0054672722921914
                 400.8   0.027823118610189
                 113.7    0.10474773971146
                 37.03    0.28292084635691
                 13.27    0.44849523869833
                 5.025    0.27081688521277
                 1.013    0.01545029160744
 s    8 1.00
                 11720  -0.00031444341168873
                  1759  -0.0024821376810179
                 400.8  -0.012316355381583
                 113.7  -0.050538917343672
                 37.03   -0.13938490331632
                 13.27   -0.32507749481778
                 5.025   -0.22984830758785
                 1.013     1.0953793467883
 s    1 1.00
                0.3023                   1
 p    3 1.00
                  17.7   0.062679166281506
                 3.854    0.33353656587936
                 1.046    0.74123964163973
 p    1 1.00
                0.2753                   1
 d    1 1.00
                 1.185                   1

5 0
 s    8 1.00
                  6665  0.00069158396281299
                  1000  0.0053257961529341
                   228   0.027060721042034
                 64.71    0.10165684614077
                 21.06     0.2745748236174
                 7.495    0.44829431892377
                 2.797    0.28490261071525
                0.5215   0.015194859206082
 s    8 1.00
                  6665  -0.00029326965268655
                  1000  -0.0023180354739745
                   228  -0.011499786038565
                 64.71  -0.046826727009787
                 21.06   -0.12846616875047
                 7.495   -0.30126627246289
                 2.797   -0.25563070233011
                0.5215      1.093793361012
 s    1 1.00
                0.1596                   1
 p    3 1.00
                 9.439   0.056979251590039
                 2.002    0.31320721150073
                0.5456    0.76037674173753
 p    1 1.00
                0.1517                   1
 d    1 1.00
                  0.55                   1

6 0
 s    8 1.00
                  6665  0.00069158396281299
                  1000  0.0053257961529341
                   228   0.027060721042034
                 64.71    0.10165684614077
                 21.06     0.2745748236174
                 7.495    0.44829431892377
                 2.797    0.28490261071525
                0.5215   0.015194859206082
 s    8 1.00
                  6665  -0.00029326965268655
                  1000  -0.0023180354739745
                   228  -0.011499786038565
                 64.71  -0.046826727009787
                 21.06   -0.12846616875047
                 7.495   -0.30126627246289
                 2.797   -0.25563070233011
                0.5215      1.093793361012
 s    1 1.00
                0.1596                   1
 p    3 1.00
                 9.439   0.056979251590039
                 2.002    0.31320721150073
                0.5456    0.76037674173753
 p    1 1.00
                0.1517                   1
 d    1 1.00
                  0.55                   1

7 0
 s    8 1.00
                  6665  0.00069158396281299
                  1000  0.0053257961529341
                   228   0.027060721042034
                 64.71    0.10165684614077
                 21.06     0.2745748236174
                 7.495    0.44829431892377
                 2.797    0.28490261071525
                0.5215   0.015194859206082
 s    8 1.00
                  6665  -0.00029326965268655
                  1000  -0.0023180354739745
                   228  -0.011499786038565
                 64.71  -0.046826727009787
                 21.06   -0.12846616875047
                 7.495   -0.30126627246289
                 2.797   -0.25563070233011
                0.5215      1.093793361012
 s    1 1.00
                0.1596                   1
 p    3 1.00
                 9.439   0.056979251590039
                 2.002    0.31320721150073
                0.5456    0.76037674173753
 p    1 1.00
                0.1517                   1
 d    1 1.00
                  0.55                   1

8 0
 s    3 1.00
                 13.01   0.033498726389998
                 1.962    0.23480080117413
                0.4446     0.8136829578829
 s    1 1.00
                 0.122                   1
 p    1 1.00
                 0.727                   1

9 0
 s    8 1.00
                  6665  0.00069158396281299
                  1000  0.0053257961529341
                   228   0.027060721042034
                 64.71    0.10165684614077
                 21.06     0.2745748236174
                 7.495    0.44829431892377
                 2.797    0.28490261071525
                0.5215   0.015194859206082
 s    8 1.00
                  6665  -0.00029326965268655
                  1000  -0.0023180354739745
                   228  -0.011499786038565
                 64.71  -0.046826727009787
                 21.06   -0.12846616875047
                 7.495   -0.30126627246289
                 2.797   -0.25563070233011
                0.5215      1.093793361012
 s    1 1.00
                0.1596                   1
 p    3 1.00
                 9.439   0.056979251590039
                 2.002    0.31320721150073
                0.5456    0.76037674173753
 p    1 1.00
                0.1517                   1
 d    1 1.00
                  0.55                   1

10 0
 s    3 1.00
                 13.01   0.033498726389998
                 1.962    0.23480080117413
                0.4446     0.8136829578829
 s    1 1.00
                 0.122                   1
 p    1 1.00
                 0.727                   1

11 0
 s    3 1.00
                 13.01   0.033498726389998
                 1.962    0.23480080117413
                0.4446     0.8136829578829
 s    1 1.00
                 0.122                   1
 p    1 1.00
                 0.727                   1

12 0
 s    3 1.00
                 13.01   0.033498726389998
                 1.962    0.23480080117413
                0.4446     0.8136829578829
 s    1 1.00
                 0.122                   1
 p    1 1.00
                 0.727                   1

13 0
 s    8 1.00
                  6665  0.00069158396281299
                  1000  0.0053257961529341
                   228   0.027060721042034
                 64.71    0.10165684614077
                 21.06     0.2745748236174
                 7.495    0.44829431892377
                 2.797    0.28490261071525
                0.5215   0.015194859206082
 s    8 1.00
                  6665  -0.00029326965268655
                  1000  -0.0023180354739745
                   228  -0.011499786038565
                 64.71  -0.046826727009787
                 21.06   -0.12846616875047
                 7.495   -0.30126627246289
                 2.797   -0.25563070233011
                0.5215      1.093793361012
 s    1 1.00
                0.1596                   1
 p    3 1.00
                 9.439   0.056979251590039
                 2.002    0.31320721150073
                0.5456    0.76037674173753
 p    1 1.00
                0.1517                   1
 d    1 1.00
                  0.55                   1

14 0
 s    3 1.00
                 13.01   0.033498726389998
                 1.962    0.23480080117413
                0.4446     0.8136829578829
 s    1 1.00
                 0.122                   1
 p    1 1.00
                 0.727                   1

15 0
 s    3 1.00
                 13.01   0.033498726389998
                 1.962    0.23480080117413
                0.4446     0.8136829578829
 s    1 1.00
                 0.122                   1
 p    1 1.00
                 0.727                   1

16 0
 s    8 1.00
                  6665  0.00069158396281299
                  1000  0.0053257961529341
                   228   0.027060721042034
                 64.71    0.10165684614077
                 21.06     0.2745748236174
                 7.495    0.44829431892377
                 2.797    0.28490261071525
                0.5215   0.015194859206082
 s    8 1.00
                  6665  -0.00029326965268655
                  1000  -0.0023180354739745
                   228  -0.011499786038565
                 64.71  -0.046826727009787
                 21.06   -0.12846616875047
                 7.495   -0.30126627246289
                 2.797   -0.25563070233011
                0.5215      1.093793361012
 s    1 1.00
                0.1596                   1
 p    3 1.00
                 9.439   0.056979251590039
                 2.002    0.31320721150073
                0.5456    0.76037674173753
 p    1 1.00
                0.1517                   1
 d    1 1.00
                  0.55                   1

17 0
 s    3 1.00
                 13.01   0.033498726389998
                 1.962    0.23480080117413
                0.4446     0.8136829578829
 s    1 1.00
                 0.122                   1
 p    1 1.00
                 0.727                   1

18 0
 s    3 1.00
                 13.01   0.033498726389998
                 1.962    0.23480080117413
                0.4446     0.8136829578829
 s    1 1.00
                 0.122                   1
 p    1 1.00
                 0.727                   1

19 0
 s    8 1.00
                  6665  0.00069158396281299
                  1000  0.0053257961529341
                   228   0.027060721042034
                 64.71    0.10165684614077
                 21.06     0.2745748236174
                 7.495    0.44829431892377
                 2.797    0.28490261071525
                0.5215   0.015194859206082
 s    8 1.00
                  6665  -0.00029326965268655
                  1000  -0.0023180354739745
                   228  -0.011499786038565
                 64.71  -0.046826727009787
                 21.06   -0.12846616875047
                 7.495   -0.30126627246289
                 2.797   -0.25563070233011
                0.5215      1.093793361012
 s    1 1.00
                0.1596                   1
 p    3 1.00
                 9.439   0.056979251590039
                 2.002    0.31320721150073
                0.5456    0.76037674173753
 p    1 1.00
                0.1517                   1
 d    1 1.00
                  0.55                   1

20 0
 s    3 1.00
                 13.01   0.033498726389998
                 1.962    0.23480080117413
                0.4446     0.8136829578829
 s    1 1.00
                 0.122                   1
 p    1 1.00
                 0.727                   1

21 0
 s    8 1.00
                  6665  0.00069158396281299
                  1000  0.0053257961529341
                   228   0.027060721042034
                 64.71    0.10165684614077
                 21.06     0.2745748236174
                 7.495    0.44829431892377
                 2.797    0.28490261071525
                0.5215   0.015194859206082
 s    8 1.00
                  6665  -0.00029326965268655
                  1000  -0.0023180354739745
                   228  -0.011499786038565
                 64.71  -0.046826727009787
                 21.06   -0.12846616875047
                 7.495   -0.30126627246289
                 2.797   -0.25563070233011
                0.5215      1.093793361012
 s    1 1.00
                0.1596                   1
 p    3 1.00
                 9.439   0.056979251590039
                 2.002    0.31320721150073
                0.5456    0.76037674173753
 p    1 1.00
                0.1517                   1
 d    1 1.00
                  0.55                   1

22 0
 s    3 1.00
                 13.01   0.033498726389998
                 1.962    0.23480080117413
                0.4446     0.8136829578829
 s    1 1.00
                 0.122                   1
 p    1 1.00
                 0.727                   1

23 0
 s    3 1.00
                 13.01   0.033498726389998
                 1.962    0.23480080117413
                0.4446     0.8136829578829
 s    1 1.00
                 0.122                   1
 p    1 1.00
                 0.727                   1

24 0
 s    3 1.00
                 13.01   0.033498726389998
                 1.962    0.23480080117413
                0.4446     0.8136829578829
 s    1 1.00
                 0.122                   1
 p    1 1.00
                 0.727                   1

25 0
 s    8 1.00
                  6665  0.00069158396281299
                  1000  0.0053257961529341
                   228   0.027060721042034
                 64.71    0.10165684614077
                 21.06     0.2745748236174
                 7.495    0.44829431892377
                 2.797    0.28490261071525
                0.5215   0.015194859206082
 s    8 1.00
                  6665  -0.00029326965268655
                  1000  -0.0023180354739745
                   228  -0.011499786038565
                 64.71  -0.046826727009787
                 21.06   -0.12846616875047
                 7.495   -0.30126627246289
                 2.797   -0.25563070233011
                0.5215      1.093793361012
 s    1 1.00
                0.1596                   1
 p    3 1.00
                 9.439   0.056979251590039
                 2.002    0.31320721150073
                0.5456    0.76037674173753
 p    1 1.00
                0.1517                   1
 d    1 1.00
                  0.55                   1

26 0
 s    3 1.00
                 13.01   0.033498726389998
                 1.962    0.23480080117413
                0.4446     0.8136829578829
 s    1 1.00
                 0.122                   1
 p    1 1.00
                 0.727                   1

27 0
 s    3 1.00
                 13.01   0.033498726389998
                 1.962    0.23480080117413
                0.4446     0.8136829578829
 s    1 1.00
                 0.122                   1
 p    1 1.00
                 0.727                   1

28 0
 s    8 1.00
                  6665  0.00069158396281299
                  1000  0.0053257961529341
                   228   0.027060721042034
                 64.71    0.10165684614077
                 21.06     0.2745748236174
                 7.495    0.44829431892377
                 2.797    0.28490261071525
                0.5215   0.015194859206082
 s    8 1.00
                  6665  -0.00029326965268655
                  1000  -0.0023180354739745
                   228  -0.011499786038565
                 64.71  -0.046826727009787
                 21.06   -0.12846616875047
                 7.495   -0.30126627246289
                 2.797   -0.25563070233011
                0.5215      1.093793361012
 s    1 1.00
                0.1596                   1
 p    3 1.00
                 9.439   0.056979251590039
                 2.002    0.31320721150073
                0.5456    0.76037674173753
 p    1 1.00
                0.1517                   1
 d    1 1.00
                  0.55                   1

29 0
 s    3 1.00
                 13.01   0.033498726389998
                 1.962    0.23480080117413
                0.4446     0.8136829578829
 s    1 1.00
                 0.122                   1
 p    1 1.00
                 0.727                   1

30 0
 s    3 1.00
                 13.01   0.033498726389998
                 1.962    0.23480080117413
                0.4446     0.8136829578829
 s    1 1.00
                 0.122                   1
 p    1 1.00
                 0.727                   1

31 0
 s    8 1.00
                  6665  0.00069158396281299
                  1000  0.0053257961529341
                   228   0.027060721042034
                 64.71    0.10165684614077
                 21.06     0.2745748236174
                 7.495    0.44829431892377
                 2.797    0.28490261071525
                0.5215   0.015194859206082
 s    8 1.00
                  6665  -0.00029326965268655
                  1000  -0.0023180354739745
                   228  -0.011499786038565
                 64.71  -0.046826727009787
                 21.06   -0.12846616875047
                 7.495   -0.30126627246289
                 2.797   -0.25563070233011
                0.5215      1.093793361012
 s    1 1.00
                0.1596                   1
 p    3 1.00
                 9.439   0.056979251590039
                 2.002    0.31320721150073
                0.5456    0.76037674173753
 p    1 1.00
                0.1517                   1
 d    1 1.00
                  0.55                   1

32 0
 s    3 1.00
                 13.01   0.033498726389998
                 1.962    0.23480080117413
                0.4446     0.8136829578829
 s    1 1.00
                 0.122                   1
 p    1 1.00
                 0.727                   1

33 0
 s    3 1.00
                 13.01   0.033498726389998
                 1.962    0.23480080117413
                0.4446     0.8136829578829
 s    1 1.00
                 0.122                   1
 p    1 1.00
                 0.727                   1

34 0
 s    3 1.00
                 13.01   0.033498726389998
                 1.962    0.23480080117413
                0.4446     0.8136829578829
 s    1 1.00
                 0.122                   1
 p    1 1.00
                 0.727                   1

35 0
 s    3 1.00
                 13.01   0.033498726389998
                 1.962    0.23480080117413
                0.4446     0.8136829578829
 s    1 1.00
                 0.122                   1
 p    1 1.00
                 0.727                   1

36 0
 s    3 1.00
                 13.01   0.033498726389998
                 1.962    0.23480080117413
                0.4446     0.8136829578829
 s    1 1.00
                 0.122                   1
 p    1 1.00
                 0.727                   1

37 0
 s    3 1.00
                 13.01   0.033498726389998
                 1.962    0.23480080117413
                0.4446     0.8136829578829
 s    1 1.00
                 0.122                   1
 p    1 1.00
                 0.727                   1

[5d]
[7f]
[9g]

[MO]
 Sym= A
 Ene=               0
 Spin= Alpha
 Occup=    1.00000
   1    -1.8245397415887e-05
   2    -8.1093970400613e-06
   3    3.2734914561627e-05
   4    -3.2304251043729e-08
   5    1.2330000696878e-06
   6    -3.5535743958115e-07
   7    2.2639978853654e-07
   8    -8.162484819908e-06
   9    -2.547824980807e-05
  10    4.8570928411214e-06
  11    9.6732732357989e-09
  12    -3.8835507215498e-07
  13    4.2100242241555e-07
  14    2.3411421393335e-08
  15    -3.6299680522943e-06
  16    -5.0086842636406e-05
  17    -1.8814242454905e-08
  18    5.108778078168e-07
  19    -1.5693239522968e-05
  20    -1.706855744382e-06
  21    2.1400481267165e-05
  22    8.1984555355582e-08
  23    -2.8603956605186e-06
  24    6.6508103837522e-07
  25       1.0013572121719
  26    0.0019412210777702
  27    -0.0067486326571714
  28    -4.2568894408633e-06
  29    7.6698182672472e-06
  30    -0.001662508457106
  31    -3.5796649582602e-07
  32    -4.0636170428473e-07
  33    0.0018021335050987
  34    0.00013185346736999
  35    -3.1851718962662e-06
  36    1.3528529261923e-06
  37    6.783750135617e-05
  38    -0.00017668493742341
  39    0.00027056043870937
  40    0.00036271726497451
  41    0.0013815067317508
  42    1.8938704527443e-05
  43    -1.2614232057565e-05
  44    -1.4946067855393e-05
  45    8.6995511848997e-05
  46    -6.5710255344657e-05
  47    0.0035218780080657
  48    -0.0005434958561005
  49    -9.0939350386855e-06
  50    2.8313476110026e-06
  51    2.8576818384939e-05
  52    -0.00010680634351401
  53    -8.5106145485336e-05
  54    -0.00016466916601245
  55    0.0013659294764564
  56    7.6561145972616e-05
  57    -5.7920832289899e-06
  58    -3.6116271790011e-05
  59    -0.00042391501323089
  60    0.00047613439914557
  61    -0.00091710439880898
  62    -0.00011800760484912
  63    0.00015017810142787
  64    -0.00014277339491924
  65    5.532072153351e-05
  66    -0.00013077030981698
  67    -4.1023322739795e-05
  68    -9.1953270981809e-05
  69    0.00051977207342083
  70    -7.2336078880257e-05
  71    4.5813570966115e-05
  72    -5.6297486453089e-05
  73    0.00098812686142626
  74    -0.00076369145181385
  75    -0.00062698241858469
  76    -0.00014096732954285
  77    -0.00012165286569604
  78    8.9682408894409e-05
  79    5.9368191613683e-05
  80    -0.00015189552594585
  81    -6.6841988895835e-05
  82    0.00020415832992614
  83    6.5726388732159e-05
  84    -4.8237397700012e-05
  85    4.9384499317923e-05
  86    2.4990448066223e-05
  87    4.9381460044816e-05
  88    -0.00060059996121901
  89    -1.6041962096052e-05
  90    -1.8015723996084e-05
  91    1.2153268179428e-05
  92    0.00025489396148388
  93    0.00061911626196864
  94    -1.9941771661067e-05
  95    1.8013428135933e-05
  96    1.0839324826026e-05
  97    6.9331381721067e-06
  98    -2.0773794689034e-05
  99    -4.4899815854383e-05
 100    -3.6093397601489e-05
 101    -0.00015710256078087
 102    9.8473045919451e-06
 103    -9.5573048549502e-06
 104    7.3909499727388e-05
 105    -1.7837576935692e-05
 106    -0.00020009523265625
 107    -6.4875270329555e-05
 108    1.2100157844754e-05
 109    7.4513037485845e-05
 110    7.9264447466945e-05
 111    -5.6022462875249e-05
 112    -4.6255071312363e-05
 113    1.8156213172529e-05
 114    6.9520992915509e-05
 115    -6.9377850884479e-05
 116    -0.00011947608674024
 117    0.00082355955144566
 118    1.3734937556593e-06
 119    -3.6059243671097e-05
 120    3.954600701797e-05
 121    0.00031262455642049
 122    1.5808273675524e-05
 123    -0.00012592800702029
 124    -6.6674919916574e-06
 125    9.4937455965634e-06
 126    1.7777278732992e-05
 127    -3.2150740467923e-05
 128    5.1184619288154e-05
 129    -1.9596212111836e-05
 130    -0.00031963186622435
 131    7.4313631266736e-06
 132    5.8405805189041e-06
 133    2.9092925293025e-05
 134    2.5502677914987e-05
 135    -0.00011920460515758
 136    -1.3393024161465e-05
 137    -2.3860180662322e-05
 138    -2.6431831484182e-05
 139    -2.3576095010378e-05
 140    -4.0277981469262e-05
 141    0.00028321931710173
 142    7.6995929384018e-06
 143    2.9127994776269e-06
 144    -8.1629959147003e-06
 145    -0.00022927830833153
 146    5.3237322718747e-05
 147    6.3890762695701e-05
 148    -2.4837849058337e-06
 149    2.6544850316779e-06
 150    -3.5393326732753e-06
 151    1.1720241761896e-05
 152    -4.7642632819905e-06
 153    -0.00010614537522996
 154    -0.00011832542289414
 155    -2.4661006558145e-05
 156    3.0439695948228e-05
 157    2.1730209482976e-05
 158    -2.4073050629141e-05
 159    -8.7133815494732e-05
 160    -5.9142375567493e-05
 161    -7.8534064955449e-06
 162    6.0548282932311e-06
 163    -1.0864253985285e-05
 164    -3.6677072889435e-05
 165    -0.0002531326601521
 166    -4.4246622130294e-05
 167    2.9700355857415e-05
 168    -1.1080356102137e-06
 169    0.00022626511390743
 170    -0.00020747006218579
 171    -0.00013384535812641
 172    -3.2392207121921e-06
 173    7.7316598442952e-06
 174    -1.2170139876217e-05
 175    3.0386573116184e-06
 176    -1.7456522730286e-05
 177    -2.0039716828867e-05
 178    8.1273587891296e-05
 179    -4.3044148449145e-07
 180    2.0029877264057e-06
 181    -4.774091961224e-06
 182    1.6497330771617e-05
 183    3.1394555829349e-05
 184    -6.0945041247398e-05
 185    -5.6070848905566e-06
 186    6.7378122611784e-06
 187    9.6054208276975e-06
 188    0.00012524634763197
 189    -0.00010050149924316
 190    -8.1502548342373e-05
 191    1.3116547182395e-06
 192    1.963375069698e-06
 193    -7.5319460876449e-06
 194    -3.1385601599805e-06
 195    -4.7641813513677e-06
 196    -1.7441683282072e-05
 197    -1.9221025589589e-05
 198    5.4776826953276e-06
 199    1.7843785915168e-06
 200    -3.8788081794078e-06
 201    -2.3164015836623e-05
 202    3.5668010761489e-06
 203    -1.4021277541897e-05
 204    9.6230449473742e-06
 205    1.0636722014974e-05
 206    -2.5567066021206e-06
 207    6.8347883996014e-05
 208    -1.6102881442384e-05
 209    5.5761451720152e-06
 210    1.472593593045e-05
 211    -1.7742768063616e-05
 212    -2.78991394972e-05
 213    0.00025679676468031
 214    8.9818727679229e-06
 215    -3.4309262756347e-06
 216    -9.4162481146287e-06
 217    0.00020089672412279
 218    -5.5849683043766e-05
 219    -7.8036770999967e-05
 220    -1.3281235089283e-06
 221    -1.6628934018499e-05
 222    5.4794203582595e-06
 223    8.7936499481035e-06
 224    -1.0785062040542e-06
 225    3.1226338812622e-05
 226    5.5452808368738e-05
 227    -1.2418546627932e-05
 228    -2.2902945826987e-06
 229    -1.20556681926e-06
 230    1.0650721682853e-05
 231    5.3831794642873e-05
 232    -3.7896028889841e-06
 233    6.2670056737058e-06
 234    1.2172171710505e-05
 235    3.7233869086544e-07
 236    1.4601241455324e-07
 237    -7.8202080466549e-05
 238    3.0598845347118e-06
 239    1.0107484225575e-06
 240    -4.1482533362833e-06
 241    3.5347177884364e-05
 242    -6.2724233086844e-05
 243    1.740124033353e-05
 244    1.9224534442701e-06
 245    1.7523276142872e-06
 246    -1.7701573113419e-06
 247    8.4262463416551e-08
 248    9.1501863891539e-07
 249    -1.7568694413085e-05
 250    1.4232203232426e-05
 251    -4.4324813223056e-06
 252    -1.0814036564635e-06
 253    -4.6126143766504e-07
 254    -1.5756639068882e-05
 255    5.6207269687381e-05
 256    3.5670285357445e-08
 257    4.3618064856793e-06
 258    -1.0871730488155e-06
 259    -1.1151603793512e-05
 260    -2.1016207250795e-05
 261    7.9765212010044e-05
 262    -4.8225278813865e-06