[Molden Format]
made by pyscf v[2.0.1]
[Atoms] (AU)
O   1   8     0.00000000000000     0.00000000000000     8.67407923598948
H   2   1     0.00000000000000     0.00000000000000     6.85067741408852
H   3   1    -0.05031916615174     1.78353065140343     9.04995093245615
O   4   8     0.00000000000000     0.00000000000000     2.31533471513237
C   5   6     0.00000000000000     0.00000000000000     0.00000000000000
C   6   6     2.01118073026938    -1.40227222164369    -1.50774939176400
C   7   6    -2.01249334291722     1.41331050329955    -1.50315905028694
H   8   1     3.32037363730244    -2.26721897153159    -0.13599698591495
C   9   6     3.45899267434009     0.28739631745591    -3.37437943254505
H   10   1     1.07662969841332    -2.94725144642667    -2.56541439481080
H   11   1    -2.67503415753480     0.18421555839588    -3.06194479365997
H   12   1    -1.07974048864772     3.03851734677796    -2.43674295017013
C   13   6    -4.21607110578555     2.32938802552922     0.11994162256091
H   14   1     4.24440173074564     1.93368664142019    -2.34976285512790
H   15   1     2.15020713235517     1.04714335134846    -4.81494497423699
C   16   6     5.60746363007797    -1.12419643481196    -4.70268606082550
H   17   1    -3.46838323670267     3.50951302338067     1.66946842715333
H   18   1    -5.11873485366228     0.68575958301209     1.04047743976495
C   19   6    -6.18314754751344     3.80909592987882    -1.39656589068747
H   20   1     6.93011263717176    -1.87550812453645    -3.26656317360070
C   21   6     7.06356622236532     0.52877932406334    -6.57829775293605
H   22   1     4.82318879258361    -2.78573437948532    -5.70504560381835
H   23   1    -6.91582688743803     2.61304780074712    -2.95074552451969
H   24   1    -5.26532430573853     5.45420349051338    -2.31005832200284
C   25   6    -8.39941882261433     4.73263980500213     0.21800571437956
H   26   1     7.83338371486801     2.19084139882824    -5.57093109900697
H   27   1     5.73544244039420     1.27376866537418    -8.01071492370229
C   28   6     9.21124858443101    -0.89699110072176    -7.88926949186242
H   29   1    -7.66272760055236     5.92277078003992     1.77035591474408
H   30   1    -9.31497248082589     3.08753015622020     1.12614408368786
C   31   6   -10.35481709231879     6.21833079391143    -1.30905206253246
H   32   1    10.58815905329501    -1.61074586756696    -6.49512691622620
H   33   1    10.23506248045667     0.32468009384095    -9.23072870921204
H   34   1     8.47665842847139    -2.53598436989925    -8.94921964622535
H   35   1    -9.48948872868064     7.90013588951020    -2.18823918416067
H   36   1   -11.93332513000955     6.86460487874102    -0.11255798845995
H   37   1   -11.15126291841033     5.04495968327630    -2.83849898862534
[GTO]
1 0
 s    8 1.00
                 11720  0.00070964594651845
                  1759  0.0054672722921914
                 400.8   0.027823118610189
                 113.7    0.10474773971146
                 37.03    0.28292084635691
                 13.27    0.44849523869833
                 5.025    0.27081688521277
                 1.013    0.01545029160744
 s    8 1.00
                 11720  -0.00031444341168873
                  1759  -0.0024821376810179
                 400.8  -0.012316355381583
                 113.7  -0.050538917343672
                 37.03   -0.13938490331632
                 13.27   -0.32507749481778
                 5.025   -0.22984830758785
                 1.013     1.0953793467883
 s    1 1.00
                0.3023                   1
 p    3 1.00
                  17.7   0.062679166281506
                 3.854    0.33353656587936
                 1.046    0.74123964163973
 p    1 1.00
                0.2753                   1
 d    1 1.00
                 1.185                   1

2 0
 s    3 1.00
                 13.01   0.033498726389998
                 1.962    0.23480080117413
                0.4446     0.8136829578829
 s    1 1.00
                 0.122                   1
 p    1 1.00
                 0.727                   1

3 0
 s    3 1.00
                 13.01   0.033498726389998
                 1.962    0.23480080117413
                0.4446     0.8136829578829
 s    1 1.00
                 0.122                   1
 p    1 1.00
                 0.727                   1

4 0
 s    8 1.00
                 11720  0.00070964594651845
                  1759  0.0054672722921914
                 400.8   0.027823118610189
                 113.7    0.10474773971146
                 37.03    0.28292084635691
                 13.27    0.44849523869833
                 5.025    0.27081688521277
                 1.013    0.01545029160744
 s    8 1.00
                 11720  -0.00031444341168873
                  1759  -0.0024821376810179
                 400.8  -0.012316355381583
                 113.7  -0.050538917343672
                 37.03   -0.13938490331632
                 13.27   -0.32507749481778
                 5.025   -0.22984830758785
                 1.013     1.0953793467883
 s    1 1.00
                0.3023                   1
 p    3 1.00
                  17.7   0.062679166281506
                 3.854    0.33353656587936
                 1.046    0.74123964163973
 p    1 1.00
                0.2753                   1
 d    1 1.00
                 1.185                   1

5 0
 s    8 1.00
                  6665  0.00069158396281299
                  1000  0.0053257961529341
                   228   0.027060721042034
                 64.71    0.10165684614077
                 21.06     0.2745748236174
                 7.495    0.44829431892377
                 2.797    0.28490261071525
                0.5215   0.015194859206082
 s    8 1.00
                  6665  -0.00029326965268655
                  1000  -0.0023180354739745
                   228  -0.011499786038565
                 64.71  -0.046826727009787
                 21.06   -0.12846616875047
                 7.495   -0.30126627246289
                 2.797   -0.25563070233011
                0.5215      1.093793361012
 s    1 1.00
                0.1596                   1
 p    3 1.00
                 9.439   0.056979251590039
                 2.002    0.31320721150073
                0.5456    0.76037674173753
 p    1 1.00
                0.1517                   1
 d    1 1.00
                  0.55                   1

6 0
 s    8 1.00
                  6665  0.00069158396281299
                  1000  0.0053257961529341
                   228   0.027060721042034
                 64.71    0.10165684614077
                 21.06     0.2745748236174
                 7.495    0.44829431892377
                 2.797    0.28490261071525
                0.5215   0.015194859206082
 s    8 1.00
                  6665  -0.00029326965268655
                  1000  -0.0023180354739745
                   228  -0.011499786038565
                 64.71  -0.046826727009787
                 21.06   -0.12846616875047
                 7.495   -0.30126627246289
                 2.797   -0.25563070233011
                0.5215      1.093793361012
 s    1 1.00
                0.1596                   1
 p    3 1.00
                 9.439   0.056979251590039
                 2.002    0.31320721150073
                0.5456    0.76037674173753
 p    1 1.00
                0.1517                   1
 d    1 1.00
                  0.55                   1

7 0
 s    8 1.00
                  6665  0.00069158396281299
                  1000  0.0053257961529341
                   228   0.027060721042034
                 64.71    0.10165684614077
                 21.06     0.2745748236174
                 7.495    0.44829431892377
                 2.797    0.28490261071525
                0.5215   0.015194859206082
 s    8 1.00
                  6665  -0.00029326965268655
                  1000  -0.0023180354739745
                   228  -0.011499786038565
                 64.71  -0.046826727009787
                 21.06   -0.12846616875047
                 7.495   -0.30126627246289
                 2.797   -0.25563070233011
                0.5215      1.093793361012
 s    1 1.00
                0.1596                   1
 p    3 1.00
                 9.439   0.056979251590039
                 2.002    0.31320721150073
                0.5456    0.76037674173753
 p    1 1.00
                0.1517                   1
 d    1 1.00
                  0.55                   1

8 0
 s    3 1.00
                 13.01   0.033498726389998
                 1.962    0.23480080117413
                0.4446     0.8136829578829
 s    1 1.00
                 0.122                   1
 p    1 1.00
                 0.727                   1

9 0
 s    8 1.00
                  6665  0.00069158396281299
                  1000  0.0053257961529341
                   228   0.027060721042034
                 64.71    0.10165684614077
                 21.06     0.2745748236174
                 7.495    0.44829431892377
                 2.797    0.28490261071525
                0.5215   0.015194859206082
 s    8 1.00
                  6665  -0.00029326965268655
                  1000  -0.0023180354739745
                   228  -0.011499786038565
                 64.71  -0.046826727009787
                 21.06   -0.12846616875047
                 7.495   -0.30126627246289
                 2.797   -0.25563070233011
                0.5215      1.093793361012
 s    1 1.00
                0.1596                   1
 p    3 1.00
                 9.439   0.056979251590039
                 2.002    0.31320721150073
                0.5456    0.76037674173753
 p    1 1.00
                0.1517                   1
 d    1 1.00
                  0.55                   1

10 0
 s    3 1.00
                 13.01   0.033498726389998
                 1.962    0.23480080117413
                0.4446     0.8136829578829
 s    1 1.00
                 0.122                   1
 p    1 1.00
                 0.727                   1

11 0
 s    3 1.00
                 13.01   0.033498726389998
                 1.962    0.23480080117413
                0.4446     0.8136829578829
 s    1 1.00
                 0.122                   1
 p    1 1.00
                 0.727                   1

12 0
 s    3 1.00
                 13.01   0.033498726389998
                 1.962    0.23480080117413
                0.4446     0.8136829578829
 s    1 1.00
                 0.122                   1
 p    1 1.00
                 0.727                   1

13 0
 s    8 1.00
                  6665  0.00069158396281299
                  1000  0.0053257961529341
                   228   0.027060721042034
                 64.71    0.10165684614077
                 21.06     0.2745748236174
                 7.495    0.44829431892377
                 2.797    0.28490261071525
                0.5215   0.015194859206082
 s    8 1.00
                  6665  -0.00029326965268655
                  1000  -0.0023180354739745
                   228  -0.011499786038565
                 64.71  -0.046826727009787
                 21.06   -0.12846616875047
                 7.495   -0.30126627246289
                 2.797   -0.25563070233011
                0.5215      1.093793361012
 s    1 1.00
                0.1596                   1
 p    3 1.00
                 9.439   0.056979251590039
                 2.002    0.31320721150073
                0.5456    0.76037674173753
 p    1 1.00
                0.1517                   1
 d    1 1.00
                  0.55                   1

14 0
 s    3 1.00
                 13.01   0.033498726389998
                 1.962    0.23480080117413
                0.4446     0.8136829578829
 s    1 1.00
                 0.122                   1
 p    1 1.00
                 0.727                   1

15 0
 s    3 1.00
                 13.01   0.033498726389998
                 1.962    0.23480080117413
                0.4446     0.8136829578829
 s    1 1.00
                 0.122                   1
 p    1 1.00
                 0.727                   1

16 0
 s    8 1.00
                  6665  0.00069158396281299
                  1000  0.0053257961529341
                   228   0.027060721042034
                 64.71    0.10165684614077
                 21.06     0.2745748236174
                 7.495    0.44829431892377
                 2.797    0.28490261071525
                0.5215   0.015194859206082
 s    8 1.00
                  6665  -0.00029326965268655
                  1000  -0.0023180354739745
                   228  -0.011499786038565
                 64.71  -0.046826727009787
                 21.06   -0.12846616875047
                 7.495   -0.30126627246289
                 2.797   -0.25563070233011
                0.5215      1.093793361012
 s    1 1.00
                0.1596                   1
 p    3 1.00
                 9.439   0.056979251590039
                 2.002    0.31320721150073
                0.5456    0.76037674173753
 p    1 1.00
                0.1517                   1
 d    1 1.00
                  0.55                   1

17 0
 s    3 1.00
                 13.01   0.033498726389998
                 1.962    0.23480080117413
                0.4446     0.8136829578829
 s    1 1.00
                 0.122                   1
 p    1 1.00
                 0.727                   1

18 0
 s    3 1.00
                 13.01   0.033498726389998
                 1.962    0.23480080117413
                0.4446     0.8136829578829
 s    1 1.00
                 0.122                   1
 p    1 1.00
                 0.727                   1

19 0
 s    8 1.00
                  6665  0.00069158396281299
                  1000  0.0053257961529341
                   228   0.027060721042034
                 64.71    0.10165684614077
                 21.06     0.2745748236174
                 7.495    0.44829431892377
                 2.797    0.28490261071525
                0.5215   0.015194859206082
 s    8 1.00
                  6665  -0.00029326965268655
                  1000  -0.0023180354739745
                   228  -0.011499786038565
                 64.71  -0.046826727009787
                 21.06   -0.12846616875047
                 7.495   -0.30126627246289
                 2.797   -0.25563070233011
                0.5215      1.093793361012
 s    1 1.00
                0.1596                   1
 p    3 1.00
                 9.439   0.056979251590039
                 2.002    0.31320721150073
                0.5456    0.76037674173753
 p    1 1.00
                0.1517                   1
 d    1 1.00
                  0.55                   1

20 0
 s    3 1.00
                 13.01   0.033498726389998
                 1.962    0.23480080117413
                0.4446     0.8136829578829
 s    1 1.00
                 0.122                   1
 p    1 1.00
                 0.727                   1

21 0
 s    8 1.00
                  6665  0.00069158396281299
                  1000  0.0053257961529341
                   228   0.027060721042034
                 64.71    0.10165684614077
                 21.06     0.2745748236174
                 7.495    0.44829431892377
                 2.797    0.28490261071525
                0.5215   0.015194859206082
 s    8 1.00
                  6665  -0.00029326965268655
                  1000  -0.0023180354739745
                   228  -0.011499786038565
                 64.71  -0.046826727009787
                 21.06   -0.12846616875047
                 7.495   -0.30126627246289
                 2.797   -0.25563070233011
                0.5215      1.093793361012
 s    1 1.00
                0.1596                   1
 p    3 1.00
                 9.439   0.056979251590039
                 2.002    0.31320721150073
                0.5456    0.76037674173753
 p    1 1.00
                0.1517                   1
 d    1 1.00
                  0.55                   1

22 0
 s    3 1.00
                 13.01   0.033498726389998
                 1.962    0.23480080117413
                0.4446     0.8136829578829
 s    1 1.00
                 0.122                   1
 p    1 1.00
                 0.727                   1

23 0
 s    3 1.00
                 13.01   0.033498726389998
                 1.962    0.23480080117413
                0.4446     0.8136829578829
 s    1 1.00
                 0.122                   1
 p    1 1.00
                 0.727                   1

24 0
 s    3 1.00
                 13.01   0.033498726389998
                 1.962    0.23480080117413
                0.4446     0.8136829578829
 s    1 1.00
                 0.122                   1
 p    1 1.00
                 0.727                   1

25 0
 s    8 1.00
                  6665  0.00069158396281299
                  1000  0.0053257961529341
                   228   0.027060721042034
                 64.71    0.10165684614077
                 21.06     0.2745748236174
                 7.495    0.44829431892377
                 2.797    0.28490261071525
                0.5215   0.015194859206082
 s    8 1.00
                  6665  -0.00029326965268655
                  1000  -0.0023180354739745
                   228  -0.011499786038565
                 64.71  -0.046826727009787
                 21.06   -0.12846616875047
                 7.495   -0.30126627246289
                 2.797   -0.25563070233011
                0.5215      1.093793361012
 s    1 1.00
                0.1596                   1
 p    3 1.00
                 9.439   0.056979251590039
                 2.002    0.31320721150073
                0.5456    0.76037674173753
 p    1 1.00
                0.1517                   1
 d    1 1.00
                  0.55                   1

26 0
 s    3 1.00
                 13.01   0.033498726389998
                 1.962    0.23480080117413
                0.4446     0.8136829578829
 s    1 1.00
                 0.122                   1
 p    1 1.00
                 0.727                   1

27 0
 s    3 1.00
                 13.01   0.033498726389998
                 1.962    0.23480080117413
                0.4446     0.8136829578829
 s    1 1.00
                 0.122                   1
 p    1 1.00
                 0.727                   1

28 0
 s    8 1.00
                  6665  0.00069158396281299
                  1000  0.0053257961529341
                   228   0.027060721042034
                 64.71    0.10165684614077
                 21.06     0.2745748236174
                 7.495    0.44829431892377
                 2.797    0.28490261071525
                0.5215   0.015194859206082
 s    8 1.00
                  6665  -0.00029326965268655
                  1000  -0.0023180354739745
                   228  -0.011499786038565
                 64.71  -0.046826727009787
                 21.06   -0.12846616875047
                 7.495   -0.30126627246289
                 2.797   -0.25563070233011
                0.5215      1.093793361012
 s    1 1.00
                0.1596                   1
 p    3 1.00
                 9.439   0.056979251590039
                 2.002    0.31320721150073
                0.5456    0.76037674173753
 p    1 1.00
                0.1517                   1
 d    1 1.00
                  0.55                   1

29 0
 s    3 1.00
                 13.01   0.033498726389998
                 1.962    0.23480080117413
                0.4446     0.8136829578829
 s    1 1.00
                 0.122                   1
 p    1 1.00
                 0.727                   1

30 0
 s    3 1.00
                 13.01   0.033498726389998
                 1.962    0.23480080117413
                0.4446     0.8136829578829
 s    1 1.00
                 0.122                   1
 p    1 1.00
                 0.727                   1

31 0
 s    8 1.00
                  6665  0.00069158396281299
                  1000  0.0053257961529341
                   228   0.027060721042034
                 64.71    0.10165684614077
                 21.06     0.2745748236174
                 7.495    0.44829431892377
                 2.797    0.28490261071525
                0.5215   0.015194859206082
 s    8 1.00
                  6665  -0.00029326965268655
                  1000  -0.0023180354739745
                   228  -0.011499786038565
                 64.71  -0.046826727009787
                 21.06   -0.12846616875047
                 7.495   -0.30126627246289
                 2.797   -0.25563070233011
                0.5215      1.093793361012
 s    1 1.00
                0.1596                   1
 p    3 1.00
                 9.439   0.056979251590039
                 2.002    0.31320721150073
                0.5456    0.76037674173753
 p    1 1.00
                0.1517                   1
 d    1 1.00
                  0.55                   1

32 0
 s    3 1.00
                 13.01   0.033498726389998
                 1.962    0.23480080117413
                0.4446     0.8136829578829
 s    1 1.00
                 0.122                   1
 p    1 1.00
                 0.727                   1

33 0
 s    3 1.00
                 13.01   0.033498726389998
                 1.962    0.23480080117413
                0.4446     0.8136829578829
 s    1 1.00
                 0.122                   1
 p    1 1.00
                 0.727                   1

34 0
 s    3 1.00
                 13.01   0.033498726389998
                 1.962    0.23480080117413
                0.4446     0.8136829578829
 s    1 1.00
                 0.122                   1
 p    1 1.00
                 0.727                   1

35 0
 s    3 1.00
                 13.01   0.033498726389998
                 1.962    0.23480080117413
                0.4446     0.8136829578829
 s    1 1.00
                 0.122                   1
 p    1 1.00
                 0.727                   1

36 0
 s    3 1.00
                 13.01   0.033498726389998
                 1.962    0.23480080117413
                0.4446     0.8136829578829
 s    1 1.00
                 0.122                   1
 p    1 1.00
                 0.727                   1

37 0
 s    3 1.00
                 13.01   0.033498726389998
                 1.962    0.23480080117413
                0.4446     0.8136829578829
 s    1 1.00
                 0.122                   1
 p    1 1.00
                 0.727                   1

[5d]
[7f]
[9g]

[MO]
 Sym= A
 Ene=               0
 Spin= Alpha
 Occup=    1.00000
   1    -6.9882197372523e-05
   2    -5.2563220678871e-05
   3    0.00013266065240386
   4    2.676884471605e-08
   5      5.9284665918e-06
   6    1.576084257212e-05
   7    4.1820734593335e-07
   8    -2.5950778123836e-05
   9    -7.3500665532574e-05
  10    4.2427983613853e-06
  11    -9.8933849136044e-08
  12    3.6644261965397e-07
  13    5.7688511768805e-07
  14    1.0060770018033e-08
  15    -2.1717178536062e-05
  16    -0.00021615839203047
  17    -4.2006914034308e-07
  18    2.2494596282453e-06
  19    1.4897240010768e-05
  20    -5.6556198724563e-06
  21    6.6882387155506e-05
  22    1.5183053588951e-07
  23    -2.5636979546264e-06
  24    -2.973230748339e-07
  25       1.0013774639104
  26    0.0019861814283458
  27    -0.0069251463926562
  28    -4.8926144333728e-06
  29    1.1019570650246e-05
  30    -0.0016411087833846
  31    -2.7915777312416e-07
  32    -2.0710143958812e-06
  33    0.0019355755670084
  34    0.00011216420110737
  35    -2.9690873809892e-06
  36    1.5415374916949e-06
  37    6.6662026093969e-05
  38    -0.00017347293623188
  39    0.00028715822840844
  40    0.00039860393951403
  41    0.0015147506858167
  42    2.0206848006879e-05
  43    -1.2776419705426e-05
  44    2.1984638733685e-05
  45    8.7240927207553e-05
  46    -6.8289350678322e-05
  47    0.0036578274619203
  48    -0.00050995091631997
  49    -8.6965778299829e-06
  50    2.9517211715544e-06
  51    3.0091505273738e-05
  52    -0.00011060477735821
  53    -8.4467137379454e-05
  54    -0.00016344663192186
  55    0.0013869215414171
  56    7.694398928313e-05
  57    -5.4922507324576e-06
  58    -3.4113204266045e-05
  59    -0.00042814042302184
  60    0.0004825954919916
  61    -0.00096790392619806
  62    -0.00011608816261972
  63    0.00014961358959861
  64    -0.00014316331967882
  65    5.4284711723028e-05
  66    -0.00012722686703229
  67    -3.903735613545e-05
  68    -8.8199829343036e-05
  69    0.00052880453875262
  70    -7.3893109629384e-05
  71    4.7350891056594e-05
  72    -5.5122096842941e-05
  73    0.0010060773305023
  74    -0.00077520919479666
  75    -0.00065369356011512
  76    -0.00013883409624524
  77    -0.00012236095195126
  78    8.9789346013615e-05
  79    5.8440277539272e-05
  80    -0.00014922078615902
  81    -6.1089754684219e-05
  82    0.00021383401594555
  83    6.6801137304738e-05
  84    -4.9050973128048e-05
  85    4.7530176870957e-05
  86    2.5087995654104e-05
  87    4.953823834196e-05
  88    -0.00062065693602203
  89    -1.5677570896866e-05
  90    -1.8233754816649e-05
  91    1.113141912788e-05
  92    0.00026099599383582
  93    0.0006451982410146
  94    -1.2425801198799e-05
  95    1.8963375992653e-05
  96    1.1251931955074e-05
  97    7.8527093660584e-06
  98    -1.9494038425055e-05
  99    -4.7776474313465e-05
 100    -4.0138650259125e-05
 101    -0.00016448272306209
 102    6.9402456918326e-06
 103    -1.0492980889958e-05
 104    7.6809271171891e-05
 105    -1.9650616810846e-05
 106    -0.00020659287864527
 107    -6.4246992392649e-05
 108    8.9323415272534e-06
 109    7.628193169836e-05
 110    8.010890211183e-05
 111    -6.3829749124659e-05
 112    -4.4814414437927e-05
 113    1.9897719520703e-05
 114    7.1378857362987e-05
 115    -6.8527883051524e-05
 116    -0.00011683500397152
 117    0.00083631115931291
 118    3.9332005306245e-06
 119    -3.8343107180609e-05
 120    3.9218958628256e-05
 121    0.00029833417103466
 122    2.3219400381709e-05
 123    -0.00014827748979753
 124    -6.3716282243902e-06
 125    7.8144091319165e-06
 126    1.6629887349743e-05
 127    -3.2144209979526e-05
 128    5.2132298351442e-05
 129    -2.0680411395012e-05
 130    -0.00033497209038655
 131    8.044758655908e-06
 132    5.9891540767112e-06
 133    2.9577757460008e-05
 134    2.5340640854103e-05
 135    -0.00011768932321765
 136    -1.3716707898937e-05
 137    -2.509914001312e-05
 138    -2.7308536666797e-05
 139    -2.4687445405739e-05
 140    -4.201713234668e-05
 141    0.00030158319346491
 142    7.2598723307274e-06
 143    2.4368606826861e-06
 144    -7.8741753472181e-06
 145    -0.0002318608698745
 146    6.0820413621478e-05
 147    5.9588091984165e-05
 148    -2.7078928825636e-06
 149    2.8695838011762e-06
 150    -4.5343372400145e-06
 151    1.2489272238279e-05
 152    -4.621966526435e-06
 153    -0.00010684966374531
 154    -0.00010054658495387
 155    -2.5610354414611e-05
 156    2.8311701505954e-05
 157    2.0240663597413e-05
 158    -2.4027431453149e-05
 159    -8.3979634988836e-05
 160    -5.8655914042864e-05
 161    -8.0695148927659e-06
 162    6.787243906494e-06
 163    -9.2751952463788e-06
 164    -3.4207127263075e-05
 165    -0.00027954310953418
 166    -4.5430506599149e-05
 167    3.0240994856965e-05
 168    -1.2356935070614e-06
 169    0.00022058959689938
 170    -0.00020201214952113
 171    -0.00014301181460685
 172    -2.7066741630794e-06
 173    7.6052987440327e-06
 174    -1.2002243365642e-05
 175    2.843728630125e-06
 176    -1.6874787223558e-05
 177    -2.0699041075535e-05
 178    8.4386886825903e-05
 179    -8.5891197798849e-07
 180    1.6677381971826e-06
 181    -4.5066341243675e-06
 182    1.7506847488924e-05
 183    3.3046579256915e-05
 184    -7.3284440501232e-05
 185    -5.1912307324146e-06
 186    7.2849953394522e-06
 187    9.3710123146515e-06
 188    0.00012993556254754
 189    -0.00010015554773364
 190    -8.785664041238e-05
 191    1.2435277166944e-06
 192    2.2977026953969e-06
 193    -7.4244348484619e-06
 194    -3.0890352615466e-06
 195    -5.3043506425715e-06
 196    -1.6951343416818e-05
 197    -2.0102084367495e-05
 198    5.4997275037321e-06
 199    1.7361367532128e-06
 200    -3.5264607647102e-06
 201    -2.2636089001093e-05
 202    1.5949600317868e-06
 203    -1.444850870746e-05
 204    9.3611411315769e-06
 205    1.0580327578484e-05
 206    -2.1038963269288e-06
 207    6.8413091485033e-05
 208    -1.588796353706e-05
 209    5.5363994933476e-06
 210    1.5035002876176e-05
 211    -1.8495522574612e-05
 212    -2.9069511349835e-05
 213    0.00027004590606427
 214    9.8597878756609e-06
 215    -3.7283401106502e-06
 216    -9.5239506292495e-06
 217    0.00019936962806796
 218    -5.4388670639081e-05
 219    -8.0778012811627e-05
 220    -1.3754991029896e-06
 221    -1.6486176159777e-05
 222    5.490215105796e-06
 223    8.9186561986668e-06
 224    -1.1856942025079e-06
 225    3.2617197870857e-05
 226    5.793118440154e-05
 227    -1.2757862787044e-05
 228    -2.540581776899e-06
 229    -1.1901500468154e-06
 230    1.1112519061898e-05
 231    5.3804403811148e-05
 232    -3.9327798025027e-06
 233    6.4724398993649e-06
 234    1.2369339365279e-05
 235    4.6286370059145e-07
 236    3.4162242133308e-07
 237    -7.9225842548709e-05
 238    2.9587101935251e-06
 239    1.0793065680254e-06
 240    -4.1157889987652e-06
 241    3.6505287829483e-05
 242    -6.4012673598209e-05
 243    1.796118721086e-05
 244    2.0147769325171e-06
 245    1.8523480780896e-06
 246    -1.7329295156961e-06
 247    5.5016118690152e-08
 248    9.2020455948936e-07
 249    -1.7413084641248e-05
 250    1.0849918252346e-05
 251    -4.2383471037585e-06
 252    -9.0424779493474e-07
 253    -1.0030375532386e-07
 254    -1.6323377466534e-05
 255    5.6058924456758e-05
 256    3.6803509641122e-07
 257    4.193335164897e-06
 258    -9.7201653865475e-07
 259    -1.0563094680018e-05
 260    -2.0088215639421e-05
 261    7.1841412903583e-05
 262    -5.1197183577027e-06