[Molden Format]
made by pyscf v[2.0.1]
[Atoms] (AU)
O   1   8     0.00000000000000     0.00000000000000    10.56380536055454
H   2   1     0.00000000000000     0.00000000000000     8.74040353865358
H   3   1    -0.05031916615174     1.78353065140343    10.93967705702121
O   4   8     0.00000000000000     0.00000000000000     2.31533471513237
C   5   6     0.00000000000000     0.00000000000000     0.00000000000000
C   6   6     2.01118073026938    -1.40227222164369    -1.50774939176400
C   7   6    -2.01249334291722     1.41331050329955    -1.50315905028694
H   8   1     3.32037363730244    -2.26721897153159    -0.13599698591495
C   9   6     3.45899267434009     0.28739631745591    -3.37437943254505
H   10   1     1.07662969841332    -2.94725144642667    -2.56541439481080
H   11   1    -2.67503415753480     0.18421555839588    -3.06194479365997
H   12   1    -1.07974048864772     3.03851734677796    -2.43674295017013
C   13   6    -4.21607110578555     2.32938802552922     0.11994162256091
H   14   1     4.24440173074564     1.93368664142019    -2.34976285512790
H   15   1     2.15020713235517     1.04714335134846    -4.81494497423699
C   16   6     5.60746363007797    -1.12419643481196    -4.70268606082550
H   17   1    -3.46838323670267     3.50951302338067     1.66946842715333
H   18   1    -5.11873485366228     0.68575958301209     1.04047743976495
C   19   6    -6.18314754751344     3.80909592987882    -1.39656589068747
H   20   1     6.93011263717176    -1.87550812453645    -3.26656317360070
C   21   6     7.06356622236532     0.52877932406334    -6.57829775293605
H   22   1     4.82318879258361    -2.78573437948532    -5.70504560381835
H   23   1    -6.91582688743803     2.61304780074712    -2.95074552451969
H   24   1    -5.26532430573853     5.45420349051338    -2.31005832200284
C   25   6    -8.39941882261433     4.73263980500213     0.21800571437956
H   26   1     7.83338371486801     2.19084139882824    -5.57093109900697
H   27   1     5.73544244039420     1.27376866537418    -8.01071492370229
C   28   6     9.21124858443101    -0.89699110072176    -7.88926949186242
H   29   1    -7.66272760055236     5.92277078003992     1.77035591474408
H   30   1    -9.31497248082589     3.08753015622020     1.12614408368786
C   31   6   -10.35481709231879     6.21833079391143    -1.30905206253246
H   32   1    10.58815905329501    -1.61074586756696    -6.49512691622620
H   33   1    10.23506248045667     0.32468009384095    -9.23072870921204
H   34   1     8.47665842847139    -2.53598436989925    -8.94921964622535
H   35   1    -9.48948872868064     7.90013588951020    -2.18823918416067
H   36   1   -11.93332513000955     6.86460487874102    -0.11255798845995
H   37   1   -11.15126291841033     5.04495968327630    -2.83849898862534
[GTO]
1 0
 s    8 1.00
                 11720  0.00070964594651845
                  1759  0.0054672722921914
                 400.8   0.027823118610189
                 113.7    0.10474773971146
                 37.03    0.28292084635691
                 13.27    0.44849523869833
                 5.025    0.27081688521277
                 1.013    0.01545029160744
 s    8 1.00
                 11720  -0.00031444341168873
                  1759  -0.0024821376810179
                 400.8  -0.012316355381583
                 113.7  -0.050538917343672
                 37.03   -0.13938490331632
                 13.27   -0.32507749481778
                 5.025   -0.22984830758785
                 1.013     1.0953793467883
 s    1 1.00
                0.3023                   1
 p    3 1.00
                  17.7   0.062679166281506
                 3.854    0.33353656587936
                 1.046    0.74123964163973
 p    1 1.00
                0.2753                   1
 d    1 1.00
                 1.185                   1

2 0
 s    3 1.00
                 13.01   0.033498726389998
                 1.962    0.23480080117413
                0.4446     0.8136829578829
 s    1 1.00
                 0.122                   1
 p    1 1.00
                 0.727                   1

3 0
 s    3 1.00
                 13.01   0.033498726389998
                 1.962    0.23480080117413
                0.4446     0.8136829578829
 s    1 1.00
                 0.122                   1
 p    1 1.00
                 0.727                   1

4 0
 s    8 1.00
                 11720  0.00070964594651845
                  1759  0.0054672722921914
                 400.8   0.027823118610189
                 113.7    0.10474773971146
                 37.03    0.28292084635691
                 13.27    0.44849523869833
                 5.025    0.27081688521277
                 1.013    0.01545029160744
 s    8 1.00
                 11720  -0.00031444341168873
                  1759  -0.0024821376810179
                 400.8  -0.012316355381583
                 113.7  -0.050538917343672
                 37.03   -0.13938490331632
                 13.27   -0.32507749481778
                 5.025   -0.22984830758785
                 1.013     1.0953793467883
 s    1 1.00
                0.3023                   1
 p    3 1.00
                  17.7   0.062679166281506
                 3.854    0.33353656587936
                 1.046    0.74123964163973
 p    1 1.00
                0.2753                   1
 d    1 1.00
                 1.185                   1

5 0
 s    8 1.00
                  6665  0.00069158396281299
                  1000  0.0053257961529341
                   228   0.027060721042034
                 64.71    0.10165684614077
                 21.06     0.2745748236174
                 7.495    0.44829431892377
                 2.797    0.28490261071525
                0.5215   0.015194859206082
 s    8 1.00
                  6665  -0.00029326965268655
                  1000  -0.0023180354739745
                   228  -0.011499786038565
                 64.71  -0.046826727009787
                 21.06   -0.12846616875047
                 7.495   -0.30126627246289
                 2.797   -0.25563070233011
                0.5215      1.093793361012
 s    1 1.00
                0.1596                   1
 p    3 1.00
                 9.439   0.056979251590039
                 2.002    0.31320721150073
                0.5456    0.76037674173753
 p    1 1.00
                0.1517                   1
 d    1 1.00
                  0.55                   1

6 0
 s    8 1.00
                  6665  0.00069158396281299
                  1000  0.0053257961529341
                   228   0.027060721042034
                 64.71    0.10165684614077
                 21.06     0.2745748236174
                 7.495    0.44829431892377
                 2.797    0.28490261071525
                0.5215   0.015194859206082
 s    8 1.00
                  6665  -0.00029326965268655
                  1000  -0.0023180354739745
                   228  -0.011499786038565
                 64.71  -0.046826727009787
                 21.06   -0.12846616875047
                 7.495   -0.30126627246289
                 2.797   -0.25563070233011
                0.5215      1.093793361012
 s    1 1.00
                0.1596                   1
 p    3 1.00
                 9.439   0.056979251590039
                 2.002    0.31320721150073
                0.5456    0.76037674173753
 p    1 1.00
                0.1517                   1
 d    1 1.00
                  0.55                   1

7 0
 s    8 1.00
                  6665  0.00069158396281299
                  1000  0.0053257961529341
                   228   0.027060721042034
                 64.71    0.10165684614077
                 21.06     0.2745748236174
                 7.495    0.44829431892377
                 2.797    0.28490261071525
                0.5215   0.015194859206082
 s    8 1.00
                  6665  -0.00029326965268655
                  1000  -0.0023180354739745
                   228  -0.011499786038565
                 64.71  -0.046826727009787
                 21.06   -0.12846616875047
                 7.495   -0.30126627246289
                 2.797   -0.25563070233011
                0.5215      1.093793361012
 s    1 1.00
                0.1596                   1
 p    3 1.00
                 9.439   0.056979251590039
                 2.002    0.31320721150073
                0.5456    0.76037674173753
 p    1 1.00
                0.1517                   1
 d    1 1.00
                  0.55                   1

8 0
 s    3 1.00
                 13.01   0.033498726389998
                 1.962    0.23480080117413
                0.4446     0.8136829578829
 s    1 1.00
                 0.122                   1
 p    1 1.00
                 0.727                   1

9 0
 s    8 1.00
                  6665  0.00069158396281299
                  1000  0.0053257961529341
                   228   0.027060721042034
                 64.71    0.10165684614077
                 21.06     0.2745748236174
                 7.495    0.44829431892377
                 2.797    0.28490261071525
                0.5215   0.015194859206082
 s    8 1.00
                  6665  -0.00029326965268655
                  1000  -0.0023180354739745
                   228  -0.011499786038565
                 64.71  -0.046826727009787
                 21.06   -0.12846616875047
                 7.495   -0.30126627246289
                 2.797   -0.25563070233011
                0.5215      1.093793361012
 s    1 1.00
                0.1596                   1
 p    3 1.00
                 9.439   0.056979251590039
                 2.002    0.31320721150073
                0.5456    0.76037674173753
 p    1 1.00
                0.1517                   1
 d    1 1.00
                  0.55                   1

10 0
 s    3 1.00
                 13.01   0.033498726389998
                 1.962    0.23480080117413
                0.4446     0.8136829578829
 s    1 1.00
                 0.122                   1
 p    1 1.00
                 0.727                   1

11 0
 s    3 1.00
                 13.01   0.033498726389998
                 1.962    0.23480080117413
                0.4446     0.8136829578829
 s    1 1.00
                 0.122                   1
 p    1 1.00
                 0.727                   1

12 0
 s    3 1.00
                 13.01   0.033498726389998
                 1.962    0.23480080117413
                0.4446     0.8136829578829
 s    1 1.00
                 0.122                   1
 p    1 1.00
                 0.727                   1

13 0
 s    8 1.00
                  6665  0.00069158396281299
                  1000  0.0053257961529341
                   228   0.027060721042034
                 64.71    0.10165684614077
                 21.06     0.2745748236174
                 7.495    0.44829431892377
                 2.797    0.28490261071525
                0.5215   0.015194859206082
 s    8 1.00
                  6665  -0.00029326965268655
                  1000  -0.0023180354739745
                   228  -0.011499786038565
                 64.71  -0.046826727009787
                 21.06   -0.12846616875047
                 7.495   -0.30126627246289
                 2.797   -0.25563070233011
                0.5215      1.093793361012
 s    1 1.00
                0.1596                   1
 p    3 1.00
                 9.439   0.056979251590039
                 2.002    0.31320721150073
                0.5456    0.76037674173753
 p    1 1.00
                0.1517                   1
 d    1 1.00
                  0.55                   1

14 0
 s    3 1.00
                 13.01   0.033498726389998
                 1.962    0.23480080117413
                0.4446     0.8136829578829
 s    1 1.00
                 0.122                   1
 p    1 1.00
                 0.727                   1

15 0
 s    3 1.00
                 13.01   0.033498726389998
                 1.962    0.23480080117413
                0.4446     0.8136829578829
 s    1 1.00
                 0.122                   1
 p    1 1.00
                 0.727                   1

16 0
 s    8 1.00
                  6665  0.00069158396281299
                  1000  0.0053257961529341
                   228   0.027060721042034
                 64.71    0.10165684614077
                 21.06     0.2745748236174
                 7.495    0.44829431892377
                 2.797    0.28490261071525
                0.5215   0.015194859206082
 s    8 1.00
                  6665  -0.00029326965268655
                  1000  -0.0023180354739745
                   228  -0.011499786038565
                 64.71  -0.046826727009787
                 21.06   -0.12846616875047
                 7.495   -0.30126627246289
                 2.797   -0.25563070233011
                0.5215      1.093793361012
 s    1 1.00
                0.1596                   1
 p    3 1.00
                 9.439   0.056979251590039
                 2.002    0.31320721150073
                0.5456    0.76037674173753
 p    1 1.00
                0.1517                   1
 d    1 1.00
                  0.55                   1

17 0
 s    3 1.00
                 13.01   0.033498726389998
                 1.962    0.23480080117413
                0.4446     0.8136829578829
 s    1 1.00
                 0.122                   1
 p    1 1.00
                 0.727                   1

18 0
 s    3 1.00
                 13.01   0.033498726389998
                 1.962    0.23480080117413
                0.4446     0.8136829578829
 s    1 1.00
                 0.122                   1
 p    1 1.00
                 0.727                   1

19 0
 s    8 1.00
                  6665  0.00069158396281299
                  1000  0.0053257961529341
                   228   0.027060721042034
                 64.71    0.10165684614077
                 21.06     0.2745748236174
                 7.495    0.44829431892377
                 2.797    0.28490261071525
                0.5215   0.015194859206082
 s    8 1.00
                  6665  -0.00029326965268655
                  1000  -0.0023180354739745
                   228  -0.011499786038565
                 64.71  -0.046826727009787
                 21.06   -0.12846616875047
                 7.495   -0.30126627246289
                 2.797   -0.25563070233011
                0.5215      1.093793361012
 s    1 1.00
                0.1596                   1
 p    3 1.00
                 9.439   0.056979251590039
                 2.002    0.31320721150073
                0.5456    0.76037674173753
 p    1 1.00
                0.1517                   1
 d    1 1.00
                  0.55                   1

20 0
 s    3 1.00
                 13.01   0.033498726389998
                 1.962    0.23480080117413
                0.4446     0.8136829578829
 s    1 1.00
                 0.122                   1
 p    1 1.00
                 0.727                   1

21 0
 s    8 1.00
                  6665  0.00069158396281299
                  1000  0.0053257961529341
                   228   0.027060721042034
                 64.71    0.10165684614077
                 21.06     0.2745748236174
                 7.495    0.44829431892377
                 2.797    0.28490261071525
                0.5215   0.015194859206082
 s    8 1.00
                  6665  -0.00029326965268655
                  1000  -0.0023180354739745
                   228  -0.011499786038565
                 64.71  -0.046826727009787
                 21.06   -0.12846616875047
                 7.495   -0.30126627246289
                 2.797   -0.25563070233011
                0.5215      1.093793361012
 s    1 1.00
                0.1596                   1
 p    3 1.00
                 9.439   0.056979251590039
                 2.002    0.31320721150073
                0.5456    0.76037674173753
 p    1 1.00
                0.1517                   1
 d    1 1.00
                  0.55                   1

22 0
 s    3 1.00
                 13.01   0.033498726389998
                 1.962    0.23480080117413
                0.4446     0.8136829578829
 s    1 1.00
                 0.122                   1
 p    1 1.00
                 0.727                   1

23 0
 s    3 1.00
                 13.01   0.033498726389998
                 1.962    0.23480080117413
                0.4446     0.8136829578829
 s    1 1.00
                 0.122                   1
 p    1 1.00
                 0.727                   1

24 0
 s    3 1.00
                 13.01   0.033498726389998
                 1.962    0.23480080117413
                0.4446     0.8136829578829
 s    1 1.00
                 0.122                   1
 p    1 1.00
                 0.727                   1

25 0
 s    8 1.00
                  6665  0.00069158396281299
                  1000  0.0053257961529341
                   228   0.027060721042034
                 64.71    0.10165684614077
                 21.06     0.2745748236174
                 7.495    0.44829431892377
                 2.797    0.28490261071525
                0.5215   0.015194859206082
 s    8 1.00
                  6665  -0.00029326965268655
                  1000  -0.0023180354739745
                   228  -0.011499786038565
                 64.71  -0.046826727009787
                 21.06   -0.12846616875047
                 7.495   -0.30126627246289
                 2.797   -0.25563070233011
                0.5215      1.093793361012
 s    1 1.00
                0.1596                   1
 p    3 1.00
                 9.439   0.056979251590039
                 2.002    0.31320721150073
                0.5456    0.76037674173753
 p    1 1.00
                0.1517                   1
 d    1 1.00
                  0.55                   1

26 0
 s    3 1.00
                 13.01   0.033498726389998
                 1.962    0.23480080117413
                0.4446     0.8136829578829
 s    1 1.00
                 0.122                   1
 p    1 1.00
                 0.727                   1

27 0
 s    3 1.00
                 13.01   0.033498726389998
                 1.962    0.23480080117413
                0.4446     0.8136829578829
 s    1 1.00
                 0.122                   1
 p    1 1.00
                 0.727                   1

28 0
 s    8 1.00
                  6665  0.00069158396281299
                  1000  0.0053257961529341
                   228   0.027060721042034
                 64.71    0.10165684614077
                 21.06     0.2745748236174
                 7.495    0.44829431892377
                 2.797    0.28490261071525
                0.5215   0.015194859206082
 s    8 1.00
                  6665  -0.00029326965268655
                  1000  -0.0023180354739745
                   228  -0.011499786038565
                 64.71  -0.046826727009787
                 21.06   -0.12846616875047
                 7.495   -0.30126627246289
                 2.797   -0.25563070233011
                0.5215      1.093793361012
 s    1 1.00
                0.1596                   1
 p    3 1.00
                 9.439   0.056979251590039
                 2.002    0.31320721150073
                0.5456    0.76037674173753
 p    1 1.00
                0.1517                   1
 d    1 1.00
                  0.55                   1

29 0
 s    3 1.00
                 13.01   0.033498726389998
                 1.962    0.23480080117413
                0.4446     0.8136829578829
 s    1 1.00
                 0.122                   1
 p    1 1.00
                 0.727                   1

30 0
 s    3 1.00
                 13.01   0.033498726389998
                 1.962    0.23480080117413
                0.4446     0.8136829578829
 s    1 1.00
                 0.122                   1
 p    1 1.00
                 0.727                   1

31 0
 s    8 1.00
                  6665  0.00069158396281299
                  1000  0.0053257961529341
                   228   0.027060721042034
                 64.71    0.10165684614077
                 21.06     0.2745748236174
                 7.495    0.44829431892377
                 2.797    0.28490261071525
                0.5215   0.015194859206082
 s    8 1.00
                  6665  -0.00029326965268655
                  1000  -0.0023180354739745
                   228  -0.011499786038565
                 64.71  -0.046826727009787
                 21.06   -0.12846616875047
                 7.495   -0.30126627246289
                 2.797   -0.25563070233011
                0.5215      1.093793361012
 s    1 1.00
                0.1596                   1
 p    3 1.00
                 9.439   0.056979251590039
                 2.002    0.31320721150073
                0.5456    0.76037674173753
 p    1 1.00
                0.1517                   1
 d    1 1.00
                  0.55                   1

32 0
 s    3 1.00
                 13.01   0.033498726389998
                 1.962    0.23480080117413
                0.4446     0.8136829578829
 s    1 1.00
                 0.122                   1
 p    1 1.00
                 0.727                   1

33 0
 s    3 1.00
                 13.01   0.033498726389998
                 1.962    0.23480080117413
                0.4446     0.8136829578829
 s    1 1.00
                 0.122                   1
 p    1 1.00
                 0.727                   1

34 0
 s    3 1.00
                 13.01   0.033498726389998
                 1.962    0.23480080117413
                0.4446     0.8136829578829
 s    1 1.00
                 0.122                   1
 p    1 1.00
                 0.727                   1

35 0
 s    3 1.00
                 13.01   0.033498726389998
                 1.962    0.23480080117413
                0.4446     0.8136829578829
 s    1 1.00
                 0.122                   1
 p    1 1.00
                 0.727                   1

36 0
 s    3 1.00
                 13.01   0.033498726389998
                 1.962    0.23480080117413
                0.4446     0.8136829578829
 s    1 1.00
                 0.122                   1
 p    1 1.00
                 0.727                   1

37 0
 s    3 1.00
                 13.01   0.033498726389998
                 1.962    0.23480080117413
                0.4446     0.8136829578829
 s    1 1.00
                 0.122                   1
 p    1 1.00
                 0.727                   1

[5d]
[7f]
[9g]

[MO]
 Sym= A
 Ene=               0
 Spin= Alpha
 Occup=    1.00000
   1    -3.5017887767554e-05
   2    -2.1568326123738e-05
   3    8.1517613315126e-05
   4    -7.2406082808352e-08
   5    3.1189602378134e-06
   6    1.5706434106284e-07
   7    4.6870322085973e-07
   8    -1.7464853609425e-05
   9    -5.9500695869762e-05
  10    1.0849271099247e-05
  11    1.3109070017088e-08
  12    -7.5462721391793e-07
  13     5.74465224303e-07
  14    3.0288816340744e-08
  15    -1.0384810255653e-05
  16    -0.00011890720276082
  17    -6.039382505498e-08
  18    1.0983931499551e-06
  19    -3.2944424209633e-05
  20    -4.8688673292976e-06
  21    4.7468738497953e-05
  22    1.5712502973182e-07
  23    -5.3047916728984e-06
  24    1.8217061286348e-06
  25       1.0013608502662
  26    0.0019490732446495
  27    -0.0067796655780364
  28    -4.4232980989379e-06
  29    8.4392105601278e-06
  30    -0.0016571630437555
  31    -2.5490881932558e-07
  32    -7.1762597671275e-07
  33    0.0018207738493052
  34    0.00012802731993809
  35    -3.1319571203826e-06
  36    1.3902908009993e-06
  37     6.75997589252e-05
  38    -0.00017603067236936
  39    0.00027296050060288
  40    0.00036816702927303
  41    0.0014029840518618
  42    1.9191996075425e-05
  43    -1.2642322723357e-05
  44    -8.7689050059574e-06
  45    8.6161762323924e-05
  46    -6.5761216603831e-05
  47     0.003543416901901
  48    -0.00053732326645898
  49    -8.9643584930228e-06
  50    2.7991269981444e-06
  51    2.883601038738e-05
  52    -0.00010739919268557
  53    -8.5026217076837e-05
  54    -0.00016450083555073
  55    0.0013700946794148
  56    7.6553815607789e-05
  57    -5.7240147095665e-06
  58    -3.5740158593852e-05
  59    -0.00042431953728732
  60    0.00047717645641538
  61    -0.00092498918525255
  62    -0.00011761949208885
  63    0.00014998741625175
  64    -0.00014276411498707
  65     5.51243604132e-05
  66    -0.00013010620622358
  67    -4.0631461458861e-05
  68    -9.1219353829067e-05
  69    0.00052043648019915
  70    -7.2572854780475e-05
  71    4.6051837921417e-05
  72    -5.608594553243e-05
  73    0.00099096990076967
  74    -0.00076513723579215
  75    -0.00063138885517518
  76    -0.0001404951267892
  77    -0.00012172537746673
  78    8.9671426258471e-05
  79    5.9134915795659e-05
  80    -0.00015131753301398
  81    -6.5853496620782e-05
  82    0.00020521823593964
  83    6.5908960222236e-05
  84    -4.8390084412977e-05
  85    4.9085742824634e-05
  86    2.5016382970344e-05
  87    4.9418867856239e-05
  88    -0.00060415159982274
  89    -1.5961309004412e-05
  90    -1.8038334408769e-05
  91    1.1961477822682e-05
  92    0.00025575223580484
  93    0.00062345568026222
  94    -1.8670694370933e-05
  95    1.8152037199132e-05
  96    1.0909077795362e-05
  97    7.1115092379339e-06
  98    -2.0540048170888e-05
  99    -4.5355383620036e-05
 100    -3.6797541114004e-05
 101    -0.00015817570678118
 102    9.3337630736179e-06
 103    -9.7012877644206e-06
 104    7.4359968670498e-05
 105    -1.81179449848e-05
 106    -0.00020109033495616
 107    -6.4726538533232e-05
 108    1.1529825379364e-05
 109    7.4765605852274e-05
 110    7.935134672009e-05
 111    -5.744558948541e-05
 112    -4.5984898242526e-05
 113    1.8455933566686e-05
 114    6.9795574516476e-05
 115    -6.9219551546043e-05
 116    -0.00011897921445955
 117    0.00082614991564939
 118    1.8519559482024e-06
 119    -3.6459431479566e-05
 120    3.9538980655664e-05
 121    0.00030905534291055
 122    1.7079345866907e-05
 123    -0.00013104947068604
 124    -6.6387102190534e-06
 125    9.1986714835552e-06
 126    1.7451725481533e-05
 127    -3.2079425445643e-05
 128    5.121898948926e-05
 129    -1.97745802261e-05
 130    -0.00032211163338863
 131    7.5387985799655e-06
 132    5.8661179841608e-06
 133    2.9170627101181e-05
 134    2.5478535611285e-05
 135    -0.00011888563483934
 136    -1.3433115919274e-05
 137    -2.4073910108498e-05
 138    -2.6565995904587e-05
 139    -2.376578061866e-05
 140    -4.0572859201672e-05
 141    0.00028638074533565
 142    7.614621877355e-06
 143    2.8341237682945e-06
 144    -8.1128858771908e-06
 145    -0.00022978436314274
 146    5.458647434092e-05
 147    6.3172644263177e-05
 148    -2.5253256627232e-06
 149    2.6758389939524e-06
 150    -3.6975511097301e-06
 151    1.1851521018797e-05
 152    -4.7403184155064e-06
 153    -0.00010598225467783
 154    -0.00011440133087909
 155    -2.4867047602266e-05
 156     2.99457895516e-05
 157    2.1344192363768e-05
 158    -2.396628965998e-05
 159    -8.6737632204397e-05
 160    -5.8976548071519e-05
 161    -7.8819475020677e-06
 162    6.2647735256979e-06
 163    -1.0493764855115e-05
 164    -3.6084972362587e-05
 165    -0.00025907991321085
 166    -4.4467684380656e-05
 167    2.9789903860121e-05
 168    -1.1641420512019e-06
 169    0.00022471628616537
 170    -0.00020571894157933
 171    -0.00013576804936008
 172    -3.1141184928762e-06
 173    7.6746949483662e-06
 174    -1.2096731340827e-05
 175    2.9973786091955e-06
 176    -1.7269999056823e-05
 177    -2.0153445427387e-05
 178    8.1900453831085e-05
 179    -5.1607685037958e-07
 180    1.9488678056612e-06
 181    -4.7363402429217e-06
 182    1.6664646363216e-05
 183    3.1666084155069e-05
 184    -6.3023513768742e-05
 185    -5.5341852481463e-06
 186    6.8296511586825e-06
 187    9.5621620586359e-06
 188    0.00012602678638785
 189    -0.00010040094243795
 190    -8.2581660387359e-05
 191     1.29956857354e-06
 192    2.0215219831917e-06
 193    -7.5099539512699e-06
 194    -3.130134862531e-06
 195    -4.8561100738148e-06
 196    -1.7354084355644e-05
 197    -1.935916071577e-05
 198    5.4841923453705e-06
 199    1.7740102657848e-06
 200    -3.8155927823151e-06
 201    -2.298737848816e-05
 202    3.2370384376477e-06
 203    -1.4091621354008e-05
 204    9.5506593861248e-06
 205    1.0618521759063e-05
 206    -2.473270339951e-06
 207    6.8194477264921e-05
 208    -1.6032083692634e-05
 209    5.5548916544538e-06
 210    1.4768436353864e-05
 211    -1.7891525870341e-05
 212    -2.8134983215342e-05
 213    0.00025925552774597
 214    9.1355554135833e-06
 215    -3.4707160375228e-06
 216    -9.4364882559436e-06
 217    0.00020063028223496
 218    -5.5753678736585e-05
 219    -7.8462386157493e-05
 220    -1.3325357699816e-06
 221    -1.6595844515018e-05
 222    5.4912253857385e-06
 223    8.8105480258636e-06
 224    -1.1033952825876e-06
 225    3.1454059385691e-05
 226    5.5847442449541e-05
 227    -1.2472873744028e-05
 228    -2.3308216816025e-06
 229    -1.2008524872527e-06
 230    1.072509078252e-05
 231    5.3787135091929e-05
 232    -3.813717884814e-06
 233    6.3023054861391e-06
 234    1.2198033605109e-05
 235    3.8271061856152e-07
 236    1.7086450255811e-07
 237    -7.8327646205625e-05
 238    3.0430500738534e-06
 239    1.0234271933907e-06
 240    -4.1417543179235e-06
 241    3.552697975309e-05
 242    -6.2947336952927e-05
 243    1.7511951666037e-05
 244    1.9392040725256e-06
 245    1.7672475115284e-06
 246    -1.7650126444724e-06
 247    8.0538608366227e-08
 248    9.1751894367863e-07
 249    -1.7535687759862e-05
 250    1.3549526733099e-05
 251    -4.4026169336867e-06
 252    -1.0254410354759e-06
 253    -3.9503660854949e-07
 254    -1.589747380975e-05
 255    5.6141882844203e-05
 256    9.3878443120244e-08
 257    4.3334481301735e-06
 258    -1.0737370413559e-06
 259    -1.1022999999933e-05
 260    -2.0807712434652e-05
 261    7.8279055843092e-05
 262    -4.8642273351204e-06