[Molden Format]
made by pyscf v[2.0.1]
[Atoms] (AU)
O   1   8     0.00000000000000     0.00000000000000     7.91818878616346
H   2   1     0.00000000000000     0.00000000000000     6.09478696426249
H   3   1    -0.05031916615174     1.78353065140343     8.29406048263013
O   4   8     0.00000000000000     0.00000000000000     2.31533471513237
C   5   6     0.00000000000000     0.00000000000000     0.00000000000000
C   6   6     2.01118073026938    -1.40227222164369    -1.50774939176400
C   7   6    -2.01249334291722     1.41331050329955    -1.50315905028694
H   8   1     3.32037363730244    -2.26721897153159    -0.13599698591495
C   9   6     3.45899267434009     0.28739631745591    -3.37437943254505
H   10   1     1.07662969841332    -2.94725144642667    -2.56541439481080
H   11   1    -2.67503415753480     0.18421555839588    -3.06194479365997
H   12   1    -1.07974048864772     3.03851734677796    -2.43674295017013
C   13   6    -4.21607110578555     2.32938802552922     0.11994162256091
H   14   1     4.24440173074564     1.93368664142019    -2.34976285512790
H   15   1     2.15020713235517     1.04714335134846    -4.81494497423699
C   16   6     5.60746363007797    -1.12419643481196    -4.70268606082550
H   17   1    -3.46838323670267     3.50951302338067     1.66946842715333
H   18   1    -5.11873485366228     0.68575958301209     1.04047743976495
C   19   6    -6.18314754751344     3.80909592987882    -1.39656589068747
H   20   1     6.93011263717176    -1.87550812453645    -3.26656317360070
C   21   6     7.06356622236532     0.52877932406334    -6.57829775293605
H   22   1     4.82318879258361    -2.78573437948532    -5.70504560381835
H   23   1    -6.91582688743803     2.61304780074712    -2.95074552451969
H   24   1    -5.26532430573853     5.45420349051338    -2.31005832200284
C   25   6    -8.39941882261433     4.73263980500213     0.21800571437956
H   26   1     7.83338371486801     2.19084139882824    -5.57093109900697
H   27   1     5.73544244039420     1.27376866537418    -8.01071492370229
C   28   6     9.21124858443101    -0.89699110072176    -7.88926949186242
H   29   1    -7.66272760055236     5.92277078003992     1.77035591474408
H   30   1    -9.31497248082589     3.08753015622020     1.12614408368786
C   31   6   -10.35481709231879     6.21833079391143    -1.30905206253246
H   32   1    10.58815905329501    -1.61074586756696    -6.49512691622620
H   33   1    10.23506248045667     0.32468009384095    -9.23072870921204
H   34   1     8.47665842847139    -2.53598436989925    -8.94921964622535
H   35   1    -9.48948872868064     7.90013588951020    -2.18823918416067
H   36   1   -11.93332513000955     6.86460487874102    -0.11255798845995
H   37   1   -11.15126291841033     5.04495968327630    -2.83849898862534
[GTO]
1 0
 s    8 1.00
                 11720  0.00070964594651845
                  1759  0.0054672722921914
                 400.8   0.027823118610189
                 113.7    0.10474773971146
                 37.03    0.28292084635691
                 13.27    0.44849523869833
                 5.025    0.27081688521277
                 1.013    0.01545029160744
 s    8 1.00
                 11720  -0.00031444341168873
                  1759  -0.0024821376810179
                 400.8  -0.012316355381583
                 113.7  -0.050538917343672
                 37.03   -0.13938490331632
                 13.27   -0.32507749481778
                 5.025   -0.22984830758785
                 1.013     1.0953793467883
 s    1 1.00
                0.3023                   1
 p    3 1.00
                  17.7   0.062679166281506
                 3.854    0.33353656587936
                 1.046    0.74123964163973
 p    1 1.00
                0.2753                   1
 d    1 1.00
                 1.185                   1

2 0
 s    3 1.00
                 13.01   0.033498726389998
                 1.962    0.23480080117413
                0.4446     0.8136829578829
 s    1 1.00
                 0.122                   1
 p    1 1.00
                 0.727                   1

3 0
 s    3 1.00
                 13.01   0.033498726389998
                 1.962    0.23480080117413
                0.4446     0.8136829578829
 s    1 1.00
                 0.122                   1
 p    1 1.00
                 0.727                   1

4 0
 s    8 1.00
                 11720  0.00070964594651845
                  1759  0.0054672722921914
                 400.8   0.027823118610189
                 113.7    0.10474773971146
                 37.03    0.28292084635691
                 13.27    0.44849523869833
                 5.025    0.27081688521277
                 1.013    0.01545029160744
 s    8 1.00
                 11720  -0.00031444341168873
                  1759  -0.0024821376810179
                 400.8  -0.012316355381583
                 113.7  -0.050538917343672
                 37.03   -0.13938490331632
                 13.27   -0.32507749481778
                 5.025   -0.22984830758785
                 1.013     1.0953793467883
 s    1 1.00
                0.3023                   1
 p    3 1.00
                  17.7   0.062679166281506
                 3.854    0.33353656587936
                 1.046    0.74123964163973
 p    1 1.00
                0.2753                   1
 d    1 1.00
                 1.185                   1

5 0
 s    8 1.00
                  6665  0.00069158396281299
                  1000  0.0053257961529341
                   228   0.027060721042034
                 64.71    0.10165684614077
                 21.06     0.2745748236174
                 7.495    0.44829431892377
                 2.797    0.28490261071525
                0.5215   0.015194859206082
 s    8 1.00
                  6665  -0.00029326965268655
                  1000  -0.0023180354739745
                   228  -0.011499786038565
                 64.71  -0.046826727009787
                 21.06   -0.12846616875047
                 7.495   -0.30126627246289
                 2.797   -0.25563070233011
                0.5215      1.093793361012
 s    1 1.00
                0.1596                   1
 p    3 1.00
                 9.439   0.056979251590039
                 2.002    0.31320721150073
                0.5456    0.76037674173753
 p    1 1.00
                0.1517                   1
 d    1 1.00
                  0.55                   1

6 0
 s    8 1.00
                  6665  0.00069158396281299
                  1000  0.0053257961529341
                   228   0.027060721042034
                 64.71    0.10165684614077
                 21.06     0.2745748236174
                 7.495    0.44829431892377
                 2.797    0.28490261071525
                0.5215   0.015194859206082
 s    8 1.00
                  6665  -0.00029326965268655
                  1000  -0.0023180354739745
                   228  -0.011499786038565
                 64.71  -0.046826727009787
                 21.06   -0.12846616875047
                 7.495   -0.30126627246289
                 2.797   -0.25563070233011
                0.5215      1.093793361012
 s    1 1.00
                0.1596                   1
 p    3 1.00
                 9.439   0.056979251590039
                 2.002    0.31320721150073
                0.5456    0.76037674173753
 p    1 1.00
                0.1517                   1
 d    1 1.00
                  0.55                   1

7 0
 s    8 1.00
                  6665  0.00069158396281299
                  1000  0.0053257961529341
                   228   0.027060721042034
                 64.71    0.10165684614077
                 21.06     0.2745748236174
                 7.495    0.44829431892377
                 2.797    0.28490261071525
                0.5215   0.015194859206082
 s    8 1.00
                  6665  -0.00029326965268655
                  1000  -0.0023180354739745
                   228  -0.011499786038565
                 64.71  -0.046826727009787
                 21.06   -0.12846616875047
                 7.495   -0.30126627246289
                 2.797   -0.25563070233011
                0.5215      1.093793361012
 s    1 1.00
                0.1596                   1
 p    3 1.00
                 9.439   0.056979251590039
                 2.002    0.31320721150073
                0.5456    0.76037674173753
 p    1 1.00
                0.1517                   1
 d    1 1.00
                  0.55                   1

8 0
 s    3 1.00
                 13.01   0.033498726389998
                 1.962    0.23480080117413
                0.4446     0.8136829578829
 s    1 1.00
                 0.122                   1
 p    1 1.00
                 0.727                   1

9 0
 s    8 1.00
                  6665  0.00069158396281299
                  1000  0.0053257961529341
                   228   0.027060721042034
                 64.71    0.10165684614077
                 21.06     0.2745748236174
                 7.495    0.44829431892377
                 2.797    0.28490261071525
                0.5215   0.015194859206082
 s    8 1.00
                  6665  -0.00029326965268655
                  1000  -0.0023180354739745
                   228  -0.011499786038565
                 64.71  -0.046826727009787
                 21.06   -0.12846616875047
                 7.495   -0.30126627246289
                 2.797   -0.25563070233011
                0.5215      1.093793361012
 s    1 1.00
                0.1596                   1
 p    3 1.00
                 9.439   0.056979251590039
                 2.002    0.31320721150073
                0.5456    0.76037674173753
 p    1 1.00
                0.1517                   1
 d    1 1.00
                  0.55                   1

10 0
 s    3 1.00
                 13.01   0.033498726389998
                 1.962    0.23480080117413
                0.4446     0.8136829578829
 s    1 1.00
                 0.122                   1
 p    1 1.00
                 0.727                   1

11 0
 s    3 1.00
                 13.01   0.033498726389998
                 1.962    0.23480080117413
                0.4446     0.8136829578829
 s    1 1.00
                 0.122                   1
 p    1 1.00
                 0.727                   1

12 0
 s    3 1.00
                 13.01   0.033498726389998
                 1.962    0.23480080117413
                0.4446     0.8136829578829
 s    1 1.00
                 0.122                   1
 p    1 1.00
                 0.727                   1

13 0
 s    8 1.00
                  6665  0.00069158396281299
                  1000  0.0053257961529341
                   228   0.027060721042034
                 64.71    0.10165684614077
                 21.06     0.2745748236174
                 7.495    0.44829431892377
                 2.797    0.28490261071525
                0.5215   0.015194859206082
 s    8 1.00
                  6665  -0.00029326965268655
                  1000  -0.0023180354739745
                   228  -0.011499786038565
                 64.71  -0.046826727009787
                 21.06   -0.12846616875047
                 7.495   -0.30126627246289
                 2.797   -0.25563070233011
                0.5215      1.093793361012
 s    1 1.00
                0.1596                   1
 p    3 1.00
                 9.439   0.056979251590039
                 2.002    0.31320721150073
                0.5456    0.76037674173753
 p    1 1.00
                0.1517                   1
 d    1 1.00
                  0.55                   1

14 0
 s    3 1.00
                 13.01   0.033498726389998
                 1.962    0.23480080117413
                0.4446     0.8136829578829
 s    1 1.00
                 0.122                   1
 p    1 1.00
                 0.727                   1

15 0
 s    3 1.00
                 13.01   0.033498726389998
                 1.962    0.23480080117413
                0.4446     0.8136829578829
 s    1 1.00
                 0.122                   1
 p    1 1.00
                 0.727                   1

16 0
 s    8 1.00
                  6665  0.00069158396281299
                  1000  0.0053257961529341
                   228   0.027060721042034
                 64.71    0.10165684614077
                 21.06     0.2745748236174
                 7.495    0.44829431892377
                 2.797    0.28490261071525
                0.5215   0.015194859206082
 s    8 1.00
                  6665  -0.00029326965268655
                  1000  -0.0023180354739745
                   228  -0.011499786038565
                 64.71  -0.046826727009787
                 21.06   -0.12846616875047
                 7.495   -0.30126627246289
                 2.797   -0.25563070233011
                0.5215      1.093793361012
 s    1 1.00
                0.1596                   1
 p    3 1.00
                 9.439   0.056979251590039
                 2.002    0.31320721150073
                0.5456    0.76037674173753
 p    1 1.00
                0.1517                   1
 d    1 1.00
                  0.55                   1

17 0
 s    3 1.00
                 13.01   0.033498726389998
                 1.962    0.23480080117413
                0.4446     0.8136829578829
 s    1 1.00
                 0.122                   1
 p    1 1.00
                 0.727                   1

18 0
 s    3 1.00
                 13.01   0.033498726389998
                 1.962    0.23480080117413
                0.4446     0.8136829578829
 s    1 1.00
                 0.122                   1
 p    1 1.00
                 0.727                   1

19 0
 s    8 1.00
                  6665  0.00069158396281299
                  1000  0.0053257961529341
                   228   0.027060721042034
                 64.71    0.10165684614077
                 21.06     0.2745748236174
                 7.495    0.44829431892377
                 2.797    0.28490261071525
                0.5215   0.015194859206082
 s    8 1.00
                  6665  -0.00029326965268655
                  1000  -0.0023180354739745
                   228  -0.011499786038565
                 64.71  -0.046826727009787
                 21.06   -0.12846616875047
                 7.495   -0.30126627246289
                 2.797   -0.25563070233011
                0.5215      1.093793361012
 s    1 1.00
                0.1596                   1
 p    3 1.00
                 9.439   0.056979251590039
                 2.002    0.31320721150073
                0.5456    0.76037674173753
 p    1 1.00
                0.1517                   1
 d    1 1.00
                  0.55                   1

20 0
 s    3 1.00
                 13.01   0.033498726389998
                 1.962    0.23480080117413
                0.4446     0.8136829578829
 s    1 1.00
                 0.122                   1
 p    1 1.00
                 0.727                   1

21 0
 s    8 1.00
                  6665  0.00069158396281299
                  1000  0.0053257961529341
                   228   0.027060721042034
                 64.71    0.10165684614077
                 21.06     0.2745748236174
                 7.495    0.44829431892377
                 2.797    0.28490261071525
                0.5215   0.015194859206082
 s    8 1.00
                  6665  -0.00029326965268655
                  1000  -0.0023180354739745
                   228  -0.011499786038565
                 64.71  -0.046826727009787
                 21.06   -0.12846616875047
                 7.495   -0.30126627246289
                 2.797   -0.25563070233011
                0.5215      1.093793361012
 s    1 1.00
                0.1596                   1
 p    3 1.00
                 9.439   0.056979251590039
                 2.002    0.31320721150073
                0.5456    0.76037674173753
 p    1 1.00
                0.1517                   1
 d    1 1.00
                  0.55                   1

22 0
 s    3 1.00
                 13.01   0.033498726389998
                 1.962    0.23480080117413
                0.4446     0.8136829578829
 s    1 1.00
                 0.122                   1
 p    1 1.00
                 0.727                   1

23 0
 s    3 1.00
                 13.01   0.033498726389998
                 1.962    0.23480080117413
                0.4446     0.8136829578829
 s    1 1.00
                 0.122                   1
 p    1 1.00
                 0.727                   1

24 0
 s    3 1.00
                 13.01   0.033498726389998
                 1.962    0.23480080117413
                0.4446     0.8136829578829
 s    1 1.00
                 0.122                   1
 p    1 1.00
                 0.727                   1

25 0
 s    8 1.00
                  6665  0.00069158396281299
                  1000  0.0053257961529341
                   228   0.027060721042034
                 64.71    0.10165684614077
                 21.06     0.2745748236174
                 7.495    0.44829431892377
                 2.797    0.28490261071525
                0.5215   0.015194859206082
 s    8 1.00
                  6665  -0.00029326965268655
                  1000  -0.0023180354739745
                   228  -0.011499786038565
                 64.71  -0.046826727009787
                 21.06   -0.12846616875047
                 7.495   -0.30126627246289
                 2.797   -0.25563070233011
                0.5215      1.093793361012
 s    1 1.00
                0.1596                   1
 p    3 1.00
                 9.439   0.056979251590039
                 2.002    0.31320721150073
                0.5456    0.76037674173753
 p    1 1.00
                0.1517                   1
 d    1 1.00
                  0.55                   1

26 0
 s    3 1.00
                 13.01   0.033498726389998
                 1.962    0.23480080117413
                0.4446     0.8136829578829
 s    1 1.00
                 0.122                   1
 p    1 1.00
                 0.727                   1

27 0
 s    3 1.00
                 13.01   0.033498726389998
                 1.962    0.23480080117413
                0.4446     0.8136829578829
 s    1 1.00
                 0.122                   1
 p    1 1.00
                 0.727                   1

28 0
 s    8 1.00
                  6665  0.00069158396281299
                  1000  0.0053257961529341
                   228   0.027060721042034
                 64.71    0.10165684614077
                 21.06     0.2745748236174
                 7.495    0.44829431892377
                 2.797    0.28490261071525
                0.5215   0.015194859206082
 s    8 1.00
                  6665  -0.00029326965268655
                  1000  -0.0023180354739745
                   228  -0.011499786038565
                 64.71  -0.046826727009787
                 21.06   -0.12846616875047
                 7.495   -0.30126627246289
                 2.797   -0.25563070233011
                0.5215      1.093793361012
 s    1 1.00
                0.1596                   1
 p    3 1.00
                 9.439   0.056979251590039
                 2.002    0.31320721150073
                0.5456    0.76037674173753
 p    1 1.00
                0.1517                   1
 d    1 1.00
                  0.55                   1

29 0
 s    3 1.00
                 13.01   0.033498726389998
                 1.962    0.23480080117413
                0.4446     0.8136829578829
 s    1 1.00
                 0.122                   1
 p    1 1.00
                 0.727                   1

30 0
 s    3 1.00
                 13.01   0.033498726389998
                 1.962    0.23480080117413
                0.4446     0.8136829578829
 s    1 1.00
                 0.122                   1
 p    1 1.00
                 0.727                   1

31 0
 s    8 1.00
                  6665  0.00069158396281299
                  1000  0.0053257961529341
                   228   0.027060721042034
                 64.71    0.10165684614077
                 21.06     0.2745748236174
                 7.495    0.44829431892377
                 2.797    0.28490261071525
                0.5215   0.015194859206082
 s    8 1.00
                  6665  -0.00029326965268655
                  1000  -0.0023180354739745
                   228  -0.011499786038565
                 64.71  -0.046826727009787
                 21.06   -0.12846616875047
                 7.495   -0.30126627246289
                 2.797   -0.25563070233011
                0.5215      1.093793361012
 s    1 1.00
                0.1596                   1
 p    3 1.00
                 9.439   0.056979251590039
                 2.002    0.31320721150073
                0.5456    0.76037674173753
 p    1 1.00
                0.1517                   1
 d    1 1.00
                  0.55                   1

32 0
 s    3 1.00
                 13.01   0.033498726389998
                 1.962    0.23480080117413
                0.4446     0.8136829578829
 s    1 1.00
                 0.122                   1
 p    1 1.00
                 0.727                   1

33 0
 s    3 1.00
                 13.01   0.033498726389998
                 1.962    0.23480080117413
                0.4446     0.8136829578829
 s    1 1.00
                 0.122                   1
 p    1 1.00
                 0.727                   1

34 0
 s    3 1.00
                 13.01   0.033498726389998
                 1.962    0.23480080117413
                0.4446     0.8136829578829
 s    1 1.00
                 0.122                   1
 p    1 1.00
                 0.727                   1

35 0
 s    3 1.00
                 13.01   0.033498726389998
                 1.962    0.23480080117413
                0.4446     0.8136829578829
 s    1 1.00
                 0.122                   1
 p    1 1.00
                 0.727                   1

36 0
 s    3 1.00
                 13.01   0.033498726389998
                 1.962    0.23480080117413
                0.4446     0.8136829578829
 s    1 1.00
                 0.122                   1
 p    1 1.00
                 0.727                   1

37 0
 s    3 1.00
                 13.01   0.033498726389998
                 1.962    0.23480080117413
                0.4446     0.8136829578829
 s    1 1.00
                 0.122                   1
 p    1 1.00
                 0.727                   1

[5d]
[7f]
[9g]

[MO]
 Sym= A
 Ene=               0
 Spin= Alpha
 Occup=    1.00000
   1    -6.6543149880725e-05
   2    -4.3998740575244e-05
   3    0.0001387805673975
   4    2.914806649419e-07
   5    5.2271573190446e-06
   6    5.3894734595221e-06
   7    -8.352390281257e-08
   8    -2.3787889215096e-05
   9    -5.5055485956923e-05
  10    6.0922488438972e-06
  11    -2.2250479326795e-07
  12    1.8504411643414e-06
  13    1.2058361069195e-06
  14    2.4605136788764e-08
  15    -5.8718045512555e-05
  16    -0.00023116698958058
  17    -8.282426094795e-07
  18    2.8433430358519e-06
  19    1.3515897690542e-05
  20    -5.0669280933357e-07
  21    5.3693772761725e-05
  22    1.5175560281464e-07
  23    5.4356016877654e-07
  24    -5.103298911617e-06
  25       1.0013869403848
  26    0.0020123487274778
  27    -0.0069970232318072
  28    -5.2048267585125e-06
  29    1.3036926937691e-05
  30    -0.0016269990974042
  31    -2.0523313787018e-07
  32    -3.1554688589124e-06
  33    0.0020071604941126
  34    0.00010530518125001
  35    -2.8968371025381e-06
  36    1.5930345382985e-06
  37    6.5686633525052e-05
  38    -0.0001709585383771
  39    0.00029517859964288
  40    0.00041549322695025
  41    0.0015785161989417
  42    2.065324786142e-05
  43    -1.2839147778931e-05
  44    3.8569442683563e-05
  45    8.925843965341e-05
  46    -6.9959178857939e-05
  47    0.0037268429204516
  48    -0.00049481871253895
  49    -8.6675480972415e-06
  50    3.0885466030684e-06
  51    3.0711521611271e-05
  52    -0.00011232005250585
  53    -8.3980024713728e-05
  54    -0.0001625473102668
  55    0.0013949331274546
  56    7.720477132165e-05
  57    -5.3279197469166e-06
  58    -3.3270657795399e-05
  59    -0.00043185421282303
  60    0.00048600848506394
  61    -0.00099247430592627
  62    -0.00011541224948646
  63    0.0001494576931648
  64    -0.00014339382837099
  65    5.3898741273139e-05
  66    -0.00012579986970966
  67    -3.8065997785682e-05
  68    -8.6359765162615e-05
  69    0.00053332547498195
  70    -7.4583566729731e-05
  71    4.809069598018e-05
  72    -5.4567748871514e-05
  73    0.0010160499746607
  74    -0.00078279173611842
  75    -0.0006672411794402
  76    -0.00013819428364332
  77    -0.00012258654113904
  78    8.976659424805e-05
  79    5.8186405100436e-05
  80    -0.00014832016954486
  81    -5.8482845832126e-05
  82    0.00022041125669493
  83    6.7285838156471e-05
  84    -4.9364523474974e-05
  85    4.6539673945983e-05
  86    2.5031325757236e-05
  87    4.9456880218287e-05
  88    -0.00062843876703921
  89    -1.5576489434672e-05
  90    -1.838099249391e-05
  91    1.0736628200904e-05
  92    0.0002638669202918
  93    0.00065697851328866
  94    -9.0712335327852e-06
  95    1.944931404183e-05
  96    1.139355475408e-05
  97    8.1768697783347e-06
  98    -1.8879894830304e-05
  99    -4.9192463296461e-05
 100    -4.185958236508e-05
 101    -0.00016819324985143
 102    5.648260764928e-06
 103    -1.0909759575338e-05
 104    7.8233154321291e-05
 105    -2.0465226138777e-05
 106    -0.00020982103584006
 107    -6.4049638798756e-05
 108    7.5749499341803e-06
 109    7.7326196563749e-05
 110    8.0773562793841e-05
 111    -6.6867479674718e-05
 112    -4.4234455485244e-05
 113    2.0668155222659e-05
 114    7.2410108711742e-05
 115    -6.8419692418781e-05
 116    -0.00011623015832161
 117    0.00084378083033228
 118    4.9544852702495e-06
 119    -3.9324087943166e-05
 120    3.8857355090283e-05
 121    0.00029678804669998
 122    2.6074253172864e-05
 123    -0.00015447094633009
 124    -6.11657961078e-06
 125     6.92793795785e-06
 126    1.6612834085651e-05
 127    -3.2358461383129e-05
 128    5.3017914513862e-05
 129    -2.1159151217263e-05
 130    -0.00034208763813363
 131    8.3081331445448e-06
 132    6.0264503489965e-06
 133    2.9780908591494e-05
 134    2.5185196799795e-05
 135    -0.00011759399210021
 136    -1.3881501776044e-05
 137    -2.5611913417028e-05
 138    -2.779578107631e-05
 139    -2.5193876891886e-05
 140    -4.2827691640268e-05
 141    0.00030960096061196
 142    7.0951592129776e-06
 143    2.208951843823e-06
 144    -7.7613757327155e-06
 145    -0.00023282153708215
 146    6.3876104000265e-05
 147    5.7860734789737e-05
 148    -2.783681550442e-06
 149    3.0180696413556e-06
 150    -5.0270440863527e-06
 151    1.2840457970147e-05
 152    -4.5445141383882e-06
 153    -0.0001081661388501
 154    -9.5873772388478e-05
 155    -2.5814642389834e-05
 156    2.7781995727877e-05
 157    2.0172496591764e-05
 158    -2.4437314283139e-05
 159    -8.2448712015175e-05
 160    -5.8759903323013e-05
 161    -8.2573366589669e-06
 162    6.9497716717698e-06
 163    -8.8556663238776e-06
 164    -3.3588999611013e-05
 165    -0.00028714797880801
 166    -4.5880033534492e-05
 167    3.0478269913199e-05
 168    -1.1644401242524e-06
 169    0.00022003853721879
 170    -0.00020230856437667
 171    -0.00014610698469247
 172    -2.5682881964592e-06
 173    7.6889945148519e-06
 174    -1.2099638935674e-05
 175    2.768238423255e-06
 176    -1.6901830108818e-05
 177    -2.102333252567e-05
 178    8.5356999924652e-05
 179    -1.0008816351418e-06
 180    1.5135326814491e-06
 181    -4.3578245194149e-06
 182    1.795088238892e-05
 183    3.3771785170321e-05
 184    -7.8724714514493e-05
 185    -4.9981893979689e-06
 186    7.5278925433452e-06
 187    9.2671435897728e-06
 188    0.0001318977786514
 189    -0.00010017782108376
 190    -9.0554095104712e-05
 191    1.2154123406201e-06
 192    2.4315862141887e-06
 193    -7.3883311454245e-06
 194    -3.0666796742237e-06
 195    -5.5341335210172e-06
 196    -1.6741568134367e-05
 197    -2.0527009517376e-05
 198    5.5082419247784e-06
 199    1.7290338535909e-06
 200    -3.394721038183e-06
 201    -2.2664358588221e-05
 202    6.9168656611926e-07
 203    -1.4654700255519e-05
 204    9.3369800070022e-06
 205    1.0591718198988e-05
 206    -1.9026423126537e-06
 207    6.9009298021986e-05
 208    -1.5908129069598e-05
 209    5.5690818192544e-06
 210    1.5214870896659e-05
 211    -1.8791349620719e-05
 212    -2.9522424057931e-05
 213    0.00027544043646988
 214    1.0222663459944e-05
 215    -3.8836937408355e-06
 216    -9.5804694235086e-06
 217    0.0001992249486618
 218    -5.3534323565866e-05
 219    -8.2120726903306e-05
 220    -1.4166630776077e-06
 221    -1.6487216919908e-05
 222    5.4803935970544e-06
 223    9.0067489346366e-06
 224    -1.2248251256737e-06
 225    3.3246588511886e-05
 226    5.9122345434911e-05
 227    -1.2908901747576e-05
 228    -2.6587131414664e-06
 229    -1.1945477247496e-06
 230    1.130451169666e-05
 231    5.3995411021789e-05
 232    -3.9889060790414e-06
 233    6.5567486160048e-06
 234    1.2488948808383e-05
 235    5.1192166476135e-07
 236    4.4488890679489e-07
 237    -7.9727375143117e-05
 238    2.9077715316714e-06
 239    1.1092775976885e-06
 240    -4.1033288244837e-06
 241    3.7048004542253e-05
 242    -6.4519687712083e-05
 243    1.8198766795406e-05
 244    2.0516755497997e-06
 245    1.8998613469167e-06
 246    -1.710918056285e-06
 247    3.6013100503328e-08
 248    9.1429010282692e-07
 249    -1.7405244917068e-05
 250    9.7764444368427e-06
 251    -4.157835037386e-06
 252    -9.0411741415166e-07
 253    2.9727928453182e-08
 254    -1.6474860022436e-05
 255    5.6228328914454e-05
 256    5.0288977664775e-07
 257    4.1339659166529e-06
 258    -9.1333679661789e-07
 259    -1.0411092875948e-05
 260    -1.9866391610464e-05
 261    6.9122143347216e-05
 262    -5.2684830484985e-06
 263     2.61924935612e-06