[Molden Format]
made by pyscf v[2.0.1]
[Atoms] (AU)
O   1   8     0.00000000000000     0.00000000000000     7.16229833633744
H   2   1     0.00000000000000     0.00000000000000     5.33889651443647
H   3   1    -0.05031916615174     1.78353065140343     7.53817003280410
O   4   8     0.00000000000000     0.00000000000000     2.31533471513237
C   5   6     0.00000000000000     0.00000000000000     0.00000000000000
C   6   6     2.01118073026938    -1.40227222164369    -1.50774939176400
C   7   6    -2.01249334291722     1.41331050329955    -1.50315905028694
H   8   1     3.32037363730244    -2.26721897153159    -0.13599698591495
C   9   6     3.45899267434009     0.28739631745591    -3.37437943254505
H   10   1     1.07662969841332    -2.94725144642667    -2.56541439481080
H   11   1    -2.67503415753480     0.18421555839588    -3.06194479365997
H   12   1    -1.07974048864772     3.03851734677796    -2.43674295017013
C   13   6    -4.21607110578555     2.32938802552922     0.11994162256091
H   14   1     4.24440173074564     1.93368664142019    -2.34976285512790
H   15   1     2.15020713235517     1.04714335134846    -4.81494497423699
C   16   6     5.60746363007797    -1.12419643481196    -4.70268606082550
H   17   1    -3.46838323670267     3.50951302338067     1.66946842715333
H   18   1    -5.11873485366228     0.68575958301209     1.04047743976495
C   19   6    -6.18314754751344     3.80909592987882    -1.39656589068747
H   20   1     6.93011263717176    -1.87550812453645    -3.26656317360070
C   21   6     7.06356622236532     0.52877932406334    -6.57829775293605
H   22   1     4.82318879258361    -2.78573437948532    -5.70504560381835
H   23   1    -6.91582688743803     2.61304780074712    -2.95074552451969
H   24   1    -5.26532430573853     5.45420349051338    -2.31005832200284
C   25   6    -8.39941882261433     4.73263980500213     0.21800571437956
H   26   1     7.83338371486801     2.19084139882824    -5.57093109900697
H   27   1     5.73544244039420     1.27376866537418    -8.01071492370229
C   28   6     9.21124858443101    -0.89699110072176    -7.88926949186242
H   29   1    -7.66272760055236     5.92277078003992     1.77035591474408
H   30   1    -9.31497248082589     3.08753015622020     1.12614408368786
C   31   6   -10.35481709231879     6.21833079391143    -1.30905206253246
H   32   1    10.58815905329501    -1.61074586756696    -6.49512691622620
H   33   1    10.23506248045667     0.32468009384095    -9.23072870921204
H   34   1     8.47665842847139    -2.53598436989925    -8.94921964622535
H   35   1    -9.48948872868064     7.90013588951020    -2.18823918416067
H   36   1   -11.93332513000955     6.86460487874102    -0.11255798845995
H   37   1   -11.15126291841033     5.04495968327630    -2.83849898862534
[GTO]
1 0
 s    8 1.00
                 11720  0.00070964594651845
                  1759  0.0054672722921914
                 400.8   0.027823118610189
                 113.7    0.10474773971146
                 37.03    0.28292084635691
                 13.27    0.44849523869833
                 5.025    0.27081688521277
                 1.013    0.01545029160744
 s    8 1.00
                 11720  -0.00031444341168873
                  1759  -0.0024821376810179
                 400.8  -0.012316355381583
                 113.7  -0.050538917343672
                 37.03   -0.13938490331632
                 13.27   -0.32507749481778
                 5.025   -0.22984830758785
                 1.013     1.0953793467883
 s    1 1.00
                0.3023                   1
 p    3 1.00
                  17.7   0.062679166281506
                 3.854    0.33353656587936
                 1.046    0.74123964163973
 p    1 1.00
                0.2753                   1
 d    1 1.00
                 1.185                   1

2 0
 s    3 1.00
                 13.01   0.033498726389998
                 1.962    0.23480080117413
                0.4446     0.8136829578829
 s    1 1.00
                 0.122                   1
 p    1 1.00
                 0.727                   1

3 0
 s    3 1.00
                 13.01   0.033498726389998
                 1.962    0.23480080117413
                0.4446     0.8136829578829
 s    1 1.00
                 0.122                   1
 p    1 1.00
                 0.727                   1

4 0
 s    8 1.00
                 11720  0.00070964594651845
                  1759  0.0054672722921914
                 400.8   0.027823118610189
                 113.7    0.10474773971146
                 37.03    0.28292084635691
                 13.27    0.44849523869833
                 5.025    0.27081688521277
                 1.013    0.01545029160744
 s    8 1.00
                 11720  -0.00031444341168873
                  1759  -0.0024821376810179
                 400.8  -0.012316355381583
                 113.7  -0.050538917343672
                 37.03   -0.13938490331632
                 13.27   -0.32507749481778
                 5.025   -0.22984830758785
                 1.013     1.0953793467883
 s    1 1.00
                0.3023                   1
 p    3 1.00
                  17.7   0.062679166281506
                 3.854    0.33353656587936
                 1.046    0.74123964163973
 p    1 1.00
                0.2753                   1
 d    1 1.00
                 1.185                   1

5 0
 s    8 1.00
                  6665  0.00069158396281299
                  1000  0.0053257961529341
                   228   0.027060721042034
                 64.71    0.10165684614077
                 21.06     0.2745748236174
                 7.495    0.44829431892377
                 2.797    0.28490261071525
                0.5215   0.015194859206082
 s    8 1.00
                  6665  -0.00029326965268655
                  1000  -0.0023180354739745
                   228  -0.011499786038565
                 64.71  -0.046826727009787
                 21.06   -0.12846616875047
                 7.495   -0.30126627246289
                 2.797   -0.25563070233011
                0.5215      1.093793361012
 s    1 1.00
                0.1596                   1
 p    3 1.00
                 9.439   0.056979251590039
                 2.002    0.31320721150073
                0.5456    0.76037674173753
 p    1 1.00
                0.1517                   1
 d    1 1.00
                  0.55                   1

6 0
 s    8 1.00
                  6665  0.00069158396281299
                  1000  0.0053257961529341
                   228   0.027060721042034
                 64.71    0.10165684614077
                 21.06     0.2745748236174
                 7.495    0.44829431892377
                 2.797    0.28490261071525
                0.5215   0.015194859206082
 s    8 1.00
                  6665  -0.00029326965268655
                  1000  -0.0023180354739745
                   228  -0.011499786038565
                 64.71  -0.046826727009787
                 21.06   -0.12846616875047
                 7.495   -0.30126627246289
                 2.797   -0.25563070233011
                0.5215      1.093793361012
 s    1 1.00
                0.1596                   1
 p    3 1.00
                 9.439   0.056979251590039
                 2.002    0.31320721150073
                0.5456    0.76037674173753
 p    1 1.00
                0.1517                   1
 d    1 1.00
                  0.55                   1

7 0
 s    8 1.00
                  6665  0.00069158396281299
                  1000  0.0053257961529341
                   228   0.027060721042034
                 64.71    0.10165684614077
                 21.06     0.2745748236174
                 7.495    0.44829431892377
                 2.797    0.28490261071525
                0.5215   0.015194859206082
 s    8 1.00
                  6665  -0.00029326965268655
                  1000  -0.0023180354739745
                   228  -0.011499786038565
                 64.71  -0.046826727009787
                 21.06   -0.12846616875047
                 7.495   -0.30126627246289
                 2.797   -0.25563070233011
                0.5215      1.093793361012
 s    1 1.00
                0.1596                   1
 p    3 1.00
                 9.439   0.056979251590039
                 2.002    0.31320721150073
                0.5456    0.76037674173753
 p    1 1.00
                0.1517                   1
 d    1 1.00
                  0.55                   1

8 0
 s    3 1.00
                 13.01   0.033498726389998
                 1.962    0.23480080117413
                0.4446     0.8136829578829
 s    1 1.00
                 0.122                   1
 p    1 1.00
                 0.727                   1

9 0
 s    8 1.00
                  6665  0.00069158396281299
                  1000  0.0053257961529341
                   228   0.027060721042034
                 64.71    0.10165684614077
                 21.06     0.2745748236174
                 7.495    0.44829431892377
                 2.797    0.28490261071525
                0.5215   0.015194859206082
 s    8 1.00
                  6665  -0.00029326965268655
                  1000  -0.0023180354739745
                   228  -0.011499786038565
                 64.71  -0.046826727009787
                 21.06   -0.12846616875047
                 7.495   -0.30126627246289
                 2.797   -0.25563070233011
                0.5215      1.093793361012
 s    1 1.00
                0.1596                   1
 p    3 1.00
                 9.439   0.056979251590039
                 2.002    0.31320721150073
                0.5456    0.76037674173753
 p    1 1.00
                0.1517                   1
 d    1 1.00
                  0.55                   1

10 0
 s    3 1.00
                 13.01   0.033498726389998
                 1.962    0.23480080117413
                0.4446     0.8136829578829
 s    1 1.00
                 0.122                   1
 p    1 1.00
                 0.727                   1

11 0
 s    3 1.00
                 13.01   0.033498726389998
                 1.962    0.23480080117413
                0.4446     0.8136829578829
 s    1 1.00
                 0.122                   1
 p    1 1.00
                 0.727                   1

12 0
 s    3 1.00
                 13.01   0.033498726389998
                 1.962    0.23480080117413
                0.4446     0.8136829578829
 s    1 1.00
                 0.122                   1
 p    1 1.00
                 0.727                   1

13 0
 s    8 1.00
                  6665  0.00069158396281299
                  1000  0.0053257961529341
                   228   0.027060721042034
                 64.71    0.10165684614077
                 21.06     0.2745748236174
                 7.495    0.44829431892377
                 2.797    0.28490261071525
                0.5215   0.015194859206082
 s    8 1.00
                  6665  -0.00029326965268655
                  1000  -0.0023180354739745
                   228  -0.011499786038565
                 64.71  -0.046826727009787
                 21.06   -0.12846616875047
                 7.495   -0.30126627246289
                 2.797   -0.25563070233011
                0.5215      1.093793361012
 s    1 1.00
                0.1596                   1
 p    3 1.00
                 9.439   0.056979251590039
                 2.002    0.31320721150073
                0.5456    0.76037674173753
 p    1 1.00
                0.1517                   1
 d    1 1.00
                  0.55                   1

14 0
 s    3 1.00
                 13.01   0.033498726389998
                 1.962    0.23480080117413
                0.4446     0.8136829578829
 s    1 1.00
                 0.122                   1
 p    1 1.00
                 0.727                   1

15 0
 s    3 1.00
                 13.01   0.033498726389998
                 1.962    0.23480080117413
                0.4446     0.8136829578829
 s    1 1.00
                 0.122                   1
 p    1 1.00
                 0.727                   1

16 0
 s    8 1.00
                  6665  0.00069158396281299
                  1000  0.0053257961529341
                   228   0.027060721042034
                 64.71    0.10165684614077
                 21.06     0.2745748236174
                 7.495    0.44829431892377
                 2.797    0.28490261071525
                0.5215   0.015194859206082
 s    8 1.00
                  6665  -0.00029326965268655
                  1000  -0.0023180354739745
                   228  -0.011499786038565
                 64.71  -0.046826727009787
                 21.06   -0.12846616875047
                 7.495   -0.30126627246289
                 2.797   -0.25563070233011
                0.5215      1.093793361012
 s    1 1.00
                0.1596                   1
 p    3 1.00
                 9.439   0.056979251590039
                 2.002    0.31320721150073
                0.5456    0.76037674173753
 p    1 1.00
                0.1517                   1
 d    1 1.00
                  0.55                   1

17 0
 s    3 1.00
                 13.01   0.033498726389998
                 1.962    0.23480080117413
                0.4446     0.8136829578829
 s    1 1.00
                 0.122                   1
 p    1 1.00
                 0.727                   1

18 0
 s    3 1.00
                 13.01   0.033498726389998
                 1.962    0.23480080117413
                0.4446     0.8136829578829
 s    1 1.00
                 0.122                   1
 p    1 1.00
                 0.727                   1

19 0
 s    8 1.00
                  6665  0.00069158396281299
                  1000  0.0053257961529341
                   228   0.027060721042034
                 64.71    0.10165684614077
                 21.06     0.2745748236174
                 7.495    0.44829431892377
                 2.797    0.28490261071525
                0.5215   0.015194859206082
 s    8 1.00
                  6665  -0.00029326965268655
                  1000  -0.0023180354739745
                   228  -0.011499786038565
                 64.71  -0.046826727009787
                 21.06   -0.12846616875047
                 7.495   -0.30126627246289
                 2.797   -0.25563070233011
                0.5215      1.093793361012
 s    1 1.00
                0.1596                   1
 p    3 1.00
                 9.439   0.056979251590039
                 2.002    0.31320721150073
                0.5456    0.76037674173753
 p    1 1.00
                0.1517                   1
 d    1 1.00
                  0.55                   1

20 0
 s    3 1.00
                 13.01   0.033498726389998
                 1.962    0.23480080117413
                0.4446     0.8136829578829
 s    1 1.00
                 0.122                   1
 p    1 1.00
                 0.727                   1

21 0
 s    8 1.00
                  6665  0.00069158396281299
                  1000  0.0053257961529341
                   228   0.027060721042034
                 64.71    0.10165684614077
                 21.06     0.2745748236174
                 7.495    0.44829431892377
                 2.797    0.28490261071525
                0.5215   0.015194859206082
 s    8 1.00
                  6665  -0.00029326965268655
                  1000  -0.0023180354739745
                   228  -0.011499786038565
                 64.71  -0.046826727009787
                 21.06   -0.12846616875047
                 7.495   -0.30126627246289
                 2.797   -0.25563070233011
                0.5215      1.093793361012
 s    1 1.00
                0.1596                   1
 p    3 1.00
                 9.439   0.056979251590039
                 2.002    0.31320721150073
                0.5456    0.76037674173753
 p    1 1.00
                0.1517                   1
 d    1 1.00
                  0.55                   1

22 0
 s    3 1.00
                 13.01   0.033498726389998
                 1.962    0.23480080117413
                0.4446     0.8136829578829
 s    1 1.00
                 0.122                   1
 p    1 1.00
                 0.727                   1

23 0
 s    3 1.00
                 13.01   0.033498726389998
                 1.962    0.23480080117413
                0.4446     0.8136829578829
 s    1 1.00
                 0.122                   1
 p    1 1.00
                 0.727                   1

24 0
 s    3 1.00
                 13.01   0.033498726389998
                 1.962    0.23480080117413
                0.4446     0.8136829578829
 s    1 1.00
                 0.122                   1
 p    1 1.00
                 0.727                   1

25 0
 s    8 1.00
                  6665  0.00069158396281299
                  1000  0.0053257961529341
                   228   0.027060721042034
                 64.71    0.10165684614077
                 21.06     0.2745748236174
                 7.495    0.44829431892377
                 2.797    0.28490261071525
                0.5215   0.015194859206082
 s    8 1.00
                  6665  -0.00029326965268655
                  1000  -0.0023180354739745
                   228  -0.011499786038565
                 64.71  -0.046826727009787
                 21.06   -0.12846616875047
                 7.495   -0.30126627246289
                 2.797   -0.25563070233011
                0.5215      1.093793361012
 s    1 1.00
                0.1596                   1
 p    3 1.00
                 9.439   0.056979251590039
                 2.002    0.31320721150073
                0.5456    0.76037674173753
 p    1 1.00
                0.1517                   1
 d    1 1.00
                  0.55                   1

26 0
 s    3 1.00
                 13.01   0.033498726389998
                 1.962    0.23480080117413
                0.4446     0.8136829578829
 s    1 1.00
                 0.122                   1
 p    1 1.00
                 0.727                   1

27 0
 s    3 1.00
                 13.01   0.033498726389998
                 1.962    0.23480080117413
                0.4446     0.8136829578829
 s    1 1.00
                 0.122                   1
 p    1 1.00
                 0.727                   1

28 0
 s    8 1.00
                  6665  0.00069158396281299
                  1000  0.0053257961529341
                   228   0.027060721042034
                 64.71    0.10165684614077
                 21.06     0.2745748236174
                 7.495    0.44829431892377
                 2.797    0.28490261071525
                0.5215   0.015194859206082
 s    8 1.00
                  6665  -0.00029326965268655
                  1000  -0.0023180354739745
                   228  -0.011499786038565
                 64.71  -0.046826727009787
                 21.06   -0.12846616875047
                 7.495   -0.30126627246289
                 2.797   -0.25563070233011
                0.5215      1.093793361012
 s    1 1.00
                0.1596                   1
 p    3 1.00
                 9.439   0.056979251590039
                 2.002    0.31320721150073
                0.5456    0.76037674173753
 p    1 1.00
                0.1517                   1
 d    1 1.00
                  0.55                   1

29 0
 s    3 1.00
                 13.01   0.033498726389998
                 1.962    0.23480080117413
                0.4446     0.8136829578829
 s    1 1.00
                 0.122                   1
 p    1 1.00
                 0.727                   1

30 0
 s    3 1.00
                 13.01   0.033498726389998
                 1.962    0.23480080117413
                0.4446     0.8136829578829
 s    1 1.00
                 0.122                   1
 p    1 1.00
                 0.727                   1

31 0
 s    8 1.00
                  6665  0.00069158396281299
                  1000  0.0053257961529341
                   228   0.027060721042034
                 64.71    0.10165684614077
                 21.06     0.2745748236174
                 7.495    0.44829431892377
                 2.797    0.28490261071525
                0.5215   0.015194859206082
 s    8 1.00
                  6665  -0.00029326965268655
                  1000  -0.0023180354739745
                   228  -0.011499786038565
                 64.71  -0.046826727009787
                 21.06   -0.12846616875047
                 7.495   -0.30126627246289
                 2.797   -0.25563070233011
                0.5215      1.093793361012
 s    1 1.00
                0.1596                   1
 p    3 1.00
                 9.439   0.056979251590039
                 2.002    0.31320721150073
                0.5456    0.76037674173753
 p    1 1.00
                0.1517                   1
 d    1 1.00
                  0.55                   1

32 0
 s    3 1.00
                 13.01   0.033498726389998
                 1.962    0.23480080117413
                0.4446     0.8136829578829
 s    1 1.00
                 0.122                   1
 p    1 1.00
                 0.727                   1

33 0
 s    3 1.00
                 13.01   0.033498726389998
                 1.962    0.23480080117413
                0.4446     0.8136829578829
 s    1 1.00
                 0.122                   1
 p    1 1.00
                 0.727                   1

34 0
 s    3 1.00
                 13.01   0.033498726389998
                 1.962    0.23480080117413
                0.4446     0.8136829578829
 s    1 1.00
                 0.122                   1
 p    1 1.00
                 0.727                   1

35 0
 s    3 1.00
                 13.01   0.033498726389998
                 1.962    0.23480080117413
                0.4446     0.8136829578829
 s    1 1.00
                 0.122                   1
 p    1 1.00
                 0.727                   1

36 0
 s    3 1.00
                 13.01   0.033498726389998
                 1.962    0.23480080117413
                0.4446     0.8136829578829
 s    1 1.00
                 0.122                   1
 p    1 1.00
                 0.727                   1

37 0
 s    3 1.00
                 13.01   0.033498726389998
                 1.962    0.23480080117413
                0.4446     0.8136829578829
 s    1 1.00
                 0.122                   1
 p    1 1.00
                 0.727                   1

[5d]
[7f]
[9g]

[MO]
 Sym= A
 Ene=               0
 Spin= Alpha
 Occup=    1.00000
   1    -6.5059177607707e-05
   2    -1.0331019999154e-05
   3    3.6249253078883e-05
   4    8.2193392237767e-07
   5    2.4830836580809e-06
   6    8.601114341629e-06
   7    -1.2071054785258e-06
   8    -1.7869115745058e-05
   9    2.935089046159e-05
  10    -1.5636105611392e-05
  11    -3.2064691106919e-07
  12    2.9311536871086e-06
  13    2.9073253494156e-06
  14    1.0077015586636e-07
  15    -3.6077470897332e-05
  16    -0.00018832331507416
  17    -1.3789800319261e-06
  18    4.0923689728307e-06
  19    3.5035892803336e-05
  20    1.3780407582734e-05
  21    1.9213617481132e-05
  22    2.0011215491696e-07
  23    4.0210076074001e-06
  24    -9.3488832334893e-06
  25       1.0014027390803
  26    0.0020693776398811
  27    -0.0070477279780815
  28    -5.4346653687032e-06
  29    1.5800070763479e-05
  30    -0.0015974487674893
  31    5.0189776224919e-07
  32    -4.0243272078866e-06
  33    0.0020616726463708
  34    0.00010889391206788
  35    -2.8465638642666e-06
  36    1.4550969176867e-06
  37    6.371910302203e-05
  38    -0.00016623267507315
  39    0.00029921982055588
  40    0.00042378651083017
  41    0.0016385565780385
  42    2.0953764658852e-05
  43    -1.3023140747863e-05
  44    4.9304484001143e-05
  45    8.6604411427596e-05
  46    -6.8451416526448e-05
  47    0.0037718198600738
  48    -0.00048551443362421
  49    -8.5541009415412e-06
  50    2.8128158583054e-06
  51    3.1528956471725e-05
  52    -0.00011446676602405
  53    -8.3786573211865e-05
  54    -0.00016226381046784
  55    0.0013992553554748
  56    7.7591752856849e-05
  57    -5.4231066408235e-06
  58    -3.3178587289904e-05
  59    -0.00043104230121084
  60    0.00048687053273448
  61    -0.0010053571314147
  62    -0.00011491572066462
  63    0.0001500308852404
  64    -0.00014401880521854
  65    5.3805258332094e-05
  66    -0.0001251217956045
  67    -3.6984341521079e-05
  68    -8.4573506098613e-05
  69    0.00052383337816661
  70    -7.5254705581742e-05
  71    4.8741341614974e-05
  72    -5.4744410865787e-05
  73    0.0010211992038444
  74    -0.00078612874517559
  75    -0.00067972027428988
  76    -0.00013769465902743
  77    -0.000123241730276
  78    9.0052789632879e-05
  79    5.7973713901802e-05
  80    -0.00014766126332098
  81    -5.7764450917678e-05
  82    0.00022221575154463
  83    6.781846734135e-05
  84    -4.9754225263339e-05
  85    4.6397376213026e-05
  86    2.4890069199018e-05
  87    4.9241594666435e-05
  88    -0.00063066426946101
  89    -1.5500780566757e-05
  90    -1.8458395321054e-05
  91    1.0748768031243e-05
  92    0.00026514090666458
  93    0.00066242928650791
  94    -9.4359113931777e-06
  95    1.9698396614534e-05
  96    1.1356080268046e-05
  97    8.3426215343461e-06
  98    -1.8404118299047e-05
  99    -5.01504432342e-05
 100    -4.2305622512439e-05
 101    -0.00016996838128148
 102    4.7816460169625e-06
 103    -1.0979486374033e-05
 104    7.8995551753913e-05
 105    -2.046420983868e-05
 106    -0.00021128350306747
 107    -6.3831466649697e-05
 108    6.6800866342147e-06
 109    7.8226404339855e-05
 110    8.1722591277932e-05
 111    -6.8851664342394e-05
 112    -4.387286232518e-05
 113    2.1100468222942e-05
 114    7.3145692266834e-05
 115    -6.9378310890398e-05
 116    -0.00011772074641725
 117    0.0008614798959986
 118    5.3606744904416e-06
 119    -3.9818726144131e-05
 120    3.8893778315741e-05
 121    0.00029629966701005
 122    2.8607626730954e-05
 123    -0.00015997434615884
 124    -5.8293775631587e-06
 125    6.5861631565904e-06
 126    1.6593253911805e-05
 127    -3.255540425776e-05
 128    5.3550161214686e-05
 129    -2.0909215599939e-05
 130    -0.00034566707572701
 131    8.4431498506974e-06
 132    5.9791992200975e-06
 133    2.9946085283404e-05
 134    2.4687171695612e-05
 135    -0.00011793091113768
 136    -1.4109626663713e-05
 137    -2.5828602717337e-05
 138    -2.7853555109087e-05
 139    -2.5273860573396e-05
 140    -4.2924771050766e-05
 141    0.00031192120567856
 142    6.9106190910751e-06
 143    1.9311716837576e-06
 144    -7.8171221777844e-06
 145    -0.00023126432662041
 146    6.5741825310293e-05
 147    5.6875478615022e-05
 148    -2.7691298581605e-06
 149    3.1864445273238e-06
 150    -5.3299072558933e-06
 151    1.2949709709056e-05
 152    -4.4001778236888e-06
 153    -0.00010910750705891
 154    -9.5818550592145e-05
 155    -2.5696542612446e-05
 156    2.7673016860664e-05
 157    2.0633999045502e-05
 158    -2.4700828492561e-05
 159    -8.3773347730996e-05
 160    -5.8987458436409e-05
 161    -8.7119338113233e-06
 162    7.3434968618463e-06
 163    -8.1659900938795e-06
 164    -3.2421576516335e-05
 165    -0.00029732454789489
 166    -4.6063924053462e-05
 167    3.0635022838628e-05
 168    -1.3109626269188e-06
 169    0.00021700170574911
 170    -0.00020103680060133
 171    -0.00014900408869405
 172    -2.3768627983067e-06
 173    7.6007472183077e-06
 174    -1.2076645891539e-05
 175    2.6363824958495e-06
 176    -1.6723326271927e-05
 177    -2.1354470692234e-05
 178    8.5808204496238e-05
 179    -1.1943371645565e-06
 180    1.3796532622416e-06
 181    -4.2423315425844e-06
 182    1.8207040705002e-05
 183    3.418346486963e-05
 184    -8.1770767400362e-05
 185    -4.8871101927073e-06
 186    7.6744867501099e-06
 187    9.2004102233762e-06
 188    0.00013287630770466
 189    -0.0001004753200299
 190    -9.2943364025207e-05
 191    1.1413312264376e-06
 192    2.5010538916845e-06
 193    -7.334878600845e-06
 194    -3.0335122934223e-06
 195    -5.6605844159983e-06
 196    -1.6164168531755e-05
 197    -2.0358767466502e-05
 198    5.4655759154909e-06
 199    1.7416148287776e-06
 200    -3.3203180186603e-06
 201    -2.2303299249231e-05
 202    1.4754229327489e-07
 203    -1.4658112241321e-05
 204    9.2755538626042e-06
 205     1.06154462353e-05
 206    -1.3621636558543e-06
 207    6.9735034118998e-05
 208    -1.5829781333582e-05
 209    5.4931553328352e-06
 210    1.5353539913612e-05
 211    -1.8927582365422e-05
 212    -2.9749011942372e-05
 213    0.00027772835760779
 214    1.030570252461e-05
 215    -3.9021559859424e-06
 216    -9.628604209729e-06
 217    0.00020026823467674
 218    -5.3617428443176e-05
 219    -8.2986452739228e-05
 220    -1.4475345532818e-06
 221    -1.6594986405094e-05
 222    5.5086514421617e-06
 223    9.1028695020484e-06
 224    -1.2607588463666e-06
 225    3.3684280454852e-05
 226    6.0099836077229e-05
 227    -1.3007321355803e-05
 228    -2.7411182251798e-06
 229    -1.1762602759635e-06
 230    1.1370232060433e-05
 231    5.3792101202442e-05
 232    -4.0380623018091e-06
 233    6.6303723986758e-06
 234    1.2577276770733e-05
 235    6.0847193302345e-07
 236    6.2520373431978e-07
 237    -8.0546842686321e-05
 238    2.8735720882237e-06
 239    1.1074014093225e-06
 240    -4.0822062810155e-06
 241    3.7872584635726e-05
 242    -6.4736199539329e-05
 243    1.8176726378484e-05
 244    2.0880173151995e-06
 245    1.9486997849392e-06
 246    -1.6829255837142e-06
 247    -1.6035041268657e-08
 248    9.3928201176618e-07
 249    -1.7465352110047e-05
 250    9.8284592390185e-06
 251    -4.1598823633067e-06
 252    -9.409034215115e-07
 253    2.1782583654593e-08
 254    -1.6623734154083e-05
 255    5.6979838870413e-05
 256    5.897386689763e-07
 257    4.1742553296258e-06
 258    -9.2769487988649e-07
 259    -1.027162522503e-05
 260    -1.9625223546992e-05
 261    6.8238914254374e-05
 262    -5.2476862175011e-06