[Molden Format]
made by pyscf v[2.0.1]
[Atoms] (AU)
O   1   8     0.00000000000000     0.00000000000000     9.80791491072852
H   2   1     0.00000000000000     0.00000000000000     7.98451308882755
H   3   1    -0.05031916615174     1.78353065140343    10.18378660719519
O   4   8     0.00000000000000     0.00000000000000     2.31533471513237
C   5   6     0.00000000000000     0.00000000000000     0.00000000000000
C   6   6     2.01118073026938    -1.40227222164369    -1.50774939176400
C   7   6    -2.01249334291722     1.41331050329955    -1.50315905028694
H   8   1     3.32037363730244    -2.26721897153159    -0.13599698591495
C   9   6     3.45899267434009     0.28739631745591    -3.37437943254505
H   10   1     1.07662969841332    -2.94725144642667    -2.56541439481080
H   11   1    -2.67503415753480     0.18421555839588    -3.06194479365997
H   12   1    -1.07974048864772     3.03851734677796    -2.43674295017013
C   13   6    -4.21607110578555     2.32938802552922     0.11994162256091
H   14   1     4.24440173074564     1.93368664142019    -2.34976285512790
H   15   1     2.15020713235517     1.04714335134846    -4.81494497423699
C   16   6     5.60746363007797    -1.12419643481196    -4.70268606082550
H   17   1    -3.46838323670267     3.50951302338067     1.66946842715333
H   18   1    -5.11873485366228     0.68575958301209     1.04047743976495
C   19   6    -6.18314754751344     3.80909592987882    -1.39656589068747
H   20   1     6.93011263717176    -1.87550812453645    -3.26656317360070
C   21   6     7.06356622236532     0.52877932406334    -6.57829775293605
H   22   1     4.82318879258361    -2.78573437948532    -5.70504560381835
H   23   1    -6.91582688743803     2.61304780074712    -2.95074552451969
H   24   1    -5.26532430573853     5.45420349051338    -2.31005832200284
C   25   6    -8.39941882261433     4.73263980500213     0.21800571437956
H   26   1     7.83338371486801     2.19084139882824    -5.57093109900697
H   27   1     5.73544244039420     1.27376866537418    -8.01071492370229
C   28   6     9.21124858443101    -0.89699110072176    -7.88926949186242
H   29   1    -7.66272760055236     5.92277078003992     1.77035591474408
H   30   1    -9.31497248082589     3.08753015622020     1.12614408368786
C   31   6   -10.35481709231879     6.21833079391143    -1.30905206253246
H   32   1    10.58815905329501    -1.61074586756696    -6.49512691622620
H   33   1    10.23506248045667     0.32468009384095    -9.23072870921204
H   34   1     8.47665842847139    -2.53598436989925    -8.94921964622535
H   35   1    -9.48948872868064     7.90013588951020    -2.18823918416067
H   36   1   -11.93332513000955     6.86460487874102    -0.11255798845995
H   37   1   -11.15126291841033     5.04495968327630    -2.83849898862534
[GTO]
1 0
 s    8 1.00
                 11720  0.00070964594651845
                  1759  0.0054672722921914
                 400.8   0.027823118610189
                 113.7    0.10474773971146
                 37.03    0.28292084635691
                 13.27    0.44849523869833
                 5.025    0.27081688521277
                 1.013    0.01545029160744
 s    8 1.00
                 11720  -0.00031444341168873
                  1759  -0.0024821376810179
                 400.8  -0.012316355381583
                 113.7  -0.050538917343672
                 37.03   -0.13938490331632
                 13.27   -0.32507749481778
                 5.025   -0.22984830758785
                 1.013     1.0953793467883
 s    1 1.00
                0.3023                   1
 p    3 1.00
                  17.7   0.062679166281506
                 3.854    0.33353656587936
                 1.046    0.74123964163973
 p    1 1.00
                0.2753                   1
 d    1 1.00
                 1.185                   1

2 0
 s    3 1.00
                 13.01   0.033498726389998
                 1.962    0.23480080117413
                0.4446     0.8136829578829
 s    1 1.00
                 0.122                   1
 p    1 1.00
                 0.727                   1

3 0
 s    3 1.00
                 13.01   0.033498726389998
                 1.962    0.23480080117413
                0.4446     0.8136829578829
 s    1 1.00
                 0.122                   1
 p    1 1.00
                 0.727                   1

4 0
 s    8 1.00
                 11720  0.00070964594651845
                  1759  0.0054672722921914
                 400.8   0.027823118610189
                 113.7    0.10474773971146
                 37.03    0.28292084635691
                 13.27    0.44849523869833
                 5.025    0.27081688521277
                 1.013    0.01545029160744
 s    8 1.00
                 11720  -0.00031444341168873
                  1759  -0.0024821376810179
                 400.8  -0.012316355381583
                 113.7  -0.050538917343672
                 37.03   -0.13938490331632
                 13.27   -0.32507749481778
                 5.025   -0.22984830758785
                 1.013     1.0953793467883
 s    1 1.00
                0.3023                   1
 p    3 1.00
                  17.7   0.062679166281506
                 3.854    0.33353656587936
                 1.046    0.74123964163973
 p    1 1.00
                0.2753                   1
 d    1 1.00
                 1.185                   1

5 0
 s    8 1.00
                  6665  0.00069158396281299
                  1000  0.0053257961529341
                   228   0.027060721042034
                 64.71    0.10165684614077
                 21.06     0.2745748236174
                 7.495    0.44829431892377
                 2.797    0.28490261071525
                0.5215   0.015194859206082
 s    8 1.00
                  6665  -0.00029326965268655
                  1000  -0.0023180354739745
                   228  -0.011499786038565
                 64.71  -0.046826727009787
                 21.06   -0.12846616875047
                 7.495   -0.30126627246289
                 2.797   -0.25563070233011
                0.5215      1.093793361012
 s    1 1.00
                0.1596                   1
 p    3 1.00
                 9.439   0.056979251590039
                 2.002    0.31320721150073
                0.5456    0.76037674173753
 p    1 1.00
                0.1517                   1
 d    1 1.00
                  0.55                   1

6 0
 s    8 1.00
                  6665  0.00069158396281299
                  1000  0.0053257961529341
                   228   0.027060721042034
                 64.71    0.10165684614077
                 21.06     0.2745748236174
                 7.495    0.44829431892377
                 2.797    0.28490261071525
                0.5215   0.015194859206082
 s    8 1.00
                  6665  -0.00029326965268655
                  1000  -0.0023180354739745
                   228  -0.011499786038565
                 64.71  -0.046826727009787
                 21.06   -0.12846616875047
                 7.495   -0.30126627246289
                 2.797   -0.25563070233011
                0.5215      1.093793361012
 s    1 1.00
                0.1596                   1
 p    3 1.00
                 9.439   0.056979251590039
                 2.002    0.31320721150073
                0.5456    0.76037674173753
 p    1 1.00
                0.1517                   1
 d    1 1.00
                  0.55                   1

7 0
 s    8 1.00
                  6665  0.00069158396281299
                  1000  0.0053257961529341
                   228   0.027060721042034
                 64.71    0.10165684614077
                 21.06     0.2745748236174
                 7.495    0.44829431892377
                 2.797    0.28490261071525
                0.5215   0.015194859206082
 s    8 1.00
                  6665  -0.00029326965268655
                  1000  -0.0023180354739745
                   228  -0.011499786038565
                 64.71  -0.046826727009787
                 21.06   -0.12846616875047
                 7.495   -0.30126627246289
                 2.797   -0.25563070233011
                0.5215      1.093793361012
 s    1 1.00
                0.1596                   1
 p    3 1.00
                 9.439   0.056979251590039
                 2.002    0.31320721150073
                0.5456    0.76037674173753
 p    1 1.00
                0.1517                   1
 d    1 1.00
                  0.55                   1

8 0
 s    3 1.00
                 13.01   0.033498726389998
                 1.962    0.23480080117413
                0.4446     0.8136829578829
 s    1 1.00
                 0.122                   1
 p    1 1.00
                 0.727                   1

9 0
 s    8 1.00
                  6665  0.00069158396281299
                  1000  0.0053257961529341
                   228   0.027060721042034
                 64.71    0.10165684614077
                 21.06     0.2745748236174
                 7.495    0.44829431892377
                 2.797    0.28490261071525
                0.5215   0.015194859206082
 s    8 1.00
                  6665  -0.00029326965268655
                  1000  -0.0023180354739745
                   228  -0.011499786038565
                 64.71  -0.046826727009787
                 21.06   -0.12846616875047
                 7.495   -0.30126627246289
                 2.797   -0.25563070233011
                0.5215      1.093793361012
 s    1 1.00
                0.1596                   1
 p    3 1.00
                 9.439   0.056979251590039
                 2.002    0.31320721150073
                0.5456    0.76037674173753
 p    1 1.00
                0.1517                   1
 d    1 1.00
                  0.55                   1

10 0
 s    3 1.00
                 13.01   0.033498726389998
                 1.962    0.23480080117413
                0.4446     0.8136829578829
 s    1 1.00
                 0.122                   1
 p    1 1.00
                 0.727                   1

11 0
 s    3 1.00
                 13.01   0.033498726389998
                 1.962    0.23480080117413
                0.4446     0.8136829578829
 s    1 1.00
                 0.122                   1
 p    1 1.00
                 0.727                   1

12 0
 s    3 1.00
                 13.01   0.033498726389998
                 1.962    0.23480080117413
                0.4446     0.8136829578829
 s    1 1.00
                 0.122                   1
 p    1 1.00
                 0.727                   1

13 0
 s    8 1.00
                  6665  0.00069158396281299
                  1000  0.0053257961529341
                   228   0.027060721042034
                 64.71    0.10165684614077
                 21.06     0.2745748236174
                 7.495    0.44829431892377
                 2.797    0.28490261071525
                0.5215   0.015194859206082
 s    8 1.00
                  6665  -0.00029326965268655
                  1000  -0.0023180354739745
                   228  -0.011499786038565
                 64.71  -0.046826727009787
                 21.06   -0.12846616875047
                 7.495   -0.30126627246289
                 2.797   -0.25563070233011
                0.5215      1.093793361012
 s    1 1.00
                0.1596                   1
 p    3 1.00
                 9.439   0.056979251590039
                 2.002    0.31320721150073
                0.5456    0.76037674173753
 p    1 1.00
                0.1517                   1
 d    1 1.00
                  0.55                   1

14 0
 s    3 1.00
                 13.01   0.033498726389998
                 1.962    0.23480080117413
                0.4446     0.8136829578829
 s    1 1.00
                 0.122                   1
 p    1 1.00
                 0.727                   1

15 0
 s    3 1.00
                 13.01   0.033498726389998
                 1.962    0.23480080117413
                0.4446     0.8136829578829
 s    1 1.00
                 0.122                   1
 p    1 1.00
                 0.727                   1

16 0
 s    8 1.00
                  6665  0.00069158396281299
                  1000  0.0053257961529341
                   228   0.027060721042034
                 64.71    0.10165684614077
                 21.06     0.2745748236174
                 7.495    0.44829431892377
                 2.797    0.28490261071525
                0.5215   0.015194859206082
 s    8 1.00
                  6665  -0.00029326965268655
                  1000  -0.0023180354739745
                   228  -0.011499786038565
                 64.71  -0.046826727009787
                 21.06   -0.12846616875047
                 7.495   -0.30126627246289
                 2.797   -0.25563070233011
                0.5215      1.093793361012
 s    1 1.00
                0.1596                   1
 p    3 1.00
                 9.439   0.056979251590039
                 2.002    0.31320721150073
                0.5456    0.76037674173753
 p    1 1.00
                0.1517                   1
 d    1 1.00
                  0.55                   1

17 0
 s    3 1.00
                 13.01   0.033498726389998
                 1.962    0.23480080117413
                0.4446     0.8136829578829
 s    1 1.00
                 0.122                   1
 p    1 1.00
                 0.727                   1

18 0
 s    3 1.00
                 13.01   0.033498726389998
                 1.962    0.23480080117413
                0.4446     0.8136829578829
 s    1 1.00
                 0.122                   1
 p    1 1.00
                 0.727                   1

19 0
 s    8 1.00
                  6665  0.00069158396281299
                  1000  0.0053257961529341
                   228   0.027060721042034
                 64.71    0.10165684614077
                 21.06     0.2745748236174
                 7.495    0.44829431892377
                 2.797    0.28490261071525
                0.5215   0.015194859206082
 s    8 1.00
                  6665  -0.00029326965268655
                  1000  -0.0023180354739745
                   228  -0.011499786038565
                 64.71  -0.046826727009787
                 21.06   -0.12846616875047
                 7.495   -0.30126627246289
                 2.797   -0.25563070233011
                0.5215      1.093793361012
 s    1 1.00
                0.1596                   1
 p    3 1.00
                 9.439   0.056979251590039
                 2.002    0.31320721150073
                0.5456    0.76037674173753
 p    1 1.00
                0.1517                   1
 d    1 1.00
                  0.55                   1

20 0
 s    3 1.00
                 13.01   0.033498726389998
                 1.962    0.23480080117413
                0.4446     0.8136829578829
 s    1 1.00
                 0.122                   1
 p    1 1.00
                 0.727                   1

21 0
 s    8 1.00
                  6665  0.00069158396281299
                  1000  0.0053257961529341
                   228   0.027060721042034
                 64.71    0.10165684614077
                 21.06     0.2745748236174
                 7.495    0.44829431892377
                 2.797    0.28490261071525
                0.5215   0.015194859206082
 s    8 1.00
                  6665  -0.00029326965268655
                  1000  -0.0023180354739745
                   228  -0.011499786038565
                 64.71  -0.046826727009787
                 21.06   -0.12846616875047
                 7.495   -0.30126627246289
                 2.797   -0.25563070233011
                0.5215      1.093793361012
 s    1 1.00
                0.1596                   1
 p    3 1.00
                 9.439   0.056979251590039
                 2.002    0.31320721150073
                0.5456    0.76037674173753
 p    1 1.00
                0.1517                   1
 d    1 1.00
                  0.55                   1

22 0
 s    3 1.00
                 13.01   0.033498726389998
                 1.962    0.23480080117413
                0.4446     0.8136829578829
 s    1 1.00
                 0.122                   1
 p    1 1.00
                 0.727                   1

23 0
 s    3 1.00
                 13.01   0.033498726389998
                 1.962    0.23480080117413
                0.4446     0.8136829578829
 s    1 1.00
                 0.122                   1
 p    1 1.00
                 0.727                   1

24 0
 s    3 1.00
                 13.01   0.033498726389998
                 1.962    0.23480080117413
                0.4446     0.8136829578829
 s    1 1.00
                 0.122                   1
 p    1 1.00
                 0.727                   1

25 0
 s    8 1.00
                  6665  0.00069158396281299
                  1000  0.0053257961529341
                   228   0.027060721042034
                 64.71    0.10165684614077
                 21.06     0.2745748236174
                 7.495    0.44829431892377
                 2.797    0.28490261071525
                0.5215   0.015194859206082
 s    8 1.00
                  6665  -0.00029326965268655
                  1000  -0.0023180354739745
                   228  -0.011499786038565
                 64.71  -0.046826727009787
                 21.06   -0.12846616875047
                 7.495   -0.30126627246289
                 2.797   -0.25563070233011
                0.5215      1.093793361012
 s    1 1.00
                0.1596                   1
 p    3 1.00
                 9.439   0.056979251590039
                 2.002    0.31320721150073
                0.5456    0.76037674173753
 p    1 1.00
                0.1517                   1
 d    1 1.00
                  0.55                   1

26 0
 s    3 1.00
                 13.01   0.033498726389998
                 1.962    0.23480080117413
                0.4446     0.8136829578829
 s    1 1.00
                 0.122                   1
 p    1 1.00
                 0.727                   1

27 0
 s    3 1.00
                 13.01   0.033498726389998
                 1.962    0.23480080117413
                0.4446     0.8136829578829
 s    1 1.00
                 0.122                   1
 p    1 1.00
                 0.727                   1

28 0
 s    8 1.00
                  6665  0.00069158396281299
                  1000  0.0053257961529341
                   228   0.027060721042034
                 64.71    0.10165684614077
                 21.06     0.2745748236174
                 7.495    0.44829431892377
                 2.797    0.28490261071525
                0.5215   0.015194859206082
 s    8 1.00
                  6665  -0.00029326965268655
                  1000  -0.0023180354739745
                   228  -0.011499786038565
                 64.71  -0.046826727009787
                 21.06   -0.12846616875047
                 7.495   -0.30126627246289
                 2.797   -0.25563070233011
                0.5215      1.093793361012
 s    1 1.00
                0.1596                   1
 p    3 1.00
                 9.439   0.056979251590039
                 2.002    0.31320721150073
                0.5456    0.76037674173753
 p    1 1.00
                0.1517                   1
 d    1 1.00
                  0.55                   1

29 0
 s    3 1.00
                 13.01   0.033498726389998
                 1.962    0.23480080117413
                0.4446     0.8136829578829
 s    1 1.00
                 0.122                   1
 p    1 1.00
                 0.727                   1

30 0
 s    3 1.00
                 13.01   0.033498726389998
                 1.962    0.23480080117413
                0.4446     0.8136829578829
 s    1 1.00
                 0.122                   1
 p    1 1.00
                 0.727                   1

31 0
 s    8 1.00
                  6665  0.00069158396281299
                  1000  0.0053257961529341
                   228   0.027060721042034
                 64.71    0.10165684614077
                 21.06     0.2745748236174
                 7.495    0.44829431892377
                 2.797    0.28490261071525
                0.5215   0.015194859206082
 s    8 1.00
                  6665  -0.00029326965268655
                  1000  -0.0023180354739745
                   228  -0.011499786038565
                 64.71  -0.046826727009787
                 21.06   -0.12846616875047
                 7.495   -0.30126627246289
                 2.797   -0.25563070233011
                0.5215      1.093793361012
 s    1 1.00
                0.1596                   1
 p    3 1.00
                 9.439   0.056979251590039
                 2.002    0.31320721150073
                0.5456    0.76037674173753
 p    1 1.00
                0.1517                   1
 d    1 1.00
                  0.55                   1

32 0
 s    3 1.00
                 13.01   0.033498726389998
                 1.962    0.23480080117413
                0.4446     0.8136829578829
 s    1 1.00
                 0.122                   1
 p    1 1.00
                 0.727                   1

33 0
 s    3 1.00
                 13.01   0.033498726389998
                 1.962    0.23480080117413
                0.4446     0.8136829578829
 s    1 1.00
                 0.122                   1
 p    1 1.00
                 0.727                   1

34 0
 s    3 1.00
                 13.01   0.033498726389998
                 1.962    0.23480080117413
                0.4446     0.8136829578829
 s    1 1.00
                 0.122                   1
 p    1 1.00
                 0.727                   1

35 0
 s    3 1.00
                 13.01   0.033498726389998
                 1.962    0.23480080117413
                0.4446     0.8136829578829
 s    1 1.00
                 0.122                   1
 p    1 1.00
                 0.727                   1

36 0
 s    3 1.00
                 13.01   0.033498726389998
                 1.962    0.23480080117413
                0.4446     0.8136829578829
 s    1 1.00
                 0.122                   1
 p    1 1.00
                 0.727                   1

37 0
 s    3 1.00
                 13.01   0.033498726389998
                 1.962    0.23480080117413
                0.4446     0.8136829578829
 s    1 1.00
                 0.122                   1
 p    1 1.00
                 0.727                   1

[5d]
[7f]
[9g]

[MO]
 Sym= A
 Ene=               0
 Spin= Alpha
 Occup=    1.00000
   1    -5.115334280489e-05
   2    -3.5685862023705e-05
   3    0.0001189110227844
   4    -8.8323545699065e-08
   5    4.7702093842743e-06
   6    3.9845683541963e-06
   7    5.8592071210633e-07
   8    -2.3311694181666e-05
   9    -8.1564486963011e-05
  10    1.2762269843496e-05
  11    -1.4779927855968e-09
  12     -7.8522454848e-07
  13    4.1420916889901e-07
  14    1.7320624875223e-08
  15    -1.5476257944646e-05
  16    -0.00017298494676131
  17    -1.3135039339466e-07
  18    1.5332702045807e-06
  19    -3.296977817982e-05
  20    -7.5237370480748e-06
  21    6.4620996525402e-05
  22    1.8223232695062e-07
  23    -5.7182773602552e-06
  24    2.5420577075206e-06
  25       1.0013660765424
  26    0.0019601355626172
  27    -0.0068260728988326
  28    -4.5717648417292e-06
  29    9.193486118635e-06
  30     -0.00165245569641
  31    -2.358376572044e-07
  32    -1.0612951543447e-06
  33    0.0018540767940553
  34    0.00012282357636546
  35    -3.0777417276745e-06
  36    1.4393270101906e-06
  37    6.7355471724881e-05
  38    -0.00017534446959054
  39    0.00027716719124824
  40    0.00037731121900508
  41    0.0014374644514949
  42    1.9530320992008e-05
  43    -1.2681847795346e-05
  44    7.7913398336503e-07
  45    8.5954349044403e-05
  46    -6.6428612748564e-05
  47    0.0035772073624503
  48    -0.00052879332916786
  49    -8.8509916242863e-06
  50    2.8212225341731e-06
  51    2.9256700178962e-05
  52    -0.00010842072957148
  53    -8.4892981575125e-05
  54    -0.00016424715475324
  55     0.001375492907612
  56    7.6660468683152e-05
  57    -5.6669473986157e-06
  58    -3.5241008840904e-05
  59    -0.00042497478687092
  60    0.00047872912764622
  61    -0.00093781759860234
  62    -0.00011709645364196
  63    0.00014986327007863
  64    -0.00014288429918592
  65    5.4848097624724e-05
  66    -0.00012917750769402
  67    -4.0130162861497e-05
  68    -9.0278031923282e-05
  69    0.00052245654944046
  70    -7.2989940624801e-05
  71    4.6442046319453e-05
  72    -5.580487208009e-05
  73    0.00099532870396819
  74    -0.00076761022408289
  75    -0.00063811489989687
  76    -0.00013989352104302
  77    -0.00012194287001387
  78    8.9728485341262e-05
  79    5.886844243648e-05
  80    -0.00015058908480507
  81    -6.4411563251019e-05
  82    0.00020737443280299
  83    6.6184406794291e-05
  84    -4.8611192340156e-05
  85    4.8648420987014e-05
  86    2.5058806633717e-05
  87    4.9486961310198e-05
  88    -0.00060945875641056
  89    -1.5858204425911e-05
  90    -1.8088238481721e-05
  91    1.1698491793431e-05
  92    0.00025731754177268
  93    0.00063009417138767
  94    -1.6828738402767e-05
  95    1.8386719162082e-05
  96    1.1018933946235e-05
  97    7.3592124787522e-06
  98    -2.0218646520565e-05
  99    -4.6080898547012e-05
 100    -3.782270131709e-05
 101    -0.00016000226163676
 102    8.585991963522e-06
 103    -9.9392460416554e-06
 104    7.5087393385353e-05
 105    -1.8565500928044e-05
 106    -0.00020270774513276
 107    -6.455412714885e-05
 108    1.0698032329799e-05
 109    7.5183980259913e-05
 110    7.9523532622687e-05
 111    -5.9593873456254e-05
 112    -4.560703051905e-05
 113    1.8907220002817e-05
 114    7.0240398897536e-05
 115    -6.8947499037118e-05
 116    -0.0001181940866185
 117    0.00082905327119448
 118    2.5160397423254e-06
 119    -3.7041646445062e-05
 120    3.9483977039633e-05
 121    0.00030463307854529
 122    1.8866869778941e-05
 123    -0.00013757947953639
 124    -6.590132706465e-06
 125    8.7827729627553e-06
 126    1.7061284244464e-05
 127    -3.2037827560669e-05
 128    5.1371466363105e-05
 129    -2.0035743140189e-05
 130    -0.00032599022368992
 131    7.695252297989e-06
 132    5.9059199215859e-06
 133    2.9299149814592e-05
 134    2.5437883335158e-05
 135    -0.00011839793827226
 136    -1.3518487042769e-05
 137    -2.4396220571311e-05
 138    -2.6766675563282e-05
 139    -2.4043067564859e-05
 140    -4.1002234900516e-05
 141    0.00029106996064638
 142    7.493463479412e-06
 143    2.7095633296445e-06
 144    -8.0377733155672e-06
 145    -0.00023037791928765
 146    5.6591141960896e-05
 147     6.20161027989e-05
 148    -2.5842417771926e-06
 149    2.7276454600629e-06
 150    -3.9476856538042e-06
 151    1.2043440932095e-05
 152    -4.7022603745039e-06
 153    -0.00010598753764351
 154    -0.00010901466007872
 155    -2.5166171754442e-05
 156    2.9307025084478e-05
 157    2.0832369127666e-05
 158    -2.3897392280094e-05
 159    -8.5940833900321e-05
 160    -5.8799177248202e-05
 161    -7.9086100420138e-06
 162    6.490922920642e-06
 163    -1.0038570331274e-05
 164    -3.5369390412991e-05
 165    -0.00026649098430356
 166    -4.478008093689e-05
 167    2.9924243343317e-05
 168    -1.2167330486251e-06
 169    0.00022292296671415
 170    -0.00020380710072203
 171    -0.00013825997823682
 172    -2.9557064529597e-06
 173    7.6220972459405e-06
 174    -1.2023700434357e-05
 175    2.9484742624971e-06
 176    -1.7068280788106e-05
 177    -2.0320556070304e-05
 178    8.2737063759844e-05
 179     -6.3525075884e-07
 180    1.8605302928504e-06
 181    -4.668872489405e-06
 182    1.6926761915152e-05
 183    3.2095363302151e-05
 184    -6.6223093541109e-05
 185    -5.4288658461283e-06
 186    6.9715385168521e-06
 187    9.5013697950295e-06
 188    0.00012726209735595
 189    -0.00010028720079965
 190    -8.427436166058e-05
 191    1.2794085719505e-06
 192    2.1102950819944e-06
 193    -7.4782591534659e-06
 194    -3.1165370840912e-06
 195    -4.9974731351181e-06
 196    -1.721293096457e-05
 197    -1.9571153419847e-05
 198    5.4868082791905e-06
 199    1.7590690546752e-06
 200    -3.7205194714096e-06
 201    -2.2805423170076e-05
 202    2.7299316371903e-06
 203    -1.4201756053711e-05
 204    9.4658183363087e-06
 205    1.0593590359872e-05
 206    -2.3618088816891e-06
 207    6.8095628179763e-05
 208    -1.595432034085e-05
 209    5.5347755801881e-06
 210    1.4838362778434e-05
 211    -1.8096254901182e-05
 212    -2.8455738698867e-05
 213    0.00026275044600884
 214    9.3650271122793e-06
 215    -3.5403412868316e-06
 216    -9.4625255135226e-06
 217    0.00020015459745207
 218    -5.5443805059029e-05
 219    -7.909476620243e-05
 220    -1.3412147120783e-06
 221    -1.6543992446414e-05
 222    5.4971517516636e-06
 223    8.836620477414e-06
 224    -1.1327084974845e-06
 225    3.1813732808053e-05
 226    5.6478426066226e-05
 227    -1.2560907915138e-05
 228    -2.3944197510113e-06
 229    -1.1941958950718e-06
 230    1.084737357522e-05
 231    5.373632050981e-05
 232    -3.8527761968843e-06
 233    6.356857457776e-06
 234    1.2244638422809e-05
 235    4.0849130166884e-07
 236    2.253563549503e-07
 237    -7.8615894059101e-05
 238    3.0178197711233e-06
 239    1.0401399531999e-06
 240    -4.1326121714938e-06
 241    3.5839017242066e-05
 242    -6.3286068457758e-05
 243    1.7646324406174e-05
 244    1.9638441762604e-06
 245    1.7937552323097e-06
 246    -1.7554469502458e-06
 247    7.2607124174633e-08
 248    9.2097241766799e-07
 249    -1.7484520693739e-05
 250    1.2556240475588e-05
 251    -4.3531120157672e-06
 252    -9.5799205756338e-07
 253    -2.9472942456227e-07
 254    -1.6068733771195e-05
 255    5.6045576694444e-05
 256    1.7952178284432e-07
 257    4.2865196401777e-06
 258    -1.0472685368705e-06
 259    -1.0854757624384e-05
 260    -2.0539854775278e-05
 261    7.6131709627858e-05
 262    -4.9380995327263e-06