[Molden Format]
made by pyscf v[2.0.1]
[Atoms] (AU)
O   1   8     0.00000000000000     0.00000000000000     8.29613401107647
H   2   1     0.00000000000000     0.00000000000000     6.47273218917551
H   3   1    -0.05031916615174     1.78353065140343     8.67200570754314
O   4   8     0.00000000000000     0.00000000000000     2.31533471513237
C   5   6     0.00000000000000     0.00000000000000     0.00000000000000
C   6   6     2.01118073026938    -1.40227222164369    -1.50774939176400
C   7   6    -2.01249334291722     1.41331050329955    -1.50315905028694
H   8   1     3.32037363730244    -2.26721897153159    -0.13599698591495
C   9   6     3.45899267434009     0.28739631745591    -3.37437943254505
H   10   1     1.07662969841332    -2.94725144642667    -2.56541439481080
H   11   1    -2.67503415753480     0.18421555839588    -3.06194479365997
H   12   1    -1.07974048864772     3.03851734677796    -2.43674295017013
C   13   6    -4.21607110578555     2.32938802552922     0.11994162256091
H   14   1     4.24440173074564     1.93368664142019    -2.34976285512790
H   15   1     2.15020713235517     1.04714335134846    -4.81494497423699
C   16   6     5.60746363007797    -1.12419643481196    -4.70268606082550
H   17   1    -3.46838323670267     3.50951302338067     1.66946842715333
H   18   1    -5.11873485366228     0.68575958301209     1.04047743976495
C   19   6    -6.18314754751344     3.80909592987882    -1.39656589068747
H   20   1     6.93011263717176    -1.87550812453645    -3.26656317360070
C   21   6     7.06356622236532     0.52877932406334    -6.57829775293605
H   22   1     4.82318879258361    -2.78573437948532    -5.70504560381835
H   23   1    -6.91582688743803     2.61304780074712    -2.95074552451969
H   24   1    -5.26532430573853     5.45420349051338    -2.31005832200284
C   25   6    -8.39941882261433     4.73263980500213     0.21800571437956
H   26   1     7.83338371486801     2.19084139882824    -5.57093109900697
H   27   1     5.73544244039420     1.27376866537418    -8.01071492370229
C   28   6     9.21124858443101    -0.89699110072176    -7.88926949186242
H   29   1    -7.66272760055236     5.92277078003992     1.77035591474408
H   30   1    -9.31497248082589     3.08753015622020     1.12614408368786
C   31   6   -10.35481709231879     6.21833079391143    -1.30905206253246
H   32   1    10.58815905329501    -1.61074586756696    -6.49512691622620
H   33   1    10.23506248045667     0.32468009384095    -9.23072870921204
H   34   1     8.47665842847139    -2.53598436989925    -8.94921964622535
H   35   1    -9.48948872868064     7.90013588951020    -2.18823918416067
H   36   1   -11.93332513000955     6.86460487874102    -0.11255798845995
H   37   1   -11.15126291841033     5.04495968327630    -2.83849898862534
[GTO]
1 0
 s    8 1.00
                 11720  0.00070964594651845
                  1759  0.0054672722921914
                 400.8   0.027823118610189
                 113.7    0.10474773971146
                 37.03    0.28292084635691
                 13.27    0.44849523869833
                 5.025    0.27081688521277
                 1.013    0.01545029160744
 s    8 1.00
                 11720  -0.00031444341168873
                  1759  -0.0024821376810179
                 400.8  -0.012316355381583
                 113.7  -0.050538917343672
                 37.03   -0.13938490331632
                 13.27   -0.32507749481778
                 5.025   -0.22984830758785
                 1.013     1.0953793467883
 s    1 1.00
                0.3023                   1
 p    3 1.00
                  17.7   0.062679166281506
                 3.854    0.33353656587936
                 1.046    0.74123964163973
 p    1 1.00
                0.2753                   1
 d    1 1.00
                 1.185                   1

2 0
 s    3 1.00
                 13.01   0.033498726389998
                 1.962    0.23480080117413
                0.4446     0.8136829578829
 s    1 1.00
                 0.122                   1
 p    1 1.00
                 0.727                   1

3 0
 s    3 1.00
                 13.01   0.033498726389998
                 1.962    0.23480080117413
                0.4446     0.8136829578829
 s    1 1.00
                 0.122                   1
 p    1 1.00
                 0.727                   1

4 0
 s    8 1.00
                 11720  0.00070964594651845
                  1759  0.0054672722921914
                 400.8   0.027823118610189
                 113.7    0.10474773971146
                 37.03    0.28292084635691
                 13.27    0.44849523869833
                 5.025    0.27081688521277
                 1.013    0.01545029160744
 s    8 1.00
                 11720  -0.00031444341168873
                  1759  -0.0024821376810179
                 400.8  -0.012316355381583
                 113.7  -0.050538917343672
                 37.03   -0.13938490331632
                 13.27   -0.32507749481778
                 5.025   -0.22984830758785
                 1.013     1.0953793467883
 s    1 1.00
                0.3023                   1
 p    3 1.00
                  17.7   0.062679166281506
                 3.854    0.33353656587936
                 1.046    0.74123964163973
 p    1 1.00
                0.2753                   1
 d    1 1.00
                 1.185                   1

5 0
 s    8 1.00
                  6665  0.00069158396281299
                  1000  0.0053257961529341
                   228   0.027060721042034
                 64.71    0.10165684614077
                 21.06     0.2745748236174
                 7.495    0.44829431892377
                 2.797    0.28490261071525
                0.5215   0.015194859206082
 s    8 1.00
                  6665  -0.00029326965268655
                  1000  -0.0023180354739745
                   228  -0.011499786038565
                 64.71  -0.046826727009787
                 21.06   -0.12846616875047
                 7.495   -0.30126627246289
                 2.797   -0.25563070233011
                0.5215      1.093793361012
 s    1 1.00
                0.1596                   1
 p    3 1.00
                 9.439   0.056979251590039
                 2.002    0.31320721150073
                0.5456    0.76037674173753
 p    1 1.00
                0.1517                   1
 d    1 1.00
                  0.55                   1

6 0
 s    8 1.00
                  6665  0.00069158396281299
                  1000  0.0053257961529341
                   228   0.027060721042034
                 64.71    0.10165684614077
                 21.06     0.2745748236174
                 7.495    0.44829431892377
                 2.797    0.28490261071525
                0.5215   0.015194859206082
 s    8 1.00
                  6665  -0.00029326965268655
                  1000  -0.0023180354739745
                   228  -0.011499786038565
                 64.71  -0.046826727009787
                 21.06   -0.12846616875047
                 7.495   -0.30126627246289
                 2.797   -0.25563070233011
                0.5215      1.093793361012
 s    1 1.00
                0.1596                   1
 p    3 1.00
                 9.439   0.056979251590039
                 2.002    0.31320721150073
                0.5456    0.76037674173753
 p    1 1.00
                0.1517                   1
 d    1 1.00
                  0.55                   1

7 0
 s    8 1.00
                  6665  0.00069158396281299
                  1000  0.0053257961529341
                   228   0.027060721042034
                 64.71    0.10165684614077
                 21.06     0.2745748236174
                 7.495    0.44829431892377
                 2.797    0.28490261071525
                0.5215   0.015194859206082
 s    8 1.00
                  6665  -0.00029326965268655
                  1000  -0.0023180354739745
                   228  -0.011499786038565
                 64.71  -0.046826727009787
                 21.06   -0.12846616875047
                 7.495   -0.30126627246289
                 2.797   -0.25563070233011
                0.5215      1.093793361012
 s    1 1.00
                0.1596                   1
 p    3 1.00
                 9.439   0.056979251590039
                 2.002    0.31320721150073
                0.5456    0.76037674173753
 p    1 1.00
                0.1517                   1
 d    1 1.00
                  0.55                   1

8 0
 s    3 1.00
                 13.01   0.033498726389998
                 1.962    0.23480080117413
                0.4446     0.8136829578829
 s    1 1.00
                 0.122                   1
 p    1 1.00
                 0.727                   1

9 0
 s    8 1.00
                  6665  0.00069158396281299
                  1000  0.0053257961529341
                   228   0.027060721042034
                 64.71    0.10165684614077
                 21.06     0.2745748236174
                 7.495    0.44829431892377
                 2.797    0.28490261071525
                0.5215   0.015194859206082
 s    8 1.00
                  6665  -0.00029326965268655
                  1000  -0.0023180354739745
                   228  -0.011499786038565
                 64.71  -0.046826727009787
                 21.06   -0.12846616875047
                 7.495   -0.30126627246289
                 2.797   -0.25563070233011
                0.5215      1.093793361012
 s    1 1.00
                0.1596                   1
 p    3 1.00
                 9.439   0.056979251590039
                 2.002    0.31320721150073
                0.5456    0.76037674173753
 p    1 1.00
                0.1517                   1
 d    1 1.00
                  0.55                   1

10 0
 s    3 1.00
                 13.01   0.033498726389998
                 1.962    0.23480080117413
                0.4446     0.8136829578829
 s    1 1.00
                 0.122                   1
 p    1 1.00
                 0.727                   1

11 0
 s    3 1.00
                 13.01   0.033498726389998
                 1.962    0.23480080117413
                0.4446     0.8136829578829
 s    1 1.00
                 0.122                   1
 p    1 1.00
                 0.727                   1

12 0
 s    3 1.00
                 13.01   0.033498726389998
                 1.962    0.23480080117413
                0.4446     0.8136829578829
 s    1 1.00
                 0.122                   1
 p    1 1.00
                 0.727                   1

13 0
 s    8 1.00
                  6665  0.00069158396281299
                  1000  0.0053257961529341
                   228   0.027060721042034
                 64.71    0.10165684614077
                 21.06     0.2745748236174
                 7.495    0.44829431892377
                 2.797    0.28490261071525
                0.5215   0.015194859206082
 s    8 1.00
                  6665  -0.00029326965268655
                  1000  -0.0023180354739745
                   228  -0.011499786038565
                 64.71  -0.046826727009787
                 21.06   -0.12846616875047
                 7.495   -0.30126627246289
                 2.797   -0.25563070233011
                0.5215      1.093793361012
 s    1 1.00
                0.1596                   1
 p    3 1.00
                 9.439   0.056979251590039
                 2.002    0.31320721150073
                0.5456    0.76037674173753
 p    1 1.00
                0.1517                   1
 d    1 1.00
                  0.55                   1

14 0
 s    3 1.00
                 13.01   0.033498726389998
                 1.962    0.23480080117413
                0.4446     0.8136829578829
 s    1 1.00
                 0.122                   1
 p    1 1.00
                 0.727                   1

15 0
 s    3 1.00
                 13.01   0.033498726389998
                 1.962    0.23480080117413
                0.4446     0.8136829578829
 s    1 1.00
                 0.122                   1
 p    1 1.00
                 0.727                   1

16 0
 s    8 1.00
                  6665  0.00069158396281299
                  1000  0.0053257961529341
                   228   0.027060721042034
                 64.71    0.10165684614077
                 21.06     0.2745748236174
                 7.495    0.44829431892377
                 2.797    0.28490261071525
                0.5215   0.015194859206082
 s    8 1.00
                  6665  -0.00029326965268655
                  1000  -0.0023180354739745
                   228  -0.011499786038565
                 64.71  -0.046826727009787
                 21.06   -0.12846616875047
                 7.495   -0.30126627246289
                 2.797   -0.25563070233011
                0.5215      1.093793361012
 s    1 1.00
                0.1596                   1
 p    3 1.00
                 9.439   0.056979251590039
                 2.002    0.31320721150073
                0.5456    0.76037674173753
 p    1 1.00
                0.1517                   1
 d    1 1.00
                  0.55                   1

17 0
 s    3 1.00
                 13.01   0.033498726389998
                 1.962    0.23480080117413
                0.4446     0.8136829578829
 s    1 1.00
                 0.122                   1
 p    1 1.00
                 0.727                   1

18 0
 s    3 1.00
                 13.01   0.033498726389998
                 1.962    0.23480080117413
                0.4446     0.8136829578829
 s    1 1.00
                 0.122                   1
 p    1 1.00
                 0.727                   1

19 0
 s    8 1.00
                  6665  0.00069158396281299
                  1000  0.0053257961529341
                   228   0.027060721042034
                 64.71    0.10165684614077
                 21.06     0.2745748236174
                 7.495    0.44829431892377
                 2.797    0.28490261071525
                0.5215   0.015194859206082
 s    8 1.00
                  6665  -0.00029326965268655
                  1000  -0.0023180354739745
                   228  -0.011499786038565
                 64.71  -0.046826727009787
                 21.06   -0.12846616875047
                 7.495   -0.30126627246289
                 2.797   -0.25563070233011
                0.5215      1.093793361012
 s    1 1.00
                0.1596                   1
 p    3 1.00
                 9.439   0.056979251590039
                 2.002    0.31320721150073
                0.5456    0.76037674173753
 p    1 1.00
                0.1517                   1
 d    1 1.00
                  0.55                   1

20 0
 s    3 1.00
                 13.01   0.033498726389998
                 1.962    0.23480080117413
                0.4446     0.8136829578829
 s    1 1.00
                 0.122                   1
 p    1 1.00
                 0.727                   1

21 0
 s    8 1.00
                  6665  0.00069158396281299
                  1000  0.0053257961529341
                   228   0.027060721042034
                 64.71    0.10165684614077
                 21.06     0.2745748236174
                 7.495    0.44829431892377
                 2.797    0.28490261071525
                0.5215   0.015194859206082
 s    8 1.00
                  6665  -0.00029326965268655
                  1000  -0.0023180354739745
                   228  -0.011499786038565
                 64.71  -0.046826727009787
                 21.06   -0.12846616875047
                 7.495   -0.30126627246289
                 2.797   -0.25563070233011
                0.5215      1.093793361012
 s    1 1.00
                0.1596                   1
 p    3 1.00
                 9.439   0.056979251590039
                 2.002    0.31320721150073
                0.5456    0.76037674173753
 p    1 1.00
                0.1517                   1
 d    1 1.00
                  0.55                   1

22 0
 s    3 1.00
                 13.01   0.033498726389998
                 1.962    0.23480080117413
                0.4446     0.8136829578829
 s    1 1.00
                 0.122                   1
 p    1 1.00
                 0.727                   1

23 0
 s    3 1.00
                 13.01   0.033498726389998
                 1.962    0.23480080117413
                0.4446     0.8136829578829
 s    1 1.00
                 0.122                   1
 p    1 1.00
                 0.727                   1

24 0
 s    3 1.00
                 13.01   0.033498726389998
                 1.962    0.23480080117413
                0.4446     0.8136829578829
 s    1 1.00
                 0.122                   1
 p    1 1.00
                 0.727                   1

25 0
 s    8 1.00
                  6665  0.00069158396281299
                  1000  0.0053257961529341
                   228   0.027060721042034
                 64.71    0.10165684614077
                 21.06     0.2745748236174
                 7.495    0.44829431892377
                 2.797    0.28490261071525
                0.5215   0.015194859206082
 s    8 1.00
                  6665  -0.00029326965268655
                  1000  -0.0023180354739745
                   228  -0.011499786038565
                 64.71  -0.046826727009787
                 21.06   -0.12846616875047
                 7.495   -0.30126627246289
                 2.797   -0.25563070233011
                0.5215      1.093793361012
 s    1 1.00
                0.1596                   1
 p    3 1.00
                 9.439   0.056979251590039
                 2.002    0.31320721150073
                0.5456    0.76037674173753
 p    1 1.00
                0.1517                   1
 d    1 1.00
                  0.55                   1

26 0
 s    3 1.00
                 13.01   0.033498726389998
                 1.962    0.23480080117413
                0.4446     0.8136829578829
 s    1 1.00
                 0.122                   1
 p    1 1.00
                 0.727                   1

27 0
 s    3 1.00
                 13.01   0.033498726389998
                 1.962    0.23480080117413
                0.4446     0.8136829578829
 s    1 1.00
                 0.122                   1
 p    1 1.00
                 0.727                   1

28 0
 s    8 1.00
                  6665  0.00069158396281299
                  1000  0.0053257961529341
                   228   0.027060721042034
                 64.71    0.10165684614077
                 21.06     0.2745748236174
                 7.495    0.44829431892377
                 2.797    0.28490261071525
                0.5215   0.015194859206082
 s    8 1.00
                  6665  -0.00029326965268655
                  1000  -0.0023180354739745
                   228  -0.011499786038565
                 64.71  -0.046826727009787
                 21.06   -0.12846616875047
                 7.495   -0.30126627246289
                 2.797   -0.25563070233011
                0.5215      1.093793361012
 s    1 1.00
                0.1596                   1
 p    3 1.00
                 9.439   0.056979251590039
                 2.002    0.31320721150073
                0.5456    0.76037674173753
 p    1 1.00
                0.1517                   1
 d    1 1.00
                  0.55                   1

29 0
 s    3 1.00
                 13.01   0.033498726389998
                 1.962    0.23480080117413
                0.4446     0.8136829578829
 s    1 1.00
                 0.122                   1
 p    1 1.00
                 0.727                   1

30 0
 s    3 1.00
                 13.01   0.033498726389998
                 1.962    0.23480080117413
                0.4446     0.8136829578829
 s    1 1.00
                 0.122                   1
 p    1 1.00
                 0.727                   1

31 0
 s    8 1.00
                  6665  0.00069158396281299
                  1000  0.0053257961529341
                   228   0.027060721042034
                 64.71    0.10165684614077
                 21.06     0.2745748236174
                 7.495    0.44829431892377
                 2.797    0.28490261071525
                0.5215   0.015194859206082
 s    8 1.00
                  6665  -0.00029326965268655
                  1000  -0.0023180354739745
                   228  -0.011499786038565
                 64.71  -0.046826727009787
                 21.06   -0.12846616875047
                 7.495   -0.30126627246289
                 2.797   -0.25563070233011
                0.5215      1.093793361012
 s    1 1.00
                0.1596                   1
 p    3 1.00
                 9.439   0.056979251590039
                 2.002    0.31320721150073
                0.5456    0.76037674173753
 p    1 1.00
                0.1517                   1
 d    1 1.00
                  0.55                   1

32 0
 s    3 1.00
                 13.01   0.033498726389998
                 1.962    0.23480080117413
                0.4446     0.8136829578829
 s    1 1.00
                 0.122                   1
 p    1 1.00
                 0.727                   1

33 0
 s    3 1.00
                 13.01   0.033498726389998
                 1.962    0.23480080117413
                0.4446     0.8136829578829
 s    1 1.00
                 0.122                   1
 p    1 1.00
                 0.727                   1

34 0
 s    3 1.00
                 13.01   0.033498726389998
                 1.962    0.23480080117413
                0.4446     0.8136829578829
 s    1 1.00
                 0.122                   1
 p    1 1.00
                 0.727                   1

35 0
 s    3 1.00
                 13.01   0.033498726389998
                 1.962    0.23480080117413
                0.4446     0.8136829578829
 s    1 1.00
                 0.122                   1
 p    1 1.00
                 0.727                   1

36 0
 s    3 1.00
                 13.01   0.033498726389998
                 1.962    0.23480080117413
                0.4446     0.8136829578829
 s    1 1.00
                 0.122                   1
 p    1 1.00
                 0.727                   1

37 0
 s    3 1.00
                 13.01   0.033498726389998
                 1.962    0.23480080117413
                0.4446     0.8136829578829
 s    1 1.00
                 0.122                   1
 p    1 1.00
                 0.727                   1

[5d]
[7f]
[9g]

[MO]
 Sym= A
 Ene=               0
 Spin= Alpha
 Occup=    1.00000
   1    -6.954397997435e-05
   2    -5.1283044521779e-05
   3    0.00013385765716764
   4    1.3598409647441e-07
   5    5.6985109174107e-06
   6    1.3640724796228e-05
   7    2.1820239560626e-07
   8    -2.5206460445415e-05
   9    -6.3916559015394e-05
  10    3.4948307759019e-06
  11    -1.5729401796043e-07
  12    1.0931686661962e-06
  13    8.810403146587e-07
  14    1.7510757859733e-08
  15    -3.5532714246022e-05
  16    -0.00022320192006003
  17    -5.999285553859e-07
  18     2.52804632189e-06
  19    2.3038127448623e-05
  20    -3.2126575601048e-06
  21    6.1174683420642e-05
  22    1.4566879162406e-07
  23    -1.0091248709115e-06
  24    -2.6566941095312e-06
  25       1.0013822807914
  26     0.001998462418847
  27    -0.0069639894656176
  28    -5.0313598549184e-06
  29    1.1921234185863e-05
  30    -0.0016354844942758
  31    -2.7993127221735e-07
  32    -2.5650581795559e-06
  33    0.0019719573996078
  34    0.0001081508127408
  35    -2.928134469479e-06
  36    1.5709522646786e-06
  37    6.625713408304e-05
  38    -0.00017241476746552
  39    0.00029128760240091
  40    0.00040735536694629
  41    0.0015489118258651
  42    2.0454793442711e-05
  43    -1.28197016718e-05
  44    3.0825183367953e-05
  45    8.794062361479e-05
  46    -6.896943210504e-05
  47    0.0036918690707924
  48    -0.00050215025535201
  49    -8.6532332396657e-06
  50    3.0092470574232e-06
  51    3.0445528378299e-05
  52    -0.00011157789751431
  53    -8.4230734674891e-05
  54    -0.00016301881553886
  55    0.0013907206953354
  56    7.7093179222209e-05
  57    -5.4365135294154e-06
  58    -3.3707657482028e-05
  59    -0.00042938064511636
  60    0.00048399802790879
  61    -0.00098016844749799
  62    -0.00011568632842368
  63    0.00014958097824405
  64    -0.00014331488338441
  65    5.4070802190321e-05
  66    -0.00012646199217591
  67    -3.8526550702338e-05
  68    -8.7252324602758e-05
  69    0.00053023321163255
  70    -7.427242132272e-05
  71    4.774831800685e-05
  72    -5.4883473492304e-05
  73    0.0010105501937813
  74    -0.00077858991388154
  75    -0.0006606054983119
  76    -0.00013843919671243
  77    -0.00012253998798806
  78    8.9804705957807e-05
  79    5.8294489206929e-05
  80    -0.00014869055027123
  81    -5.981575936151e-05
  82    0.00021668951985238
  83    6.7067078243409e-05
  84    -4.9228619619883e-05
  85    4.7072283391348e-05
  86    2.5056044467032e-05
  87    4.9489590466113e-05
  88    -0.00062447593265346
  89    -1.5613887180844e-05
  90    -1.8299178424705e-05
  91    1.0940165160205e-05
  92    0.00026241457710637
  93    0.00065103626848318
  94    -1.0881982450821e-05
  95    1.9203690672255e-05
  96    1.1322672624037e-05
  97    8.0264102701725e-06
  98    -1.9177076470206e-05
  99    -4.849540176672e-05
 100    -4.0981040875382e-05
 101    -0.00016632680345823
 102    6.2610331020707e-06
 103    -1.069581209605e-05
 104    7.7511538633806e-05
 105    -2.0037296816037e-05
 106    -0.00020812597839164
 107    -6.411761765908e-05
 108    8.228077956545e-06
 109    7.6798188027949e-05
 110    8.0449831243615e-05
 111    -6.5415910800109e-05
 112    -4.4497422118398e-05
 113    2.028870690903e-05
 114    7.1879899665742e-05
 115    -6.8539415228731e-05
 116    -0.00011662921793316
 117    0.00084100017935511
 118    4.4641577045264e-06
 119    -3.8850352748804e-05
 120    3.9082504860845e-05
 121    0.00029692669600786
 122    2.5093659949436e-05
 123    -0.00015176029966519
 124    -6.2301189148333e-06
 125    7.4241396338634e-06
 126    1.6580471319028e-05
 127    -3.2241508750257e-05
 128    5.2544180603103e-05
 129    -2.087941945422e-05
 130    -0.00033854944080614
 131    8.1818624931925e-06
 132    6.0097344049739e-06
 133    2.9687383993522e-05
 134    2.5230227273512e-05
 135    -0.00011755473565178
 136    -1.3813777521849e-05
 137    -2.5359996633012e-05
 138    -2.7520856645613e-05
 139    -2.4921507148369e-05
 140    -4.2385119613449e-05
 141    0.00030545169127769
 142    7.1637742371335e-06
 143    2.3099756091493e-06
 144    -7.8210091864459e-06
 145    -0.00023212613487409
 146    6.2455494989222e-05
 147    5.863513747139e-05
 148    -2.7458335563586e-06
 149    2.9479255515464e-06
 150    -4.7832461368888e-06
 151    1.2657947461559e-05
 152    -4.5754803711937e-06
 153    -0.00010744651204542
 154    -9.8412898996819e-05
 155    -2.5696134218445e-05
 156    2.804767025983e-05
 157    2.0218799865655e-05
 158    -2.4176107327785e-05
 159    -8.334228783063e-05
 160    -5.8680594267451e-05
 161    -8.1916786199322e-06
 162    6.8861160251649e-06
 163    -8.988266864295e-06
 164    -3.3770707874751e-05
 165    -0.00028443544974594
 166    -4.5669015209354e-05
 167    3.0372035107185e-05
 168    -1.2370706438029e-06
 169    0.00021977148729146
 170    -0.00020176540790146
 171    -0.00014480027790147
 172    -2.6197231182534e-06
 173    7.6107772340302e-06
 174    -1.2023221349097e-05
 175    2.790697850095e-06
 176    -1.6841191031324e-05
 177    -2.0868719736784e-05
 178    8.4928025869239e-05
 179    -9.4985413324907e-07
 180    1.5833484642277e-06
 181    -4.4301810579757e-06
 182    1.7736383933623e-05
 183    3.3421580843005e-05
 184    -7.6101074997179e-05
 185    -5.0913601152527e-06
 186    7.4106427492946e-06
 187    9.3175295727559e-06
 188    0.00013093415432169
 189    -0.00010015149922946
 190    -8.9339398141062e-05
 191    1.2231753217274e-06
 192    2.368361452927e-06
 193    -7.400997123402e-06
 194    -3.0750469831583e-06
 195    -5.4234387164975e-06
 196    -1.6798427426191e-05
 197    -2.0273338396305e-05
 198    5.4981096386646e-06
 199    1.7314354804276e-06
 200    -3.4533038081343e-06
 201    -2.2589548844669e-05
 202    1.1313101331289e-06
 203    -1.4533198025616e-05
 204    9.333861055427e-06
 205    1.0586093065094e-05
 206    -1.9582412076432e-06
 207    6.8716192107377e-05
 208    -1.587729760229e-05
 209    5.5395736486476e-06
 210    1.5125506079885e-05
 211    -1.8636039374754e-05
 212    -2.9282910153002e-05
 213    0.00027270626266633
 214    1.0038121682679e-05
 215    -3.8033441946913e-06
 216    -9.5529475051202e-06
 217    0.0001992663655224
 218    -5.3959579245749e-05
 219    -8.15106880609e-05
 220    -1.3943404576989e-06
 221    -1.6490405552675e-05
 222    5.4855121901391e-06
 223    8.9621889905811e-06
 224    -1.2060400573122e-06
 225    3.2946197947967e-05
 226    5.8561685234419e-05
 227    -1.2835878081007e-05
 228    -2.6028176883533e-06
 229    -1.1889409104272e-06
 230    1.1207837995847e-05
 231    5.3832600394419e-05
 232    -3.9640121890316e-06
 233    6.5186790528551e-06
 234    1.2426234128166e-05
 235    4.939561851751e-07
 236    4.050883156137e-07
 237    -7.9516184482383e-05
 238    2.931877391216e-06
 239    1.0925851615314e-06
 240    -4.1068712364128e-06
 241    3.6827103396169e-05
 242    -6.4266355513935e-05
 243    1.8063761149663e-05
 244    2.0354734636952e-06
 245    1.8785523032324e-06
 246    -1.7202656162542e-06
 247    4.1916216633024e-08
 248    9.2066367380365e-07
 249    -1.7403990365985e-05
 250    1.0385744906722e-05
 251    -4.1972650747171e-06
 252    -9.1187397956794e-07
 253    -4.1863434137186e-08
 254    -1.6399204905676e-05
 255    5.618104014575e-05
 256    4.4108754144658e-07
 257    4.1673217514429e-06
 258    -9.4364601197605e-07
 259    -1.0463454532445e-05
 260    -1.9934728499346e-05
 261    7.0360525424971e-05
 262    -5.1837392554433e-06
 263    2.5680195445854e-06