[Molden Format]
made by pyscf v[2.0.1]
[Atoms] (AU)
O   1   8     0.00000000000000     0.00000000000000    10.18586013564153
H   2   1     0.00000000000000     0.00000000000000     8.36245831374057
H   3   1    -0.05031916615174     1.78353065140343    10.56173183210820
O   4   8     0.00000000000000     0.00000000000000     2.31533471513237
C   5   6     0.00000000000000     0.00000000000000     0.00000000000000
C   6   6     2.01118073026938    -1.40227222164369    -1.50774939176400
C   7   6    -2.01249334291722     1.41331050329955    -1.50315905028694
H   8   1     3.32037363730244    -2.26721897153159    -0.13599698591495
C   9   6     3.45899267434009     0.28739631745591    -3.37437943254505
H   10   1     1.07662969841332    -2.94725144642667    -2.56541439481080
H   11   1    -2.67503415753480     0.18421555839588    -3.06194479365997
H   12   1    -1.07974048864772     3.03851734677796    -2.43674295017013
C   13   6    -4.21607110578555     2.32938802552922     0.11994162256091
H   14   1     4.24440173074564     1.93368664142019    -2.34976285512790
H   15   1     2.15020713235517     1.04714335134846    -4.81494497423699
C   16   6     5.60746363007797    -1.12419643481196    -4.70268606082550
H   17   1    -3.46838323670267     3.50951302338067     1.66946842715333
H   18   1    -5.11873485366228     0.68575958301209     1.04047743976495
C   19   6    -6.18314754751344     3.80909592987882    -1.39656589068747
H   20   1     6.93011263717176    -1.87550812453645    -3.26656317360070
C   21   6     7.06356622236532     0.52877932406334    -6.57829775293605
H   22   1     4.82318879258361    -2.78573437948532    -5.70504560381835
H   23   1    -6.91582688743803     2.61304780074712    -2.95074552451969
H   24   1    -5.26532430573853     5.45420349051338    -2.31005832200284
C   25   6    -8.39941882261433     4.73263980500213     0.21800571437956
H   26   1     7.83338371486801     2.19084139882824    -5.57093109900697
H   27   1     5.73544244039420     1.27376866537418    -8.01071492370229
C   28   6     9.21124858443101    -0.89699110072176    -7.88926949186242
H   29   1    -7.66272760055236     5.92277078003992     1.77035591474408
H   30   1    -9.31497248082589     3.08753015622020     1.12614408368786
C   31   6   -10.35481709231879     6.21833079391143    -1.30905206253246
H   32   1    10.58815905329501    -1.61074586756696    -6.49512691622620
H   33   1    10.23506248045667     0.32468009384095    -9.23072870921204
H   34   1     8.47665842847139    -2.53598436989925    -8.94921964622535
H   35   1    -9.48948872868064     7.90013588951020    -2.18823918416067
H   36   1   -11.93332513000955     6.86460487874102    -0.11255798845995
H   37   1   -11.15126291841033     5.04495968327630    -2.83849898862534
[GTO]
1 0
 s    8 1.00
                 11720  0.00070964594651845
                  1759  0.0054672722921914
                 400.8   0.027823118610189
                 113.7    0.10474773971146
                 37.03    0.28292084635691
                 13.27    0.44849523869833
                 5.025    0.27081688521277
                 1.013    0.01545029160744
 s    8 1.00
                 11720  -0.00031444341168873
                  1759  -0.0024821376810179
                 400.8  -0.012316355381583
                 113.7  -0.050538917343672
                 37.03   -0.13938490331632
                 13.27   -0.32507749481778
                 5.025   -0.22984830758785
                 1.013     1.0953793467883
 s    1 1.00
                0.3023                   1
 p    3 1.00
                  17.7   0.062679166281506
                 3.854    0.33353656587936
                 1.046    0.74123964163973
 p    1 1.00
                0.2753                   1
 d    1 1.00
                 1.185                   1

2 0
 s    3 1.00
                 13.01   0.033498726389998
                 1.962    0.23480080117413
                0.4446     0.8136829578829
 s    1 1.00
                 0.122                   1
 p    1 1.00
                 0.727                   1

3 0
 s    3 1.00
                 13.01   0.033498726389998
                 1.962    0.23480080117413
                0.4446     0.8136829578829
 s    1 1.00
                 0.122                   1
 p    1 1.00
                 0.727                   1

4 0
 s    8 1.00
                 11720  0.00070964594651845
                  1759  0.0054672722921914
                 400.8   0.027823118610189
                 113.7    0.10474773971146
                 37.03    0.28292084635691
                 13.27    0.44849523869833
                 5.025    0.27081688521277
                 1.013    0.01545029160744
 s    8 1.00
                 11720  -0.00031444341168873
                  1759  -0.0024821376810179
                 400.8  -0.012316355381583
                 113.7  -0.050538917343672
                 37.03   -0.13938490331632
                 13.27   -0.32507749481778
                 5.025   -0.22984830758785
                 1.013     1.0953793467883
 s    1 1.00
                0.3023                   1
 p    3 1.00
                  17.7   0.062679166281506
                 3.854    0.33353656587936
                 1.046    0.74123964163973
 p    1 1.00
                0.2753                   1
 d    1 1.00
                 1.185                   1

5 0
 s    8 1.00
                  6665  0.00069158396281299
                  1000  0.0053257961529341
                   228   0.027060721042034
                 64.71    0.10165684614077
                 21.06     0.2745748236174
                 7.495    0.44829431892377
                 2.797    0.28490261071525
                0.5215   0.015194859206082
 s    8 1.00
                  6665  -0.00029326965268655
                  1000  -0.0023180354739745
                   228  -0.011499786038565
                 64.71  -0.046826727009787
                 21.06   -0.12846616875047
                 7.495   -0.30126627246289
                 2.797   -0.25563070233011
                0.5215      1.093793361012
 s    1 1.00
                0.1596                   1
 p    3 1.00
                 9.439   0.056979251590039
                 2.002    0.31320721150073
                0.5456    0.76037674173753
 p    1 1.00
                0.1517                   1
 d    1 1.00
                  0.55                   1

6 0
 s    8 1.00
                  6665  0.00069158396281299
                  1000  0.0053257961529341
                   228   0.027060721042034
                 64.71    0.10165684614077
                 21.06     0.2745748236174
                 7.495    0.44829431892377
                 2.797    0.28490261071525
                0.5215   0.015194859206082
 s    8 1.00
                  6665  -0.00029326965268655
                  1000  -0.0023180354739745
                   228  -0.011499786038565
                 64.71  -0.046826727009787
                 21.06   -0.12846616875047
                 7.495   -0.30126627246289
                 2.797   -0.25563070233011
                0.5215      1.093793361012
 s    1 1.00
                0.1596                   1
 p    3 1.00
                 9.439   0.056979251590039
                 2.002    0.31320721150073
                0.5456    0.76037674173753
 p    1 1.00
                0.1517                   1
 d    1 1.00
                  0.55                   1

7 0
 s    8 1.00
                  6665  0.00069158396281299
                  1000  0.0053257961529341
                   228   0.027060721042034
                 64.71    0.10165684614077
                 21.06     0.2745748236174
                 7.495    0.44829431892377
                 2.797    0.28490261071525
                0.5215   0.015194859206082
 s    8 1.00
                  6665  -0.00029326965268655
                  1000  -0.0023180354739745
                   228  -0.011499786038565
                 64.71  -0.046826727009787
                 21.06   -0.12846616875047
                 7.495   -0.30126627246289
                 2.797   -0.25563070233011
                0.5215      1.093793361012
 s    1 1.00
                0.1596                   1
 p    3 1.00
                 9.439   0.056979251590039
                 2.002    0.31320721150073
                0.5456    0.76037674173753
 p    1 1.00
                0.1517                   1
 d    1 1.00
                  0.55                   1

8 0
 s    3 1.00
                 13.01   0.033498726389998
                 1.962    0.23480080117413
                0.4446     0.8136829578829
 s    1 1.00
                 0.122                   1
 p    1 1.00
                 0.727                   1

9 0
 s    8 1.00
                  6665  0.00069158396281299
                  1000  0.0053257961529341
                   228   0.027060721042034
                 64.71    0.10165684614077
                 21.06     0.2745748236174
                 7.495    0.44829431892377
                 2.797    0.28490261071525
                0.5215   0.015194859206082
 s    8 1.00
                  6665  -0.00029326965268655
                  1000  -0.0023180354739745
                   228  -0.011499786038565
                 64.71  -0.046826727009787
                 21.06   -0.12846616875047
                 7.495   -0.30126627246289
                 2.797   -0.25563070233011
                0.5215      1.093793361012
 s    1 1.00
                0.1596                   1
 p    3 1.00
                 9.439   0.056979251590039
                 2.002    0.31320721150073
                0.5456    0.76037674173753
 p    1 1.00
                0.1517                   1
 d    1 1.00
                  0.55                   1

10 0
 s    3 1.00
                 13.01   0.033498726389998
                 1.962    0.23480080117413
                0.4446     0.8136829578829
 s    1 1.00
                 0.122                   1
 p    1 1.00
                 0.727                   1

11 0
 s    3 1.00
                 13.01   0.033498726389998
                 1.962    0.23480080117413
                0.4446     0.8136829578829
 s    1 1.00
                 0.122                   1
 p    1 1.00
                 0.727                   1

12 0
 s    3 1.00
                 13.01   0.033498726389998
                 1.962    0.23480080117413
                0.4446     0.8136829578829
 s    1 1.00
                 0.122                   1
 p    1 1.00
                 0.727                   1

13 0
 s    8 1.00
                  6665  0.00069158396281299
                  1000  0.0053257961529341
                   228   0.027060721042034
                 64.71    0.10165684614077
                 21.06     0.2745748236174
                 7.495    0.44829431892377
                 2.797    0.28490261071525
                0.5215   0.015194859206082
 s    8 1.00
                  6665  -0.00029326965268655
                  1000  -0.0023180354739745
                   228  -0.011499786038565
                 64.71  -0.046826727009787
                 21.06   -0.12846616875047
                 7.495   -0.30126627246289
                 2.797   -0.25563070233011
                0.5215      1.093793361012
 s    1 1.00
                0.1596                   1
 p    3 1.00
                 9.439   0.056979251590039
                 2.002    0.31320721150073
                0.5456    0.76037674173753
 p    1 1.00
                0.1517                   1
 d    1 1.00
                  0.55                   1

14 0
 s    3 1.00
                 13.01   0.033498726389998
                 1.962    0.23480080117413
                0.4446     0.8136829578829
 s    1 1.00
                 0.122                   1
 p    1 1.00
                 0.727                   1

15 0
 s    3 1.00
                 13.01   0.033498726389998
                 1.962    0.23480080117413
                0.4446     0.8136829578829
 s    1 1.00
                 0.122                   1
 p    1 1.00
                 0.727                   1

16 0
 s    8 1.00
                  6665  0.00069158396281299
                  1000  0.0053257961529341
                   228   0.027060721042034
                 64.71    0.10165684614077
                 21.06     0.2745748236174
                 7.495    0.44829431892377
                 2.797    0.28490261071525
                0.5215   0.015194859206082
 s    8 1.00
                  6665  -0.00029326965268655
                  1000  -0.0023180354739745
                   228  -0.011499786038565
                 64.71  -0.046826727009787
                 21.06   -0.12846616875047
                 7.495   -0.30126627246289
                 2.797   -0.25563070233011
                0.5215      1.093793361012
 s    1 1.00
                0.1596                   1
 p    3 1.00
                 9.439   0.056979251590039
                 2.002    0.31320721150073
                0.5456    0.76037674173753
 p    1 1.00
                0.1517                   1
 d    1 1.00
                  0.55                   1

17 0
 s    3 1.00
                 13.01   0.033498726389998
                 1.962    0.23480080117413
                0.4446     0.8136829578829
 s    1 1.00
                 0.122                   1
 p    1 1.00
                 0.727                   1

18 0
 s    3 1.00
                 13.01   0.033498726389998
                 1.962    0.23480080117413
                0.4446     0.8136829578829
 s    1 1.00
                 0.122                   1
 p    1 1.00
                 0.727                   1

19 0
 s    8 1.00
                  6665  0.00069158396281299
                  1000  0.0053257961529341
                   228   0.027060721042034
                 64.71    0.10165684614077
                 21.06     0.2745748236174
                 7.495    0.44829431892377
                 2.797    0.28490261071525
                0.5215   0.015194859206082
 s    8 1.00
                  6665  -0.00029326965268655
                  1000  -0.0023180354739745
                   228  -0.011499786038565
                 64.71  -0.046826727009787
                 21.06   -0.12846616875047
                 7.495   -0.30126627246289
                 2.797   -0.25563070233011
                0.5215      1.093793361012
 s    1 1.00
                0.1596                   1
 p    3 1.00
                 9.439   0.056979251590039
                 2.002    0.31320721150073
                0.5456    0.76037674173753
 p    1 1.00
                0.1517                   1
 d    1 1.00
                  0.55                   1

20 0
 s    3 1.00
                 13.01   0.033498726389998
                 1.962    0.23480080117413
                0.4446     0.8136829578829
 s    1 1.00
                 0.122                   1
 p    1 1.00
                 0.727                   1

21 0
 s    8 1.00
                  6665  0.00069158396281299
                  1000  0.0053257961529341
                   228   0.027060721042034
                 64.71    0.10165684614077
                 21.06     0.2745748236174
                 7.495    0.44829431892377
                 2.797    0.28490261071525
                0.5215   0.015194859206082
 s    8 1.00
                  6665  -0.00029326965268655
                  1000  -0.0023180354739745
                   228  -0.011499786038565
                 64.71  -0.046826727009787
                 21.06   -0.12846616875047
                 7.495   -0.30126627246289
                 2.797   -0.25563070233011
                0.5215      1.093793361012
 s    1 1.00
                0.1596                   1
 p    3 1.00
                 9.439   0.056979251590039
                 2.002    0.31320721150073
                0.5456    0.76037674173753
 p    1 1.00
                0.1517                   1
 d    1 1.00
                  0.55                   1

22 0
 s    3 1.00
                 13.01   0.033498726389998
                 1.962    0.23480080117413
                0.4446     0.8136829578829
 s    1 1.00
                 0.122                   1
 p    1 1.00
                 0.727                   1

23 0
 s    3 1.00
                 13.01   0.033498726389998
                 1.962    0.23480080117413
                0.4446     0.8136829578829
 s    1 1.00
                 0.122                   1
 p    1 1.00
                 0.727                   1

24 0
 s    3 1.00
                 13.01   0.033498726389998
                 1.962    0.23480080117413
                0.4446     0.8136829578829
 s    1 1.00
                 0.122                   1
 p    1 1.00
                 0.727                   1

25 0
 s    8 1.00
                  6665  0.00069158396281299
                  1000  0.0053257961529341
                   228   0.027060721042034
                 64.71    0.10165684614077
                 21.06     0.2745748236174
                 7.495    0.44829431892377
                 2.797    0.28490261071525
                0.5215   0.015194859206082
 s    8 1.00
                  6665  -0.00029326965268655
                  1000  -0.0023180354739745
                   228  -0.011499786038565
                 64.71  -0.046826727009787
                 21.06   -0.12846616875047
                 7.495   -0.30126627246289
                 2.797   -0.25563070233011
                0.5215      1.093793361012
 s    1 1.00
                0.1596                   1
 p    3 1.00
                 9.439   0.056979251590039
                 2.002    0.31320721150073
                0.5456    0.76037674173753
 p    1 1.00
                0.1517                   1
 d    1 1.00
                  0.55                   1

26 0
 s    3 1.00
                 13.01   0.033498726389998
                 1.962    0.23480080117413
                0.4446     0.8136829578829
 s    1 1.00
                 0.122                   1
 p    1 1.00
                 0.727                   1

27 0
 s    3 1.00
                 13.01   0.033498726389998
                 1.962    0.23480080117413
                0.4446     0.8136829578829
 s    1 1.00
                 0.122                   1
 p    1 1.00
                 0.727                   1

28 0
 s    8 1.00
                  6665  0.00069158396281299
                  1000  0.0053257961529341
                   228   0.027060721042034
                 64.71    0.10165684614077
                 21.06     0.2745748236174
                 7.495    0.44829431892377
                 2.797    0.28490261071525
                0.5215   0.015194859206082
 s    8 1.00
                  6665  -0.00029326965268655
                  1000  -0.0023180354739745
                   228  -0.011499786038565
                 64.71  -0.046826727009787
                 21.06   -0.12846616875047
                 7.495   -0.30126627246289
                 2.797   -0.25563070233011
                0.5215      1.093793361012
 s    1 1.00
                0.1596                   1
 p    3 1.00
                 9.439   0.056979251590039
                 2.002    0.31320721150073
                0.5456    0.76037674173753
 p    1 1.00
                0.1517                   1
 d    1 1.00
                  0.55                   1

29 0
 s    3 1.00
                 13.01   0.033498726389998
                 1.962    0.23480080117413
                0.4446     0.8136829578829
 s    1 1.00
                 0.122                   1
 p    1 1.00
                 0.727                   1

30 0
 s    3 1.00
                 13.01   0.033498726389998
                 1.962    0.23480080117413
                0.4446     0.8136829578829
 s    1 1.00
                 0.122                   1
 p    1 1.00
                 0.727                   1

31 0
 s    8 1.00
                  6665  0.00069158396281299
                  1000  0.0053257961529341
                   228   0.027060721042034
                 64.71    0.10165684614077
                 21.06     0.2745748236174
                 7.495    0.44829431892377
                 2.797    0.28490261071525
                0.5215   0.015194859206082
 s    8 1.00
                  6665  -0.00029326965268655
                  1000  -0.0023180354739745
                   228  -0.011499786038565
                 64.71  -0.046826727009787
                 21.06   -0.12846616875047
                 7.495   -0.30126627246289
                 2.797   -0.25563070233011
                0.5215      1.093793361012
 s    1 1.00
                0.1596                   1
 p    3 1.00
                 9.439   0.056979251590039
                 2.002    0.31320721150073
                0.5456    0.76037674173753
 p    1 1.00
                0.1517                   1
 d    1 1.00
                  0.55                   1

32 0
 s    3 1.00
                 13.01   0.033498726389998
                 1.962    0.23480080117413
                0.4446     0.8136829578829
 s    1 1.00
                 0.122                   1
 p    1 1.00
                 0.727                   1

33 0
 s    3 1.00
                 13.01   0.033498726389998
                 1.962    0.23480080117413
                0.4446     0.8136829578829
 s    1 1.00
                 0.122                   1
 p    1 1.00
                 0.727                   1

34 0
 s    3 1.00
                 13.01   0.033498726389998
                 1.962    0.23480080117413
                0.4446     0.8136829578829
 s    1 1.00
                 0.122                   1
 p    1 1.00
                 0.727                   1

35 0
 s    3 1.00
                 13.01   0.033498726389998
                 1.962    0.23480080117413
                0.4446     0.8136829578829
 s    1 1.00
                 0.122                   1
 p    1 1.00
                 0.727                   1

36 0
 s    3 1.00
                 13.01   0.033498726389998
                 1.962    0.23480080117413
                0.4446     0.8136829578829
 s    1 1.00
                 0.122                   1
 p    1 1.00
                 0.727                   1

37 0
 s    3 1.00
                 13.01   0.033498726389998
                 1.962    0.23480080117413
                0.4446     0.8136829578829
 s    1 1.00
                 0.122                   1
 p    1 1.00
                 0.727                   1

[5d]
[7f]
[9g]

[MO]
 Sym= A
 Ene=               0
 Spin= Alpha
 Occup=    1.00000
   1    -4.267473180497e-05
   2    -2.8226728275551e-05
   3    0.00010129521500524
   4    -8.4104685099518e-08
   5    3.9461833853284e-06
   6    1.436304619419e-06
   7    5.4012543858773e-07
   8    -2.0634473179144e-05
   9    -7.187795511623e-05
  10    1.2423306877812e-05
  11    8.9262446805531e-09
  12    -8.1804466923507e-07
  13    5.1531972717318e-07
  14    2.5428995996038e-08
  15    -1.3223017133694e-05
  16    -0.00014665262242952
  17    -8.8880477941789e-08
  18    1.3156725344734e-06
  19    -3.5700052101047e-05
  20    -6.2905679580165e-06
  21    5.6789025053141e-05
  22    1.7459795229599e-07
  23    -5.7394955015995e-06
  24    2.2703798899219e-06
  25        1.001363195186
  26    0.0019540036239969
  27    -0.0068003276245066
  28    -4.491990899286e-06
  29    8.7837270576898e-06
  30    -0.0016549289421249
  31    -2.3885576989827e-07
  32    -8.6577932205842e-07
  33    0.0018350061054308
  34    0.00012567258737848
  35    -3.1066822838005e-06
  36    1.4115421803294e-06
  37    6.7490382226806e-05
  38    -0.00017572253170104
  39    0.00027476094929553
  40    0.00037211371021087
  41    0.0014181586299558
  42    1.9346306706602e-05
  43    -1.2660715826304e-05
  44    -4.5637767695789e-06
  45    8.5954410129728e-05
  46    -6.600398893036e-05
  47    0.0035581341686341
  48    -0.00053350845108068
  49    -8.9067129880983e-06
  50    2.8020592304264e-06
  51    2.9023779071114e-05
  52    -0.00010784968309142
  53    -8.4971032462956e-05
  54    -0.00016439472536932
  55    0.0013725311249084
  56    7.6593936947931e-05
  57    -5.6983222233432e-06
  58    -3.5518635379201e-05
  59    -0.00042454612767519
  60    0.00047784178028094
  61    -0.00093054371398596
  62    -0.00011738167482381
  63    0.00014992666771331
  64    -0.00014281167817765
  65    5.5000639587454e-05
  66    -0.00012969091706921
  67    -4.0402248437917e-05
  68    -9.0791173515052e-05
  69    0.00052116552106834
  70    -7.2754953089161e-05
  71    4.622258369172e-05
  72    -5.5963744910874e-05
  73    0.00099286065488204
  74    -0.00076616250950555
  75    -0.00063435323938421
  76    -0.00014021731510224
  77    -0.00012181920856352
  78    8.9694737548543e-05
  79    5.9009100676789e-05
  80    -0.00015098128278578
  81    -6.5222583819388e-05
  82    0.00020608166310724
  83    6.6032261276775e-05
  84    -4.8490675659693e-05
  85    4.8898263336274e-05
  86    2.5035180564857e-05
  87    4.9448543124102e-05
  88    -0.00060648895393281
  89    -1.591345473772e-05
  90    -1.8058564911523e-05
  91    1.184484814954e-05
  92    0.0002564152888762
  93    0.00062636030532596
  94    -1.7872395868818e-05
  95    1.8252390777911e-05
  96    1.0956749728608e-05
  97    7.2230054610547e-06
  98    -2.0396040547717e-05
  99    -4.5671548858721e-05
 100    -3.7247199275659e-05
 101    -0.00015895724758213
 102    9.0011097210257e-06
 103    -9.8031390833129e-06
 104    7.4674847046287e-05
 105    -1.8309142807385e-05
 106    -0.00020178443027672
 107    -6.4645053919036e-05
 108    1.1160023297386e-05
 109    7.4945819129976e-05
 110    7.9423035829555e-05
 111    -5.8400964557898e-05
 112    -4.581546737584e-05
 113    1.8654844251369e-05
 114    6.9987060800626e-05
 115    -6.9107437206506e-05
 116    -0.0001186441730928
 117    0.00082759026940458
 118    2.1493340929951e-06
 119    -3.6717382585572e-05
 120    3.9522811574139e-05
 121    0.00030696467525346
 122    1.7893527528632e-05
 123    -0.00013408924888655
 124    -6.6184295067675e-06
 125    9.0179036357105e-06
 126    1.7264860430286e-05
 127    -3.205333521714e-05
 128    5.1271177534949e-05
 129    -1.9885929134521e-05
 130    -0.00032380240062531
 131    7.6082440874487e-06
 132    5.8833730751793e-06
 133    2.9227071713416e-05
 134    2.5458414404626e-05
 135    -0.00011866697939888
 136    -1.3469695948831e-05
 137    -2.421584766608e-05
 138    -2.6651497586851e-05
 139    -2.3886706606985e-05
 140    -4.0759562140059e-05
 141    0.00028843686329809
 142    7.5594734407776e-06
 143    2.7786509107724e-06
 144    -8.0801760290413e-06
 145    -0.00023004060142159
 146    5.5478988649303e-05
 147    6.2663938161198e-05
 148    -2.5513916188946e-06
 149    2.6973317793757e-06
 150    -3.806408848699e-06
 151    1.1935507642244e-05
 152    -4.7230959692229e-06
 153    -0.00010595213226414
 154    -0.00011196519163324
 155    -2.500046658522e-05
 156    2.9651759604517e-05
 157    2.1109444760404e-05
 158    -2.3923129348952e-05
 159    -8.6417024475552e-05
 160    -5.8888745886379e-05
 161    -7.895794056687e-06
 162    6.3760517902354e-06
 163    -1.0277567815253e-05
 164    -3.5743165829723e-05
 165    -0.00026257716285644
 166    -4.4608370390644e-05
 167    2.9849853942078e-05
 168    -1.1932904290626e-06
 169    0.0002238354082127
 170    -0.00020476855594509
 171    -0.00013692375957544
 172    -3.039740156978e-06
 173    7.6454415398765e-06
 174    -1.2058283717626e-05
 175    2.9738910813862e-06
 176    -1.7169080399907e-05
 177    -2.0227952057271e-05
 178    8.2281142961142e-05
 179    -5.7095301004649e-07
 180    1.9099830482291e-06
 181    -4.707409069545e-06
 182    1.677967786379e-05
 183    3.1854152509895e-05
 184    -6.4432012318536e-05
 185    -5.4873375734435e-06
 186    6.8920411886021e-06
 187    9.5349135336659e-06
 188    0.00012656728148775
 189    -0.00010034686567823
 190    -8.3332021695803e-05
 191    1.2902906951892e-06
 192    2.0607469839431e-06
 193    -7.4953985401596e-06
 194    -3.1240470034886e-06
 195    -4.9183233111558e-06
 196    -1.7288662922366e-05
 197    -1.944830069784e-05
 198    5.4853934242784e-06
 199    1.7672062167268e-06
 200    -3.7732408293327e-06
 201    -2.2894225035207e-05
 202    3.0144783948877e-06
 203    -1.4138742144728e-05
 204    9.5095537987159e-06
 205    1.0607112041509e-05
 206    -2.4204238375894e-06
 207    6.8134836701656e-05
 208    -1.5993249990455e-05
 209    5.5438221399959e-06
 210    1.4798521711514e-05
 211    -1.7983749626932e-05
 212    -2.8279919115677e-05
 213    0.00026081708368902
 214    9.2365353968494e-06
 215    -3.4999198320696e-06
 216    -9.4484719388217e-06
 217    0.00020042766942962
 218    -5.5637877993434e-05
 219    -7.8742901546073e-05
 220    -1.3359736697235e-06
 221    -1.6573134962631e-05
 222    5.4951783652555e-06
 223    8.8218465921535e-06
 224    -1.1172676052345e-06
 225    3.1611954160656e-05
 226    5.612415383557e-05
 227    -1.2511265004769e-05
 228    -2.3587320976294e-06
 229    -1.1975715973414e-06
 230    1.0778046039609e-05
 231    5.3758107500436e-05
 232    -3.8309543632979e-06
 233    6.3265052639688e-06
 234    1.2217724450935e-05
 235    3.938067756674e-07
 236    1.9448661817784e-07
 237    -7.8450520034678e-05
 238    3.031866466615e-06
 239    1.0308298877681e-06
 240    -4.137475583376e-06
 241    3.5665260034786e-05
 242    -6.3096295565995e-05
 243    1.7572283620956e-05
 244    1.9502723452473e-06
 245    1.7787884080661e-06
 246    -1.760822629632e-06
 247    7.6946051003914e-08
 248    9.1937275423584e-07
 249    -1.7512943226964e-05
 250    1.3109650542715e-05
 251    -4.3813932237339e-06
 252    -9.9377005305814e-07
 253    -3.5118990582644e-07
 254    -1.5978005110089e-05
 255    5.6100094158267e-05
 256    1.3200560542138e-07
 257    4.3134020318561e-06
 258    -1.0629400612831e-06
 259    -1.0944773450369e-05
 260    -2.0682295116344e-05
 261    7.7317380663923e-05
 262    -4.8949380830234e-06