[Molden Format]
made by pyscf v[2.0.1]
[Atoms] (AU)
O   1   8     0.00000000000000     0.00000000000000     9.42996968581551
H   2   1     0.00000000000000     0.00000000000000     7.60656786391454
H   3   1    -0.05031916615174     1.78353065140343     9.80584138228218
O   4   8     0.00000000000000     0.00000000000000     2.31533471513237
C   5   6     0.00000000000000     0.00000000000000     0.00000000000000
C   6   6     2.01118073026938    -1.40227222164369    -1.50774939176400
C   7   6    -2.01249334291722     1.41331050329955    -1.50315905028694
H   8   1     3.32037363730244    -2.26721897153159    -0.13599698591495
C   9   6     3.45899267434009     0.28739631745591    -3.37437943254505
H   10   1     1.07662969841332    -2.94725144642667    -2.56541439481080
H   11   1    -2.67503415753480     0.18421555839588    -3.06194479365997
H   12   1    -1.07974048864772     3.03851734677796    -2.43674295017013
C   13   6    -4.21607110578555     2.32938802552922     0.11994162256091
H   14   1     4.24440173074564     1.93368664142019    -2.34976285512790
H   15   1     2.15020713235517     1.04714335134846    -4.81494497423699
C   16   6     5.60746363007797    -1.12419643481196    -4.70268606082550
H   17   1    -3.46838323670267     3.50951302338067     1.66946842715333
H   18   1    -5.11873485366228     0.68575958301209     1.04047743976495
C   19   6    -6.18314754751344     3.80909592987882    -1.39656589068747
H   20   1     6.93011263717176    -1.87550812453645    -3.26656317360070
C   21   6     7.06356622236532     0.52877932406334    -6.57829775293605
H   22   1     4.82318879258361    -2.78573437948532    -5.70504560381835
H   23   1    -6.91582688743803     2.61304780074712    -2.95074552451969
H   24   1    -5.26532430573853     5.45420349051338    -2.31005832200284
C   25   6    -8.39941882261433     4.73263980500213     0.21800571437956
H   26   1     7.83338371486801     2.19084139882824    -5.57093109900697
H   27   1     5.73544244039420     1.27376866537418    -8.01071492370229
C   28   6     9.21124858443101    -0.89699110072176    -7.88926949186242
H   29   1    -7.66272760055236     5.92277078003992     1.77035591474408
H   30   1    -9.31497248082589     3.08753015622020     1.12614408368786
C   31   6   -10.35481709231879     6.21833079391143    -1.30905206253246
H   32   1    10.58815905329501    -1.61074586756696    -6.49512691622620
H   33   1    10.23506248045667     0.32468009384095    -9.23072870921204
H   34   1     8.47665842847139    -2.53598436989925    -8.94921964622535
H   35   1    -9.48948872868064     7.90013588951020    -2.18823918416067
H   36   1   -11.93332513000955     6.86460487874102    -0.11255798845995
H   37   1   -11.15126291841033     5.04495968327630    -2.83849898862534
[GTO]
1 0
 s    8 1.00
                 11720  0.00070964594651845
                  1759  0.0054672722921914
                 400.8   0.027823118610189
                 113.7    0.10474773971146
                 37.03    0.28292084635691
                 13.27    0.44849523869833
                 5.025    0.27081688521277
                 1.013    0.01545029160744
 s    8 1.00
                 11720  -0.00031444341168873
                  1759  -0.0024821376810179
                 400.8  -0.012316355381583
                 113.7  -0.050538917343672
                 37.03   -0.13938490331632
                 13.27   -0.32507749481778
                 5.025   -0.22984830758785
                 1.013     1.0953793467883
 s    1 1.00
                0.3023                   1
 p    3 1.00
                  17.7   0.062679166281506
                 3.854    0.33353656587936
                 1.046    0.74123964163973
 p    1 1.00
                0.2753                   1
 d    1 1.00
                 1.185                   1

2 0
 s    3 1.00
                 13.01   0.033498726389998
                 1.962    0.23480080117413
                0.4446     0.8136829578829
 s    1 1.00
                 0.122                   1
 p    1 1.00
                 0.727                   1

3 0
 s    3 1.00
                 13.01   0.033498726389998
                 1.962    0.23480080117413
                0.4446     0.8136829578829
 s    1 1.00
                 0.122                   1
 p    1 1.00
                 0.727                   1

4 0
 s    8 1.00
                 11720  0.00070964594651845
                  1759  0.0054672722921914
                 400.8   0.027823118610189
                 113.7    0.10474773971146
                 37.03    0.28292084635691
                 13.27    0.44849523869833
                 5.025    0.27081688521277
                 1.013    0.01545029160744
 s    8 1.00
                 11720  -0.00031444341168873
                  1759  -0.0024821376810179
                 400.8  -0.012316355381583
                 113.7  -0.050538917343672
                 37.03   -0.13938490331632
                 13.27   -0.32507749481778
                 5.025   -0.22984830758785
                 1.013     1.0953793467883
 s    1 1.00
                0.3023                   1
 p    3 1.00
                  17.7   0.062679166281506
                 3.854    0.33353656587936
                 1.046    0.74123964163973
 p    1 1.00
                0.2753                   1
 d    1 1.00
                 1.185                   1

5 0
 s    8 1.00
                  6665  0.00069158396281299
                  1000  0.0053257961529341
                   228   0.027060721042034
                 64.71    0.10165684614077
                 21.06     0.2745748236174
                 7.495    0.44829431892377
                 2.797    0.28490261071525
                0.5215   0.015194859206082
 s    8 1.00
                  6665  -0.00029326965268655
                  1000  -0.0023180354739745
                   228  -0.011499786038565
                 64.71  -0.046826727009787
                 21.06   -0.12846616875047
                 7.495   -0.30126627246289
                 2.797   -0.25563070233011
                0.5215      1.093793361012
 s    1 1.00
                0.1596                   1
 p    3 1.00
                 9.439   0.056979251590039
                 2.002    0.31320721150073
                0.5456    0.76037674173753
 p    1 1.00
                0.1517                   1
 d    1 1.00
                  0.55                   1

6 0
 s    8 1.00
                  6665  0.00069158396281299
                  1000  0.0053257961529341
                   228   0.027060721042034
                 64.71    0.10165684614077
                 21.06     0.2745748236174
                 7.495    0.44829431892377
                 2.797    0.28490261071525
                0.5215   0.015194859206082
 s    8 1.00
                  6665  -0.00029326965268655
                  1000  -0.0023180354739745
                   228  -0.011499786038565
                 64.71  -0.046826727009787
                 21.06   -0.12846616875047
                 7.495   -0.30126627246289
                 2.797   -0.25563070233011
                0.5215      1.093793361012
 s    1 1.00
                0.1596                   1
 p    3 1.00
                 9.439   0.056979251590039
                 2.002    0.31320721150073
                0.5456    0.76037674173753
 p    1 1.00
                0.1517                   1
 d    1 1.00
                  0.55                   1

7 0
 s    8 1.00
                  6665  0.00069158396281299
                  1000  0.0053257961529341
                   228   0.027060721042034
                 64.71    0.10165684614077
                 21.06     0.2745748236174
                 7.495    0.44829431892377
                 2.797    0.28490261071525
                0.5215   0.015194859206082
 s    8 1.00
                  6665  -0.00029326965268655
                  1000  -0.0023180354739745
                   228  -0.011499786038565
                 64.71  -0.046826727009787
                 21.06   -0.12846616875047
                 7.495   -0.30126627246289
                 2.797   -0.25563070233011
                0.5215      1.093793361012
 s    1 1.00
                0.1596                   1
 p    3 1.00
                 9.439   0.056979251590039
                 2.002    0.31320721150073
                0.5456    0.76037674173753
 p    1 1.00
                0.1517                   1
 d    1 1.00
                  0.55                   1

8 0
 s    3 1.00
                 13.01   0.033498726389998
                 1.962    0.23480080117413
                0.4446     0.8136829578829
 s    1 1.00
                 0.122                   1
 p    1 1.00
                 0.727                   1

9 0
 s    8 1.00
                  6665  0.00069158396281299
                  1000  0.0053257961529341
                   228   0.027060721042034
                 64.71    0.10165684614077
                 21.06     0.2745748236174
                 7.495    0.44829431892377
                 2.797    0.28490261071525
                0.5215   0.015194859206082
 s    8 1.00
                  6665  -0.00029326965268655
                  1000  -0.0023180354739745
                   228  -0.011499786038565
                 64.71  -0.046826727009787
                 21.06   -0.12846616875047
                 7.495   -0.30126627246289
                 2.797   -0.25563070233011
                0.5215      1.093793361012
 s    1 1.00
                0.1596                   1
 p    3 1.00
                 9.439   0.056979251590039
                 2.002    0.31320721150073
                0.5456    0.76037674173753
 p    1 1.00
                0.1517                   1
 d    1 1.00
                  0.55                   1

10 0
 s    3 1.00
                 13.01   0.033498726389998
                 1.962    0.23480080117413
                0.4446     0.8136829578829
 s    1 1.00
                 0.122                   1
 p    1 1.00
                 0.727                   1

11 0
 s    3 1.00
                 13.01   0.033498726389998
                 1.962    0.23480080117413
                0.4446     0.8136829578829
 s    1 1.00
                 0.122                   1
 p    1 1.00
                 0.727                   1

12 0
 s    3 1.00
                 13.01   0.033498726389998
                 1.962    0.23480080117413
                0.4446     0.8136829578829
 s    1 1.00
                 0.122                   1
 p    1 1.00
                 0.727                   1

13 0
 s    8 1.00
                  6665  0.00069158396281299
                  1000  0.0053257961529341
                   228   0.027060721042034
                 64.71    0.10165684614077
                 21.06     0.2745748236174
                 7.495    0.44829431892377
                 2.797    0.28490261071525
                0.5215   0.015194859206082
 s    8 1.00
                  6665  -0.00029326965268655
                  1000  -0.0023180354739745
                   228  -0.011499786038565
                 64.71  -0.046826727009787
                 21.06   -0.12846616875047
                 7.495   -0.30126627246289
                 2.797   -0.25563070233011
                0.5215      1.093793361012
 s    1 1.00
                0.1596                   1
 p    3 1.00
                 9.439   0.056979251590039
                 2.002    0.31320721150073
                0.5456    0.76037674173753
 p    1 1.00
                0.1517                   1
 d    1 1.00
                  0.55                   1

14 0
 s    3 1.00
                 13.01   0.033498726389998
                 1.962    0.23480080117413
                0.4446     0.8136829578829
 s    1 1.00
                 0.122                   1
 p    1 1.00
                 0.727                   1

15 0
 s    3 1.00
                 13.01   0.033498726389998
                 1.962    0.23480080117413
                0.4446     0.8136829578829
 s    1 1.00
                 0.122                   1
 p    1 1.00
                 0.727                   1

16 0
 s    8 1.00
                  6665  0.00069158396281299
                  1000  0.0053257961529341
                   228   0.027060721042034
                 64.71    0.10165684614077
                 21.06     0.2745748236174
                 7.495    0.44829431892377
                 2.797    0.28490261071525
                0.5215   0.015194859206082
 s    8 1.00
                  6665  -0.00029326965268655
                  1000  -0.0023180354739745
                   228  -0.011499786038565
                 64.71  -0.046826727009787
                 21.06   -0.12846616875047
                 7.495   -0.30126627246289
                 2.797   -0.25563070233011
                0.5215      1.093793361012
 s    1 1.00
                0.1596                   1
 p    3 1.00
                 9.439   0.056979251590039
                 2.002    0.31320721150073
                0.5456    0.76037674173753
 p    1 1.00
                0.1517                   1
 d    1 1.00
                  0.55                   1

17 0
 s    3 1.00
                 13.01   0.033498726389998
                 1.962    0.23480080117413
                0.4446     0.8136829578829
 s    1 1.00
                 0.122                   1
 p    1 1.00
                 0.727                   1

18 0
 s    3 1.00
                 13.01   0.033498726389998
                 1.962    0.23480080117413
                0.4446     0.8136829578829
 s    1 1.00
                 0.122                   1
 p    1 1.00
                 0.727                   1

19 0
 s    8 1.00
                  6665  0.00069158396281299
                  1000  0.0053257961529341
                   228   0.027060721042034
                 64.71    0.10165684614077
                 21.06     0.2745748236174
                 7.495    0.44829431892377
                 2.797    0.28490261071525
                0.5215   0.015194859206082
 s    8 1.00
                  6665  -0.00029326965268655
                  1000  -0.0023180354739745
                   228  -0.011499786038565
                 64.71  -0.046826727009787
                 21.06   -0.12846616875047
                 7.495   -0.30126627246289
                 2.797   -0.25563070233011
                0.5215      1.093793361012
 s    1 1.00
                0.1596                   1
 p    3 1.00
                 9.439   0.056979251590039
                 2.002    0.31320721150073
                0.5456    0.76037674173753
 p    1 1.00
                0.1517                   1
 d    1 1.00
                  0.55                   1

20 0
 s    3 1.00
                 13.01   0.033498726389998
                 1.962    0.23480080117413
                0.4446     0.8136829578829
 s    1 1.00
                 0.122                   1
 p    1 1.00
                 0.727                   1

21 0
 s    8 1.00
                  6665  0.00069158396281299
                  1000  0.0053257961529341
                   228   0.027060721042034
                 64.71    0.10165684614077
                 21.06     0.2745748236174
                 7.495    0.44829431892377
                 2.797    0.28490261071525
                0.5215   0.015194859206082
 s    8 1.00
                  6665  -0.00029326965268655
                  1000  -0.0023180354739745
                   228  -0.011499786038565
                 64.71  -0.046826727009787
                 21.06   -0.12846616875047
                 7.495   -0.30126627246289
                 2.797   -0.25563070233011
                0.5215      1.093793361012
 s    1 1.00
                0.1596                   1
 p    3 1.00
                 9.439   0.056979251590039
                 2.002    0.31320721150073
                0.5456    0.76037674173753
 p    1 1.00
                0.1517                   1
 d    1 1.00
                  0.55                   1

22 0
 s    3 1.00
                 13.01   0.033498726389998
                 1.962    0.23480080117413
                0.4446     0.8136829578829
 s    1 1.00
                 0.122                   1
 p    1 1.00
                 0.727                   1

23 0
 s    3 1.00
                 13.01   0.033498726389998
                 1.962    0.23480080117413
                0.4446     0.8136829578829
 s    1 1.00
                 0.122                   1
 p    1 1.00
                 0.727                   1

24 0
 s    3 1.00
                 13.01   0.033498726389998
                 1.962    0.23480080117413
                0.4446     0.8136829578829
 s    1 1.00
                 0.122                   1
 p    1 1.00
                 0.727                   1

25 0
 s    8 1.00
                  6665  0.00069158396281299
                  1000  0.0053257961529341
                   228   0.027060721042034
                 64.71    0.10165684614077
                 21.06     0.2745748236174
                 7.495    0.44829431892377
                 2.797    0.28490261071525
                0.5215   0.015194859206082
 s    8 1.00
                  6665  -0.00029326965268655
                  1000  -0.0023180354739745
                   228  -0.011499786038565
                 64.71  -0.046826727009787
                 21.06   -0.12846616875047
                 7.495   -0.30126627246289
                 2.797   -0.25563070233011
                0.5215      1.093793361012
 s    1 1.00
                0.1596                   1
 p    3 1.00
                 9.439   0.056979251590039
                 2.002    0.31320721150073
                0.5456    0.76037674173753
 p    1 1.00
                0.1517                   1
 d    1 1.00
                  0.55                   1

26 0
 s    3 1.00
                 13.01   0.033498726389998
                 1.962    0.23480080117413
                0.4446     0.8136829578829
 s    1 1.00
                 0.122                   1
 p    1 1.00
                 0.727                   1

27 0
 s    3 1.00
                 13.01   0.033498726389998
                 1.962    0.23480080117413
                0.4446     0.8136829578829
 s    1 1.00
                 0.122                   1
 p    1 1.00
                 0.727                   1

28 0
 s    8 1.00
                  6665  0.00069158396281299
                  1000  0.0053257961529341
                   228   0.027060721042034
                 64.71    0.10165684614077
                 21.06     0.2745748236174
                 7.495    0.44829431892377
                 2.797    0.28490261071525
                0.5215   0.015194859206082
 s    8 1.00
                  6665  -0.00029326965268655
                  1000  -0.0023180354739745
                   228  -0.011499786038565
                 64.71  -0.046826727009787
                 21.06   -0.12846616875047
                 7.495   -0.30126627246289
                 2.797   -0.25563070233011
                0.5215      1.093793361012
 s    1 1.00
                0.1596                   1
 p    3 1.00
                 9.439   0.056979251590039
                 2.002    0.31320721150073
                0.5456    0.76037674173753
 p    1 1.00
                0.1517                   1
 d    1 1.00
                  0.55                   1

29 0
 s    3 1.00
                 13.01   0.033498726389998
                 1.962    0.23480080117413
                0.4446     0.8136829578829
 s    1 1.00
                 0.122                   1
 p    1 1.00
                 0.727                   1

30 0
 s    3 1.00
                 13.01   0.033498726389998
                 1.962    0.23480080117413
                0.4446     0.8136829578829
 s    1 1.00
                 0.122                   1
 p    1 1.00
                 0.727                   1

31 0
 s    8 1.00
                  6665  0.00069158396281299
                  1000  0.0053257961529341
                   228   0.027060721042034
                 64.71    0.10165684614077
                 21.06     0.2745748236174
                 7.495    0.44829431892377
                 2.797    0.28490261071525
                0.5215   0.015194859206082
 s    8 1.00
                  6665  -0.00029326965268655
                  1000  -0.0023180354739745
                   228  -0.011499786038565
                 64.71  -0.046826727009787
                 21.06   -0.12846616875047
                 7.495   -0.30126627246289
                 2.797   -0.25563070233011
                0.5215      1.093793361012
 s    1 1.00
                0.1596                   1
 p    3 1.00
                 9.439   0.056979251590039
                 2.002    0.31320721150073
                0.5456    0.76037674173753
 p    1 1.00
                0.1517                   1
 d    1 1.00
                  0.55                   1

32 0
 s    3 1.00
                 13.01   0.033498726389998
                 1.962    0.23480080117413
                0.4446     0.8136829578829
 s    1 1.00
                 0.122                   1
 p    1 1.00
                 0.727                   1

33 0
 s    3 1.00
                 13.01   0.033498726389998
                 1.962    0.23480080117413
                0.4446     0.8136829578829
 s    1 1.00
                 0.122                   1
 p    1 1.00
                 0.727                   1

34 0
 s    3 1.00
                 13.01   0.033498726389998
                 1.962    0.23480080117413
                0.4446     0.8136829578829
 s    1 1.00
                 0.122                   1
 p    1 1.00
                 0.727                   1

35 0
 s    3 1.00
                 13.01   0.033498726389998
                 1.962    0.23480080117413
                0.4446     0.8136829578829
 s    1 1.00
                 0.122                   1
 p    1 1.00
                 0.727                   1

36 0
 s    3 1.00
                 13.01   0.033498726389998
                 1.962    0.23480080117413
                0.4446     0.8136829578829
 s    1 1.00
                 0.122                   1
 p    1 1.00
                 0.727                   1

37 0
 s    3 1.00
                 13.01   0.033498726389998
                 1.962    0.23480080117413
                0.4446     0.8136829578829
 s    1 1.00
                 0.122                   1
 p    1 1.00
                 0.727                   1

[5d]
[7f]
[9g]

[MO]
 Sym= A
 Ene=               0
 Spin= Alpha
 Occup=    1.00000
   1    -5.9582638125233e-05
   2    -4.3182890927029e-05
   3     0.000130654462023
   4    -7.7577187173598e-08
   5    5.4611980658329e-06
   6    8.007969377607e-06
   7    5.9058564355076e-07
   8    -2.51781531743e-05
   9    -8.5721208150131e-05
  10    1.1190821943433e-05
  11    -2.1128505746737e-08
  12    -6.0099964769687e-07
  13    3.3768788373748e-07
  14    9.3530835078419e-09
  15    -1.6591749618938e-05
  16    -0.0001944435100647
  17    -1.9459149080245e-07
  18    1.7556477813203e-06
  19    -2.2308990868673e-05
  20    -8.0794489288597e-06
  21    6.9481710331977e-05
  22    1.7852967347225e-07
  23    -5.1396196874774e-06
  24    2.3703925768861e-06
  25       1.0013693635962
  26    0.0019673260412298
  27    -0.0068555823610282
  28    -4.6654894968873e-06
  29    9.6876666982245e-06
  30    -0.0016494975827871
  31    -2.4388111317405e-07
  32    -1.3234688187428e-06
  33    0.0018773201587155
  34    0.00011962152639721
  35    -3.0454703367133e-06
  36    1.4728793545776e-06
  37    6.7183616017405e-05
  38    -0.00017487045557939
  39    0.00028009303578162
  40    0.00038356516805318
  41    0.0014598101218142
  42    1.9734996574614e-05
  43    -1.2705005895917e-05
  44    7.007830774625e-06
  45    8.6235978884102e-05
  46    -6.7019649910325e-05
  47    0.0036002809702714
  48    -0.00052331442868811
  49    -8.8014947186686e-06
  50    2.8580968740061e-06
  51    2.9511859319852e-05
  52    -0.00010906244785835
  53    -8.4788288120251e-05
  54    -0.00016404831481157
  55    0.0013789601598731
  56    7.6742580707935e-05
  57    -5.620884618528e-06
  58    -3.4906138744512e-05
  59    -0.00042577014087812
  60    0.00047987105914521
  61    -0.00094661029273341
  62    -0.00011678511541289
  63    0.00014978206467905
  64    -0.00014296539855482
  65    5.4675102313697e-05
  66    -0.00012858946839505
  67    -3.9825311224816e-05
  68    -8.9694503023235e-05
  69    0.00052446216954113
  70    -7.3259937299686e-05
  71    4.6700415244222e-05
  72    -5.5602399808362e-05
  73    0.00099839472030372
  74    -0.00076959452975078
  75    -0.00064254206034265
  76    -0.00013955236043119
  77    -0.00012207344315849
  78    8.9758713328095e-05
  79    5.8724978974476e-05
  80    -0.0001501679141706
  81    -6.3429659962457e-05
  82    0.00020915824910666
  83    6.6358416121548e-05
  84    -4.8742708217613e-05
  85    4.832955490751e-05
  86    2.5083304321867e-05
  87    4.9527682916003e-05
  88    -0.00061295528428848
  89    -1.5800332848937e-05
  90    -1.8128053182913e-05
  91    1.1524341865781e-05
  92    0.00025842658912404
  93    0.00063456810256036
  94    -1.5522627251381e-05
  95    1.8552727005385e-05
  96    1.1093543048443e-05
  97    7.5129862623261e-06
  98    -2.0012633586754e-05
  99    -4.6570608339958e-05
 100    -3.8516492295998e-05
 101    -0.00016129248439793
 102    8.1048000807904e-06
 103    -1.0106827080267e-05
 104    7.5588470043886e-05
 105    -1.8888221196964e-05
 106    -0.00020384918726195
 107    -6.4461366624598e-05
 108    1.0166109001411e-05
 109    7.5479298292985e-05
 110    7.9656658720882e-05
 111    -6.0937646872086e-05
 112    -4.5369959899707e-05
 113    1.9203330797931e-05
 114    7.0555483174088e-05
 115    -6.8751321807156e-05
 116    -0.00011765820475585
 117    0.00083049956489027
 118    2.940425981635e-06
 119    -3.7423535110365e-05
 120    3.9414654582764e-05
 121    0.00030233175548819
 122    1.9987130374025e-05
 123    -0.00014119089962531
 124    -6.5492734174006e-06
 125    8.493464650067e-06
 126    1.6872939398929e-05
 127    -3.2042830009114e-05
 128    5.154033741742e-05
 129    -2.0230670092783e-05
 130    -0.00032862063963079
 131    7.7974178580362e-06
 132    5.9330646932572e-06
 133    2.938254881895e-05
 134    2.542329259976e-05
 135    -0.00011811754746833
 136    -1.3574726261308e-05
 137    -2.4608688609828e-05
 138    -2.6918112640629e-05
 139    -2.4235184203146e-05
 140    -4.1303480930328e-05
 141    0.00029423261139444
 142    7.4223120063411e-06
 143    2.6318161867045e-06
 144    -7.9864761939369e-06
 145    -0.00023084435411363
 146    5.786576751658e-05
 147    6.1273984423087e-05
 148    -2.6231052675378e-06
 149    2.7649401162159e-06
 150    -4.1172595915051e-06
 151    1.2174763191497e-05
 152    -4.6803543739354e-06
 153    -0.00010612919936971
 154    -0.00010583871286506
 155    -2.5345373357043e-05
 156    2.8944294462517e-05
 157    2.0552692185916e-05
 158    -2.3904092583554e-05
 159    -8.53099035166e-05
 160    -5.8723019443271e-05
 161    -7.9257407803385e-06
 162    6.5951896499699e-06
 163    -9.8005173782639e-06
 164    -3.5003441891425e-05
 165    -0.00027049078979018
 166    -4.4975840294182e-05
 167    3.0011610959381e-05
 168    -1.2263921212822e-06
 169    0.00022212991693067
 170    -0.00020301386119681
 171    -0.00013969404610223
 172    -2.8716649872857e-06
 173    7.6121998747844e-06
 174    -1.2002888496687e-05
 175    2.9225177774858e-06
 176    -1.6986430090991e-05
 177    -2.0427619756058e-05
 178    8.3247546529555e-05
 179    -7.0287037486778e-07
 180    1.8038768915386e-06
 181    -4.6226714389123e-06
 182    1.7099629340205e-05
 183    3.2379315881603e-05
 184    -6.8321428346678e-05
 185    -5.3605281183455e-06
 186    7.0647369086723e-06
 187    9.4629035253109e-06
 188    0.00012807963039126
 189    -0.00010022948305769
 190    -8.5345404774374e-05
 191    1.2689140681896e-06
 192    2.1675800535977e-06
 193    -7.4608689367347e-06
 194    -3.1085151922019e-06
 195    -5.0899671281802e-06
 196    -1.7140230961552e-05
 197    -1.9732830994727e-05
 198    5.490342440405e-06
 199    1.7505216546955e-06
 200    -3.6608447467111e-06
 201    -2.2739339915721e-05
 202    2.3945280159562e-06
 203    -1.4280020654288e-05
 204    9.426140298439e-06
 205    1.0581486799858e-05
 206    -2.3020657270514e-06
 207    6.8103834991801e-05
 208    -1.5923701391103e-05
 209    5.5317293161992e-06
 210    1.4889148868027e-05
 211    -1.82234602638e-05
 212    -2.8653172419712e-05
 213    0.00026498573848311
 214    9.5169395884562e-06
 215    -3.5929996759906e-06
 216    -9.4786058065805e-06
 217    0.00019983948561662
 218    -5.5159509495265e-05
 219    -7.9527389399051e-05
 220    -1.3490226126329e-06
 221    -1.6512971346438e-05
 222    5.4963901763317e-06
 223    8.8558491813279e-06
 224    -1.1488771976728e-06
 225    3.2050339631991e-05
 226    5.6894937915963e-05
 227    -1.2619632153233e-05
 228    -2.4364931121979e-06
 229    -1.1919050891107e-06
 230    1.0929953587632e-05
 231    5.3740566340782e-05
 232    -3.8774942599788e-06
 233    6.3915097102168e-06
 234    1.2278826806635e-05
 235    4.2423989269134e-07
 236    2.5890989563159e-07
 237    -7.8802230225298e-05
 238    3.0013698525898e-06
 239    1.0516591262292e-06
 240    -4.127859160126e-06
 241    3.6030565934561e-05
 242    -6.3509963476724e-05
 243    1.7738031606419e-05
 244    1.9790369726454e-06
 245    1.8109740079623e-06
 246    -1.7494083886633e-06
 247    6.8415305601393e-08
 248    9.2132414780446e-07
 249    -1.7454384187449e-05
 250    1.1934711823476e-05
 251    -4.3183809603805e-06
 252    -9.2458450386105e-07
 253    -2.2874358968097e-07
 254    -1.6160251315054e-05
 255    5.5991600444497e-05
 256    2.3477517485471e-07
 257    4.2542109909704e-06
 258    -1.0260912128564e-06
 259    -1.0761106456421e-05
 260    -2.0394213963778e-05
 261    7.4786988260345e-05
 262    -4.9938872219724e-06