[Molden Format]
made by pyscf v[2.0.1]
[Atoms] (AU)
O   1   8     0.00000000000000     0.00000000000000     7.54024356125045
H   2   1     0.00000000000000     0.00000000000000     5.71684173934948
H   3   1    -0.05031916615174     1.78353065140343     7.91611525771711
O   4   8     0.00000000000000     0.00000000000000     2.31533471513237
C   5   6     0.00000000000000     0.00000000000000     0.00000000000000
C   6   6     2.01118073026938    -1.40227222164369    -1.50774939176400
C   7   6    -2.01249334291722     1.41331050329955    -1.50315905028694
H   8   1     3.32037363730244    -2.26721897153159    -0.13599698591495
C   9   6     3.45899267434009     0.28739631745591    -3.37437943254505
H   10   1     1.07662969841332    -2.94725144642667    -2.56541439481080
H   11   1    -2.67503415753480     0.18421555839588    -3.06194479365997
H   12   1    -1.07974048864772     3.03851734677796    -2.43674295017013
C   13   6    -4.21607110578555     2.32938802552922     0.11994162256091
H   14   1     4.24440173074564     1.93368664142019    -2.34976285512790
H   15   1     2.15020713235517     1.04714335134846    -4.81494497423699
C   16   6     5.60746363007797    -1.12419643481196    -4.70268606082550
H   17   1    -3.46838323670267     3.50951302338067     1.66946842715333
H   18   1    -5.11873485366228     0.68575958301209     1.04047743976495
C   19   6    -6.18314754751344     3.80909592987882    -1.39656589068747
H   20   1     6.93011263717176    -1.87550812453645    -3.26656317360070
C   21   6     7.06356622236532     0.52877932406334    -6.57829775293605
H   22   1     4.82318879258361    -2.78573437948532    -5.70504560381835
H   23   1    -6.91582688743803     2.61304780074712    -2.95074552451969
H   24   1    -5.26532430573853     5.45420349051338    -2.31005832200284
C   25   6    -8.39941882261433     4.73263980500213     0.21800571437956
H   26   1     7.83338371486801     2.19084139882824    -5.57093109900697
H   27   1     5.73544244039420     1.27376866537418    -8.01071492370229
C   28   6     9.21124858443101    -0.89699110072176    -7.88926949186242
H   29   1    -7.66272760055236     5.92277078003992     1.77035591474408
H   30   1    -9.31497248082589     3.08753015622020     1.12614408368786
C   31   6   -10.35481709231879     6.21833079391143    -1.30905206253246
H   32   1    10.58815905329501    -1.61074586756696    -6.49512691622620
H   33   1    10.23506248045667     0.32468009384095    -9.23072870921204
H   34   1     8.47665842847139    -2.53598436989925    -8.94921964622535
H   35   1    -9.48948872868064     7.90013588951020    -2.18823918416067
H   36   1   -11.93332513000955     6.86460487874102    -0.11255798845995
H   37   1   -11.15126291841033     5.04495968327630    -2.83849898862534
[GTO]
1 0
 s    8 1.00
                 11720  0.00070964594651845
                  1759  0.0054672722921914
                 400.8   0.027823118610189
                 113.7    0.10474773971146
                 37.03    0.28292084635691
                 13.27    0.44849523869833
                 5.025    0.27081688521277
                 1.013    0.01545029160744
 s    8 1.00
                 11720  -0.00031444341168873
                  1759  -0.0024821376810179
                 400.8  -0.012316355381583
                 113.7  -0.050538917343672
                 37.03   -0.13938490331632
                 13.27   -0.32507749481778
                 5.025   -0.22984830758785
                 1.013     1.0953793467883
 s    1 1.00
                0.3023                   1
 p    3 1.00
                  17.7   0.062679166281506
                 3.854    0.33353656587936
                 1.046    0.74123964163973
 p    1 1.00
                0.2753                   1
 d    1 1.00
                 1.185                   1

2 0
 s    3 1.00
                 13.01   0.033498726389998
                 1.962    0.23480080117413
                0.4446     0.8136829578829
 s    1 1.00
                 0.122                   1
 p    1 1.00
                 0.727                   1

3 0
 s    3 1.00
                 13.01   0.033498726389998
                 1.962    0.23480080117413
                0.4446     0.8136829578829
 s    1 1.00
                 0.122                   1
 p    1 1.00
                 0.727                   1

4 0
 s    8 1.00
                 11720  0.00070964594651845
                  1759  0.0054672722921914
                 400.8   0.027823118610189
                 113.7    0.10474773971146
                 37.03    0.28292084635691
                 13.27    0.44849523869833
                 5.025    0.27081688521277
                 1.013    0.01545029160744
 s    8 1.00
                 11720  -0.00031444341168873
                  1759  -0.0024821376810179
                 400.8  -0.012316355381583
                 113.7  -0.050538917343672
                 37.03   -0.13938490331632
                 13.27   -0.32507749481778
                 5.025   -0.22984830758785
                 1.013     1.0953793467883
 s    1 1.00
                0.3023                   1
 p    3 1.00
                  17.7   0.062679166281506
                 3.854    0.33353656587936
                 1.046    0.74123964163973
 p    1 1.00
                0.2753                   1
 d    1 1.00
                 1.185                   1

5 0
 s    8 1.00
                  6665  0.00069158396281299
                  1000  0.0053257961529341
                   228   0.027060721042034
                 64.71    0.10165684614077
                 21.06     0.2745748236174
                 7.495    0.44829431892377
                 2.797    0.28490261071525
                0.5215   0.015194859206082
 s    8 1.00
                  6665  -0.00029326965268655
                  1000  -0.0023180354739745
                   228  -0.011499786038565
                 64.71  -0.046826727009787
                 21.06   -0.12846616875047
                 7.495   -0.30126627246289
                 2.797   -0.25563070233011
                0.5215      1.093793361012
 s    1 1.00
                0.1596                   1
 p    3 1.00
                 9.439   0.056979251590039
                 2.002    0.31320721150073
                0.5456    0.76037674173753
 p    1 1.00
                0.1517                   1
 d    1 1.00
                  0.55                   1

6 0
 s    8 1.00
                  6665  0.00069158396281299
                  1000  0.0053257961529341
                   228   0.027060721042034
                 64.71    0.10165684614077
                 21.06     0.2745748236174
                 7.495    0.44829431892377
                 2.797    0.28490261071525
                0.5215   0.015194859206082
 s    8 1.00
                  6665  -0.00029326965268655
                  1000  -0.0023180354739745
                   228  -0.011499786038565
                 64.71  -0.046826727009787
                 21.06   -0.12846616875047
                 7.495   -0.30126627246289
                 2.797   -0.25563070233011
                0.5215      1.093793361012
 s    1 1.00
                0.1596                   1
 p    3 1.00
                 9.439   0.056979251590039
                 2.002    0.31320721150073
                0.5456    0.76037674173753
 p    1 1.00
                0.1517                   1
 d    1 1.00
                  0.55                   1

7 0
 s    8 1.00
                  6665  0.00069158396281299
                  1000  0.0053257961529341
                   228   0.027060721042034
                 64.71    0.10165684614077
                 21.06     0.2745748236174
                 7.495    0.44829431892377
                 2.797    0.28490261071525
                0.5215   0.015194859206082
 s    8 1.00
                  6665  -0.00029326965268655
                  1000  -0.0023180354739745
                   228  -0.011499786038565
                 64.71  -0.046826727009787
                 21.06   -0.12846616875047
                 7.495   -0.30126627246289
                 2.797   -0.25563070233011
                0.5215      1.093793361012
 s    1 1.00
                0.1596                   1
 p    3 1.00
                 9.439   0.056979251590039
                 2.002    0.31320721150073
                0.5456    0.76037674173753
 p    1 1.00
                0.1517                   1
 d    1 1.00
                  0.55                   1

8 0
 s    3 1.00
                 13.01   0.033498726389998
                 1.962    0.23480080117413
                0.4446     0.8136829578829
 s    1 1.00
                 0.122                   1
 p    1 1.00
                 0.727                   1

9 0
 s    8 1.00
                  6665  0.00069158396281299
                  1000  0.0053257961529341
                   228   0.027060721042034
                 64.71    0.10165684614077
                 21.06     0.2745748236174
                 7.495    0.44829431892377
                 2.797    0.28490261071525
                0.5215   0.015194859206082
 s    8 1.00
                  6665  -0.00029326965268655
                  1000  -0.0023180354739745
                   228  -0.011499786038565
                 64.71  -0.046826727009787
                 21.06   -0.12846616875047
                 7.495   -0.30126627246289
                 2.797   -0.25563070233011
                0.5215      1.093793361012
 s    1 1.00
                0.1596                   1
 p    3 1.00
                 9.439   0.056979251590039
                 2.002    0.31320721150073
                0.5456    0.76037674173753
 p    1 1.00
                0.1517                   1
 d    1 1.00
                  0.55                   1

10 0
 s    3 1.00
                 13.01   0.033498726389998
                 1.962    0.23480080117413
                0.4446     0.8136829578829
 s    1 1.00
                 0.122                   1
 p    1 1.00
                 0.727                   1

11 0
 s    3 1.00
                 13.01   0.033498726389998
                 1.962    0.23480080117413
                0.4446     0.8136829578829
 s    1 1.00
                 0.122                   1
 p    1 1.00
                 0.727                   1

12 0
 s    3 1.00
                 13.01   0.033498726389998
                 1.962    0.23480080117413
                0.4446     0.8136829578829
 s    1 1.00
                 0.122                   1
 p    1 1.00
                 0.727                   1

13 0
 s    8 1.00
                  6665  0.00069158396281299
                  1000  0.0053257961529341
                   228   0.027060721042034
                 64.71    0.10165684614077
                 21.06     0.2745748236174
                 7.495    0.44829431892377
                 2.797    0.28490261071525
                0.5215   0.015194859206082
 s    8 1.00
                  6665  -0.00029326965268655
                  1000  -0.0023180354739745
                   228  -0.011499786038565
                 64.71  -0.046826727009787
                 21.06   -0.12846616875047
                 7.495   -0.30126627246289
                 2.797   -0.25563070233011
                0.5215      1.093793361012
 s    1 1.00
                0.1596                   1
 p    3 1.00
                 9.439   0.056979251590039
                 2.002    0.31320721150073
                0.5456    0.76037674173753
 p    1 1.00
                0.1517                   1
 d    1 1.00
                  0.55                   1

14 0
 s    3 1.00
                 13.01   0.033498726389998
                 1.962    0.23480080117413
                0.4446     0.8136829578829
 s    1 1.00
                 0.122                   1
 p    1 1.00
                 0.727                   1

15 0
 s    3 1.00
                 13.01   0.033498726389998
                 1.962    0.23480080117413
                0.4446     0.8136829578829
 s    1 1.00
                 0.122                   1
 p    1 1.00
                 0.727                   1

16 0
 s    8 1.00
                  6665  0.00069158396281299
                  1000  0.0053257961529341
                   228   0.027060721042034
                 64.71    0.10165684614077
                 21.06     0.2745748236174
                 7.495    0.44829431892377
                 2.797    0.28490261071525
                0.5215   0.015194859206082
 s    8 1.00
                  6665  -0.00029326965268655
                  1000  -0.0023180354739745
                   228  -0.011499786038565
                 64.71  -0.046826727009787
                 21.06   -0.12846616875047
                 7.495   -0.30126627246289
                 2.797   -0.25563070233011
                0.5215      1.093793361012
 s    1 1.00
                0.1596                   1
 p    3 1.00
                 9.439   0.056979251590039
                 2.002    0.31320721150073
                0.5456    0.76037674173753
 p    1 1.00
                0.1517                   1
 d    1 1.00
                  0.55                   1

17 0
 s    3 1.00
                 13.01   0.033498726389998
                 1.962    0.23480080117413
                0.4446     0.8136829578829
 s    1 1.00
                 0.122                   1
 p    1 1.00
                 0.727                   1

18 0
 s    3 1.00
                 13.01   0.033498726389998
                 1.962    0.23480080117413
                0.4446     0.8136829578829
 s    1 1.00
                 0.122                   1
 p    1 1.00
                 0.727                   1

19 0
 s    8 1.00
                  6665  0.00069158396281299
                  1000  0.0053257961529341
                   228   0.027060721042034
                 64.71    0.10165684614077
                 21.06     0.2745748236174
                 7.495    0.44829431892377
                 2.797    0.28490261071525
                0.5215   0.015194859206082
 s    8 1.00
                  6665  -0.00029326965268655
                  1000  -0.0023180354739745
                   228  -0.011499786038565
                 64.71  -0.046826727009787
                 21.06   -0.12846616875047
                 7.495   -0.30126627246289
                 2.797   -0.25563070233011
                0.5215      1.093793361012
 s    1 1.00
                0.1596                   1
 p    3 1.00
                 9.439   0.056979251590039
                 2.002    0.31320721150073
                0.5456    0.76037674173753
 p    1 1.00
                0.1517                   1
 d    1 1.00
                  0.55                   1

20 0
 s    3 1.00
                 13.01   0.033498726389998
                 1.962    0.23480080117413
                0.4446     0.8136829578829
 s    1 1.00
                 0.122                   1
 p    1 1.00
                 0.727                   1

21 0
 s    8 1.00
                  6665  0.00069158396281299
                  1000  0.0053257961529341
                   228   0.027060721042034
                 64.71    0.10165684614077
                 21.06     0.2745748236174
                 7.495    0.44829431892377
                 2.797    0.28490261071525
                0.5215   0.015194859206082
 s    8 1.00
                  6665  -0.00029326965268655
                  1000  -0.0023180354739745
                   228  -0.011499786038565
                 64.71  -0.046826727009787
                 21.06   -0.12846616875047
                 7.495   -0.30126627246289
                 2.797   -0.25563070233011
                0.5215      1.093793361012
 s    1 1.00
                0.1596                   1
 p    3 1.00
                 9.439   0.056979251590039
                 2.002    0.31320721150073
                0.5456    0.76037674173753
 p    1 1.00
                0.1517                   1
 d    1 1.00
                  0.55                   1

22 0
 s    3 1.00
                 13.01   0.033498726389998
                 1.962    0.23480080117413
                0.4446     0.8136829578829
 s    1 1.00
                 0.122                   1
 p    1 1.00
                 0.727                   1

23 0
 s    3 1.00
                 13.01   0.033498726389998
                 1.962    0.23480080117413
                0.4446     0.8136829578829
 s    1 1.00
                 0.122                   1
 p    1 1.00
                 0.727                   1

24 0
 s    3 1.00
                 13.01   0.033498726389998
                 1.962    0.23480080117413
                0.4446     0.8136829578829
 s    1 1.00
                 0.122                   1
 p    1 1.00
                 0.727                   1

25 0
 s    8 1.00
                  6665  0.00069158396281299
                  1000  0.0053257961529341
                   228   0.027060721042034
                 64.71    0.10165684614077
                 21.06     0.2745748236174
                 7.495    0.44829431892377
                 2.797    0.28490261071525
                0.5215   0.015194859206082
 s    8 1.00
                  6665  -0.00029326965268655
                  1000  -0.0023180354739745
                   228  -0.011499786038565
                 64.71  -0.046826727009787
                 21.06   -0.12846616875047
                 7.495   -0.30126627246289
                 2.797   -0.25563070233011
                0.5215      1.093793361012
 s    1 1.00
                0.1596                   1
 p    3 1.00
                 9.439   0.056979251590039
                 2.002    0.31320721150073
                0.5456    0.76037674173753
 p    1 1.00
                0.1517                   1
 d    1 1.00
                  0.55                   1

26 0
 s    3 1.00
                 13.01   0.033498726389998
                 1.962    0.23480080117413
                0.4446     0.8136829578829
 s    1 1.00
                 0.122                   1
 p    1 1.00
                 0.727                   1

27 0
 s    3 1.00
                 13.01   0.033498726389998
                 1.962    0.23480080117413
                0.4446     0.8136829578829
 s    1 1.00
                 0.122                   1
 p    1 1.00
                 0.727                   1

28 0
 s    8 1.00
                  6665  0.00069158396281299
                  1000  0.0053257961529341
                   228   0.027060721042034
                 64.71    0.10165684614077
                 21.06     0.2745748236174
                 7.495    0.44829431892377
                 2.797    0.28490261071525
                0.5215   0.015194859206082
 s    8 1.00
                  6665  -0.00029326965268655
                  1000  -0.0023180354739745
                   228  -0.011499786038565
                 64.71  -0.046826727009787
                 21.06   -0.12846616875047
                 7.495   -0.30126627246289
                 2.797   -0.25563070233011
                0.5215      1.093793361012
 s    1 1.00
                0.1596                   1
 p    3 1.00
                 9.439   0.056979251590039
                 2.002    0.31320721150073
                0.5456    0.76037674173753
 p    1 1.00
                0.1517                   1
 d    1 1.00
                  0.55                   1

29 0
 s    3 1.00
                 13.01   0.033498726389998
                 1.962    0.23480080117413
                0.4446     0.8136829578829
 s    1 1.00
                 0.122                   1
 p    1 1.00
                 0.727                   1

30 0
 s    3 1.00
                 13.01   0.033498726389998
                 1.962    0.23480080117413
                0.4446     0.8136829578829
 s    1 1.00
                 0.122                   1
 p    1 1.00
                 0.727                   1

31 0
 s    8 1.00
                  6665  0.00069158396281299
                  1000  0.0053257961529341
                   228   0.027060721042034
                 64.71    0.10165684614077
                 21.06     0.2745748236174
                 7.495    0.44829431892377
                 2.797    0.28490261071525
                0.5215   0.015194859206082
 s    8 1.00
                  6665  -0.00029326965268655
                  1000  -0.0023180354739745
                   228  -0.011499786038565
                 64.71  -0.046826727009787
                 21.06   -0.12846616875047
                 7.495   -0.30126627246289
                 2.797   -0.25563070233011
                0.5215      1.093793361012
 s    1 1.00
                0.1596                   1
 p    3 1.00
                 9.439   0.056979251590039
                 2.002    0.31320721150073
                0.5456    0.76037674173753
 p    1 1.00
                0.1517                   1
 d    1 1.00
                  0.55                   1

32 0
 s    3 1.00
                 13.01   0.033498726389998
                 1.962    0.23480080117413
                0.4446     0.8136829578829
 s    1 1.00
                 0.122                   1
 p    1 1.00
                 0.727                   1

33 0
 s    3 1.00
                 13.01   0.033498726389998
                 1.962    0.23480080117413
                0.4446     0.8136829578829
 s    1 1.00
                 0.122                   1
 p    1 1.00
                 0.727                   1

34 0
 s    3 1.00
                 13.01   0.033498726389998
                 1.962    0.23480080117413
                0.4446     0.8136829578829
 s    1 1.00
                 0.122                   1
 p    1 1.00
                 0.727                   1

35 0
 s    3 1.00
                 13.01   0.033498726389998
                 1.962    0.23480080117413
                0.4446     0.8136829578829
 s    1 1.00
                 0.122                   1
 p    1 1.00
                 0.727                   1

36 0
 s    3 1.00
                 13.01   0.033498726389998
                 1.962    0.23480080117413
                0.4446     0.8136829578829
 s    1 1.00
                 0.122                   1
 p    1 1.00
                 0.727                   1

37 0
 s    3 1.00
                 13.01   0.033498726389998
                 1.962    0.23480080117413
                0.4446     0.8136829578829
 s    1 1.00
                 0.122                   1
 p    1 1.00
                 0.727                   1

[5d]
[7f]
[9g]

[MO]
 Sym= A
 Ene=               0
 Spin= Alpha
 Occup=    1.00000
   1    -3.0608304079943e-06
   2    -4.9883553982208e-06
   3    2.1008585739356e-05
   4    1.2943994790138e-06
   5    9.9510295781562e-06
   6    -1.3178612383067e-05
   7    1.6331126710593e-06
   8    1.6298505184461e-06
   9    -1.9157889147697e-05
  10    6.2240381380118e-07
  11    1.9682239828691e-07
  12    -5.2406017160826e-07
  13    -1.6460325332095e-07
  14    4.3663355347532e-08
  15    -1.9152580491551e-06
  16    -3.6239375620763e-05
  17    1.8125045439932e-06
  18    -3.0625814586667e-06
  19    2.1672423855466e-06
  20    6.6095014328412e-06
  21    8.7387684397839e-07
  22    6.5238105719192e-08
  23    -1.4403702450596e-07
  24    -4.9527479496377e-07
  25    1.1844045231974e-05
  26    6.4821533398246e-05
  27    -0.00010144500626959
  28    4.0444742265091e-05
  29    -0.00033368402381775
  30    -0.0001097785786775
  31    3.254233027815e-05
  32    -0.00024878791385084
  33    -2.6394594018131e-05
  34    1.8902465165321e-06
  35    4.0955570824623e-06
  36    5.4361467524615e-06
  37    -2.4804801210144e-07
  38    -1.6213310356111e-06
  39    -1.4019077372677e-06
  40    -0.00016375387950742
  41    0.00014867047076747
  42    -0.00021263948507479
  43    0.00014244214065835
  44    0.00018240977983043
  45    0.00015253673801036
  46    -0.00029837982697638
  47    0.00018501325937732
  48    4.3114974433018e-05
  49    -2.9427315439522e-05
  50    -3.8248496609642e-05
  51    1.9460535864955e-05
  52    2.0161025823518e-05
  53    -5.7419623019939e-05
  54    0.00030225397906806
  55    0.00084635615235115
  56    0.00071838211127425
  57    0.00069230961331948
  58    -0.00088450587193114
  59    0.00088727218755692
  60    0.00040356368347438
  61    -0.0010271853959058
  62    2.0114403460053e-05
  63    -4.8900477031669e-05
  64    -7.9087595053114e-05
  65    -2.8808875589442e-06
  66    7.2369839614909e-05
  67    2.9124926626978e-06
  68    -3.9169825300134e-05
  69    0.00019451129435763
  70    -1.5268185386546e-05
  71    -7.4612244215537e-05
  72    8.7539041046379e-05
  73    0.00017726378113653
  74    -6.315908361633e-05
  75    0.00010401067648863
  76    7.6762436174091e-06
  77    1.6245355272898e-05
  78    -1.0246080155292e-05
  79    -3.6344650464962e-06
  80    1.3948541470082e-06
  81    -0.00023509909846616
  82    -8.5985016874917e-05
  83    9.6463077182616e-06
  84    1.6278865178671e-05
  85    4.2402734455582e-06
  86    -4.0421230402393e-05
  87    6.2654348992547e-05
  88    -0.00045903232934044
  89    -0.00047952821836933
  90    -0.0011428591922835
  91    0.00091712968393727
  92    -0.00015734102704165
  93    2.3942449570643e-05
  94    0.00018052939183867
  95    -3.1330785342435e-06
  96    -0.00011311068664736
  97    -9.787428793605e-05
  98    -2.5120976289021e-05
  99    4.7081774627452e-05
 100    -0.00022368176925994
 101    -0.00015325282465433
 102    -9.966542373335e-06
 103    1.4226747446133e-05
 104    -1.2597328186491e-05
 105    -3.288273947435e-05
 106    5.8514451566089e-05
 107    -4.7905073769601e-06
 108    -1.1714291330328e-06
 109    4.2309167812872e-06
 110    -0.00013427089728376
 111    -1.4305898953465e-05
 112    3.4091527909148e-06
 113    4.8833135725723e-06
 114    -4.467682716283e-06
 115    0.0045636299459726
 116    2.1739593902584e-05
 117    2.9794948996939e-05
 118    9.0811037599455e-06
 119    -9.560127940362e-06
 120    7.652203823849e-06
 121    -6.2064703051096e-06
 122    -2.7655664556719e-05
 123    -2.3193795579536e-06
 124    -5.2001302486764e-07
 125    -1.9257813392214e-06
 126    4.9856714519564e-06
 127    -1.4518948622997e-06
 128    -5.7168336275907e-06
 129    -0.00051994019947442
 130    -0.00048283600906488
 131    -2.2068267703278e-05
 132    -1.0386814391992e-05
 133    0.00010798128350198
 134    -0.0006266968695072
 135    -0.00056738510648598
 136    -0.0001018882785258
 137    -3.776454180128e-05
 138    2.6338200214554e-06
 139    -0.098428755730831
 140    -0.0006807714814594
 141    0.0044606881872872
 142    7.1141166711499e-05
 143    -5.5126435029915e-05
 144    -2.3557812212309e-05
 145    0.0009361938771222
 146     0.001152091898127
 147    -0.0012508796957691
 148    1.8864516883695e-05
 149    6.2838592981936e-06
 150    8.8861725083542e-05
 151    7.7970300482446e-05
 152    -3.7770680626924e-05
 153    3.830095505758e-06
 154    -1.9064145141238e-05
 155    -8.0982432394209e-07
 156    4.9772685085979e-06
 157    8.9479696837066e-07
 158    1.6697482131198e-06
 159    -2.2848860898838e-05
 160    -1.4389654302887e-06
 161    -1.5369086944172e-06
 162    1.2883071035372e-06
 163    -0.0016894428870595
 164    -1.6330991718564e-05
 165    3.1768255184195e-05
 166    -3.5960213131507e-06
 167    1.4099069759838e-06
 168    1.4431430951545e-06
 169    2.843831459354e-05
 170    2.8961895688227e-06
 171    -1.5764951670812e-05
 172    -6.6392447679369e-07
 173    -3.288348081099e-07
 174    2.2563163277599e-06
 175    1.2645816975497e-06
 176    5.2519670368496e-07
 177    -0.0001177744922955
 178    3.0877116796901e-06
 179    -2.27962109076e-05
 180    4.1736167697336e-05
 181    -8.4118517788151e-05
 182      0.99661597566289
 183    0.0051264645290681
 184    -0.012212895957732
 185    5.3628038802288e-07
 186    0.00016181390831445
 187    -6.6981172072446e-05
 188    0.00012871964684357
 189    0.0014239064877883
 190    -0.0006399486291512
 191    4.5268450416895e-06
 192    0.00031295379758762
 193    8.393680270362e-05
 194    -6.13791540689e-05
 195    7.714715710094e-06
 196    -0.00012961998925114
 197    2.3171952105687e-06
 198    5.9140845168655e-05
 199    7.5318741301553e-05
 200    9.0825577668009e-06
 201    -2.6995680320821e-06
 202    -3.5438388769133e-06
 203    -1.1386433525794e-06
 204    -3.5355430797503e-07
 205    5.8590495226715e-07
 206    -4.9740824801763e-06
 207    -1.7155552907768e-05
 208    -7.5397326279859e-07
 209    9.1274897774984e-07
 210    7.3006230422594e-07
 211    -8.0529676674979e-05
 212    -3.1697548803336e-06
 213    3.7594387194958e-06
 214    -1.7138864948665e-06
 215    4.2202412088839e-07
 216    3.138096768439e-07
 217    1.5590325461525e-05
 218    -1.2087720914609e-05
 219    -3.1083268236396e-06
 220    -2.4692794377992e-07
 221    -4.9696591344643e-07
 222    8.2805734941877e-07
 223    6.0244233779236e-07
 224    -1.2488128256392e-06
 225    0.00019596523811852
 226    0.0011906987732009
 227    0.00020077917622474
 228    0.00030194450060737
 229    0.00025882051352479
 230    0.00019012016525603
 231     0.001206251171417
 232    -0.00030000955436897
 233    8.4796414446448e-05
 234    -0.00032107486481368
 235     0.047470545723278
 236    0.00016973457914729
 237    0.0022643982890438
 238    -0.00010916728525543
 239    5.9393873758983e-05
 240    7.089914505344e-05
 241    -0.00081392933032359
 242    0.00056902268619145
 243    0.00048849360082669
 244    5.436585372757e-05
 245    0.00011280998445946
 246    -9.1306774333589e-05
 247    -4.2517243889052e-05
 248    0.00015582935676446
 249    -2.000050046776e-06
 250    9.4866271550102e-06
 251    -8.1374193653776e-07
 252    1.8737568804082e-07
 253    -6.6311374888314e-07
 254    -4.5879738709008e-07
 255    2.645376020447e-06
 256    -4.5009988001052e-07
 257    9.4915541964769e-07
 258    -7.1698561227843e-07
 259    -2.3075945116056e-06
 260    -1.3463255102411e-06
 261    1.0413991105921e-05
 262    2.9825259891849e-07
 263    -1.0113427000219e-07