[Molden Format]
made by pyscf v[2.0.1]
[Atoms] (AU)
O   1   8     0.00000000000000     0.00000000000000    11.69764103529358
H   2   1     0.00000000000000     0.00000000000000     9.87423921339262
H   3   1    -0.05031916615174     1.78353065140343    12.07351273176025
O   4   8     0.00000000000000     0.00000000000000     2.31533471513237
C   5   6     0.00000000000000     0.00000000000000     0.00000000000000
C   6   6     2.01118073026938    -1.40227222164369    -1.50774939176400
C   7   6    -2.01249334291722     1.41331050329955    -1.50315905028694
H   8   1     3.32037363730244    -2.26721897153159    -0.13599698591495
C   9   6     3.45899267434009     0.28739631745591    -3.37437943254505
H   10   1     1.07662969841332    -2.94725144642667    -2.56541439481080
H   11   1    -2.67503415753480     0.18421555839588    -3.06194479365997
H   12   1    -1.07974048864772     3.03851734677796    -2.43674295017013
C   13   6    -4.21607110578555     2.32938802552922     0.11994162256091
H   14   1     4.24440173074564     1.93368664142019    -2.34976285512790
H   15   1     2.15020713235517     1.04714335134846    -4.81494497423699
C   16   6     5.60746363007797    -1.12419643481196    -4.70268606082550
H   17   1    -3.46838323670267     3.50951302338067     1.66946842715333
H   18   1    -5.11873485366228     0.68575958301209     1.04047743976495
C   19   6    -6.18314754751344     3.80909592987882    -1.39656589068747
H   20   1     6.93011263717176    -1.87550812453645    -3.26656317360070
C   21   6     7.06356622236532     0.52877932406334    -6.57829775293605
H   22   1     4.82318879258361    -2.78573437948532    -5.70504560381835
H   23   1    -6.91582688743803     2.61304780074712    -2.95074552451969
H   24   1    -5.26532430573853     5.45420349051338    -2.31005832200284
C   25   6    -8.39941882261433     4.73263980500213     0.21800571437956
H   26   1     7.83338371486801     2.19084139882824    -5.57093109900697
H   27   1     5.73544244039420     1.27376866537418    -8.01071492370229
C   28   6     9.21124858443101    -0.89699110072176    -7.88926949186242
H   29   1    -7.66272760055236     5.92277078003992     1.77035591474408
H   30   1    -9.31497248082589     3.08753015622020     1.12614408368786
C   31   6   -10.35481709231879     6.21833079391143    -1.30905206253246
H   32   1    10.58815905329501    -1.61074586756696    -6.49512691622620
H   33   1    10.23506248045667     0.32468009384095    -9.23072870921204
H   34   1     8.47665842847139    -2.53598436989925    -8.94921964622535
H   35   1    -9.48948872868064     7.90013588951020    -2.18823918416067
H   36   1   -11.93332513000955     6.86460487874102    -0.11255798845995
H   37   1   -11.15126291841033     5.04495968327630    -2.83849898862534
[GTO]
1 0
 s    8 1.00
                 11720  0.00070964594651845
                  1759  0.0054672722921914
                 400.8   0.027823118610189
                 113.7    0.10474773971146
                 37.03    0.28292084635691
                 13.27    0.44849523869833
                 5.025    0.27081688521277
                 1.013    0.01545029160744
 s    8 1.00
                 11720  -0.00031444341168873
                  1759  -0.0024821376810179
                 400.8  -0.012316355381583
                 113.7  -0.050538917343672
                 37.03   -0.13938490331632
                 13.27   -0.32507749481778
                 5.025   -0.22984830758785
                 1.013     1.0953793467883
 s    1 1.00
                0.3023                   1
 p    3 1.00
                  17.7   0.062679166281506
                 3.854    0.33353656587936
                 1.046    0.74123964163973
 p    1 1.00
                0.2753                   1
 d    1 1.00
                 1.185                   1

2 0
 s    3 1.00
                 13.01   0.033498726389998
                 1.962    0.23480080117413
                0.4446     0.8136829578829
 s    1 1.00
                 0.122                   1
 p    1 1.00
                 0.727                   1

3 0
 s    3 1.00
                 13.01   0.033498726389998
                 1.962    0.23480080117413
                0.4446     0.8136829578829
 s    1 1.00
                 0.122                   1
 p    1 1.00
                 0.727                   1

4 0
 s    8 1.00
                 11720  0.00070964594651845
                  1759  0.0054672722921914
                 400.8   0.027823118610189
                 113.7    0.10474773971146
                 37.03    0.28292084635691
                 13.27    0.44849523869833
                 5.025    0.27081688521277
                 1.013    0.01545029160744
 s    8 1.00
                 11720  -0.00031444341168873
                  1759  -0.0024821376810179
                 400.8  -0.012316355381583
                 113.7  -0.050538917343672
                 37.03   -0.13938490331632
                 13.27   -0.32507749481778
                 5.025   -0.22984830758785
                 1.013     1.0953793467883
 s    1 1.00
                0.3023                   1
 p    3 1.00
                  17.7   0.062679166281506
                 3.854    0.33353656587936
                 1.046    0.74123964163973
 p    1 1.00
                0.2753                   1
 d    1 1.00
                 1.185                   1

5 0
 s    8 1.00
                  6665  0.00069158396281299
                  1000  0.0053257961529341
                   228   0.027060721042034
                 64.71    0.10165684614077
                 21.06     0.2745748236174
                 7.495    0.44829431892377
                 2.797    0.28490261071525
                0.5215   0.015194859206082
 s    8 1.00
                  6665  -0.00029326965268655
                  1000  -0.0023180354739745
                   228  -0.011499786038565
                 64.71  -0.046826727009787
                 21.06   -0.12846616875047
                 7.495   -0.30126627246289
                 2.797   -0.25563070233011
                0.5215      1.093793361012
 s    1 1.00
                0.1596                   1
 p    3 1.00
                 9.439   0.056979251590039
                 2.002    0.31320721150073
                0.5456    0.76037674173753
 p    1 1.00
                0.1517                   1
 d    1 1.00
                  0.55                   1

6 0
 s    8 1.00
                  6665  0.00069158396281299
                  1000  0.0053257961529341
                   228   0.027060721042034
                 64.71    0.10165684614077
                 21.06     0.2745748236174
                 7.495    0.44829431892377
                 2.797    0.28490261071525
                0.5215   0.015194859206082
 s    8 1.00
                  6665  -0.00029326965268655
                  1000  -0.0023180354739745
                   228  -0.011499786038565
                 64.71  -0.046826727009787
                 21.06   -0.12846616875047
                 7.495   -0.30126627246289
                 2.797   -0.25563070233011
                0.5215      1.093793361012
 s    1 1.00
                0.1596                   1
 p    3 1.00
                 9.439   0.056979251590039
                 2.002    0.31320721150073
                0.5456    0.76037674173753
 p    1 1.00
                0.1517                   1
 d    1 1.00
                  0.55                   1

7 0
 s    8 1.00
                  6665  0.00069158396281299
                  1000  0.0053257961529341
                   228   0.027060721042034
                 64.71    0.10165684614077
                 21.06     0.2745748236174
                 7.495    0.44829431892377
                 2.797    0.28490261071525
                0.5215   0.015194859206082
 s    8 1.00
                  6665  -0.00029326965268655
                  1000  -0.0023180354739745
                   228  -0.011499786038565
                 64.71  -0.046826727009787
                 21.06   -0.12846616875047
                 7.495   -0.30126627246289
                 2.797   -0.25563070233011
                0.5215      1.093793361012
 s    1 1.00
                0.1596                   1
 p    3 1.00
                 9.439   0.056979251590039
                 2.002    0.31320721150073
                0.5456    0.76037674173753
 p    1 1.00
                0.1517                   1
 d    1 1.00
                  0.55                   1

8 0
 s    3 1.00
                 13.01   0.033498726389998
                 1.962    0.23480080117413
                0.4446     0.8136829578829
 s    1 1.00
                 0.122                   1
 p    1 1.00
                 0.727                   1

9 0
 s    8 1.00
                  6665  0.00069158396281299
                  1000  0.0053257961529341
                   228   0.027060721042034
                 64.71    0.10165684614077
                 21.06     0.2745748236174
                 7.495    0.44829431892377
                 2.797    0.28490261071525
                0.5215   0.015194859206082
 s    8 1.00
                  6665  -0.00029326965268655
                  1000  -0.0023180354739745
                   228  -0.011499786038565
                 64.71  -0.046826727009787
                 21.06   -0.12846616875047
                 7.495   -0.30126627246289
                 2.797   -0.25563070233011
                0.5215      1.093793361012
 s    1 1.00
                0.1596                   1
 p    3 1.00
                 9.439   0.056979251590039
                 2.002    0.31320721150073
                0.5456    0.76037674173753
 p    1 1.00
                0.1517                   1
 d    1 1.00
                  0.55                   1

10 0
 s    3 1.00
                 13.01   0.033498726389998
                 1.962    0.23480080117413
                0.4446     0.8136829578829
 s    1 1.00
                 0.122                   1
 p    1 1.00
                 0.727                   1

11 0
 s    3 1.00
                 13.01   0.033498726389998
                 1.962    0.23480080117413
                0.4446     0.8136829578829
 s    1 1.00
                 0.122                   1
 p    1 1.00
                 0.727                   1

12 0
 s    3 1.00
                 13.01   0.033498726389998
                 1.962    0.23480080117413
                0.4446     0.8136829578829
 s    1 1.00
                 0.122                   1
 p    1 1.00
                 0.727                   1

13 0
 s    8 1.00
                  6665  0.00069158396281299
                  1000  0.0053257961529341
                   228   0.027060721042034
                 64.71    0.10165684614077
                 21.06     0.2745748236174
                 7.495    0.44829431892377
                 2.797    0.28490261071525
                0.5215   0.015194859206082
 s    8 1.00
                  6665  -0.00029326965268655
                  1000  -0.0023180354739745
                   228  -0.011499786038565
                 64.71  -0.046826727009787
                 21.06   -0.12846616875047
                 7.495   -0.30126627246289
                 2.797   -0.25563070233011
                0.5215      1.093793361012
 s    1 1.00
                0.1596                   1
 p    3 1.00
                 9.439   0.056979251590039
                 2.002    0.31320721150073
                0.5456    0.76037674173753
 p    1 1.00
                0.1517                   1
 d    1 1.00
                  0.55                   1

14 0
 s    3 1.00
                 13.01   0.033498726389998
                 1.962    0.23480080117413
                0.4446     0.8136829578829
 s    1 1.00
                 0.122                   1
 p    1 1.00
                 0.727                   1

15 0
 s    3 1.00
                 13.01   0.033498726389998
                 1.962    0.23480080117413
                0.4446     0.8136829578829
 s    1 1.00
                 0.122                   1
 p    1 1.00
                 0.727                   1

16 0
 s    8 1.00
                  6665  0.00069158396281299
                  1000  0.0053257961529341
                   228   0.027060721042034
                 64.71    0.10165684614077
                 21.06     0.2745748236174
                 7.495    0.44829431892377
                 2.797    0.28490261071525
                0.5215   0.015194859206082
 s    8 1.00
                  6665  -0.00029326965268655
                  1000  -0.0023180354739745
                   228  -0.011499786038565
                 64.71  -0.046826727009787
                 21.06   -0.12846616875047
                 7.495   -0.30126627246289
                 2.797   -0.25563070233011
                0.5215      1.093793361012
 s    1 1.00
                0.1596                   1
 p    3 1.00
                 9.439   0.056979251590039
                 2.002    0.31320721150073
                0.5456    0.76037674173753
 p    1 1.00
                0.1517                   1
 d    1 1.00
                  0.55                   1

17 0
 s    3 1.00
                 13.01   0.033498726389998
                 1.962    0.23480080117413
                0.4446     0.8136829578829
 s    1 1.00
                 0.122                   1
 p    1 1.00
                 0.727                   1

18 0
 s    3 1.00
                 13.01   0.033498726389998
                 1.962    0.23480080117413
                0.4446     0.8136829578829
 s    1 1.00
                 0.122                   1
 p    1 1.00
                 0.727                   1

19 0
 s    8 1.00
                  6665  0.00069158396281299
                  1000  0.0053257961529341
                   228   0.027060721042034
                 64.71    0.10165684614077
                 21.06     0.2745748236174
                 7.495    0.44829431892377
                 2.797    0.28490261071525
                0.5215   0.015194859206082
 s    8 1.00
                  6665  -0.00029326965268655
                  1000  -0.0023180354739745
                   228  -0.011499786038565
                 64.71  -0.046826727009787
                 21.06   -0.12846616875047
                 7.495   -0.30126627246289
                 2.797   -0.25563070233011
                0.5215      1.093793361012
 s    1 1.00
                0.1596                   1
 p    3 1.00
                 9.439   0.056979251590039
                 2.002    0.31320721150073
                0.5456    0.76037674173753
 p    1 1.00
                0.1517                   1
 d    1 1.00
                  0.55                   1

20 0
 s    3 1.00
                 13.01   0.033498726389998
                 1.962    0.23480080117413
                0.4446     0.8136829578829
 s    1 1.00
                 0.122                   1
 p    1 1.00
                 0.727                   1

21 0
 s    8 1.00
                  6665  0.00069158396281299
                  1000  0.0053257961529341
                   228   0.027060721042034
                 64.71    0.10165684614077
                 21.06     0.2745748236174
                 7.495    0.44829431892377
                 2.797    0.28490261071525
                0.5215   0.015194859206082
 s    8 1.00
                  6665  -0.00029326965268655
                  1000  -0.0023180354739745
                   228  -0.011499786038565
                 64.71  -0.046826727009787
                 21.06   -0.12846616875047
                 7.495   -0.30126627246289
                 2.797   -0.25563070233011
                0.5215      1.093793361012
 s    1 1.00
                0.1596                   1
 p    3 1.00
                 9.439   0.056979251590039
                 2.002    0.31320721150073
                0.5456    0.76037674173753
 p    1 1.00
                0.1517                   1
 d    1 1.00
                  0.55                   1

22 0
 s    3 1.00
                 13.01   0.033498726389998
                 1.962    0.23480080117413
                0.4446     0.8136829578829
 s    1 1.00
                 0.122                   1
 p    1 1.00
                 0.727                   1

23 0
 s    3 1.00
                 13.01   0.033498726389998
                 1.962    0.23480080117413
                0.4446     0.8136829578829
 s    1 1.00
                 0.122                   1
 p    1 1.00
                 0.727                   1

24 0
 s    3 1.00
                 13.01   0.033498726389998
                 1.962    0.23480080117413
                0.4446     0.8136829578829
 s    1 1.00
                 0.122                   1
 p    1 1.00
                 0.727                   1

25 0
 s    8 1.00
                  6665  0.00069158396281299
                  1000  0.0053257961529341
                   228   0.027060721042034
                 64.71    0.10165684614077
                 21.06     0.2745748236174
                 7.495    0.44829431892377
                 2.797    0.28490261071525
                0.5215   0.015194859206082
 s    8 1.00
                  6665  -0.00029326965268655
                  1000  -0.0023180354739745
                   228  -0.011499786038565
                 64.71  -0.046826727009787
                 21.06   -0.12846616875047
                 7.495   -0.30126627246289
                 2.797   -0.25563070233011
                0.5215      1.093793361012
 s    1 1.00
                0.1596                   1
 p    3 1.00
                 9.439   0.056979251590039
                 2.002    0.31320721150073
                0.5456    0.76037674173753
 p    1 1.00
                0.1517                   1
 d    1 1.00
                  0.55                   1

26 0
 s    3 1.00
                 13.01   0.033498726389998
                 1.962    0.23480080117413
                0.4446     0.8136829578829
 s    1 1.00
                 0.122                   1
 p    1 1.00
                 0.727                   1

27 0
 s    3 1.00
                 13.01   0.033498726389998
                 1.962    0.23480080117413
                0.4446     0.8136829578829
 s    1 1.00
                 0.122                   1
 p    1 1.00
                 0.727                   1

28 0
 s    8 1.00
                  6665  0.00069158396281299
                  1000  0.0053257961529341
                   228   0.027060721042034
                 64.71    0.10165684614077
                 21.06     0.2745748236174
                 7.495    0.44829431892377
                 2.797    0.28490261071525
                0.5215   0.015194859206082
 s    8 1.00
                  6665  -0.00029326965268655
                  1000  -0.0023180354739745
                   228  -0.011499786038565
                 64.71  -0.046826727009787
                 21.06   -0.12846616875047
                 7.495   -0.30126627246289
                 2.797   -0.25563070233011
                0.5215      1.093793361012
 s    1 1.00
                0.1596                   1
 p    3 1.00
                 9.439   0.056979251590039
                 2.002    0.31320721150073
                0.5456    0.76037674173753
 p    1 1.00
                0.1517                   1
 d    1 1.00
                  0.55                   1

29 0
 s    3 1.00
                 13.01   0.033498726389998
                 1.962    0.23480080117413
                0.4446     0.8136829578829
 s    1 1.00
                 0.122                   1
 p    1 1.00
                 0.727                   1

30 0
 s    3 1.00
                 13.01   0.033498726389998
                 1.962    0.23480080117413
                0.4446     0.8136829578829
 s    1 1.00
                 0.122                   1
 p    1 1.00
                 0.727                   1

31 0
 s    8 1.00
                  6665  0.00069158396281299
                  1000  0.0053257961529341
                   228   0.027060721042034
                 64.71    0.10165684614077
                 21.06     0.2745748236174
                 7.495    0.44829431892377
                 2.797    0.28490261071525
                0.5215   0.015194859206082
 s    8 1.00
                  6665  -0.00029326965268655
                  1000  -0.0023180354739745
                   228  -0.011499786038565
                 64.71  -0.046826727009787
                 21.06   -0.12846616875047
                 7.495   -0.30126627246289
                 2.797   -0.25563070233011
                0.5215      1.093793361012
 s    1 1.00
                0.1596                   1
 p    3 1.00
                 9.439   0.056979251590039
                 2.002    0.31320721150073
                0.5456    0.76037674173753
 p    1 1.00
                0.1517                   1
 d    1 1.00
                  0.55                   1

32 0
 s    3 1.00
                 13.01   0.033498726389998
                 1.962    0.23480080117413
                0.4446     0.8136829578829
 s    1 1.00
                 0.122                   1
 p    1 1.00
                 0.727                   1

33 0
 s    3 1.00
                 13.01   0.033498726389998
                 1.962    0.23480080117413
                0.4446     0.8136829578829
 s    1 1.00
                 0.122                   1
 p    1 1.00
                 0.727                   1

34 0
 s    3 1.00
                 13.01   0.033498726389998
                 1.962    0.23480080117413
                0.4446     0.8136829578829
 s    1 1.00
                 0.122                   1
 p    1 1.00
                 0.727                   1

35 0
 s    3 1.00
                 13.01   0.033498726389998
                 1.962    0.23480080117413
                0.4446     0.8136829578829
 s    1 1.00
                 0.122                   1
 p    1 1.00
                 0.727                   1

36 0
 s    3 1.00
                 13.01   0.033498726389998
                 1.962    0.23480080117413
                0.4446     0.8136829578829
 s    1 1.00
                 0.122                   1
 p    1 1.00
                 0.727                   1

37 0
 s    3 1.00
                 13.01   0.033498726389998
                 1.962    0.23480080117413
                0.4446     0.8136829578829
 s    1 1.00
                 0.122                   1
 p    1 1.00
                 0.727                   1

[5d]
[7f]
[9g]

[MO]
 Sym= A
 Ene=               0
 Spin= Alpha
 Occup=    1.00000
   1    -3.3280889304391e-07
   2    -4.9713767767494e-07
   3    2.945158710118e-06
   4    -1.7230253663848e-08
   5    1.1935738665436e-07
   6    -2.9541691944494e-07
   7    8.1063886964562e-09
   8    -6.3000545053833e-07
   9    -2.3156176729557e-06
  10    2.7606822544718e-07
  11    1.0198720896642e-09
  12    -2.557524811911e-08
  13    1.8136617590981e-08
  14    7.4927118564277e-10
  15    9.1926892139842e-08
  16    -5.6449207358308e-06
  17    -1.8619452251101e-10
  18    3.2631911426748e-08
  19    -9.8105784922748e-07
  20    -1.1351946265634e-07
  21    2.0594196414679e-06
  22    3.1802189293406e-09
  23    -1.424546725724e-07
  24    4.890110710524e-08
  25    1.0229468934858e-05
  26    5.9227828388149e-05
  27    -8.7692663306188e-05
  28    4.4467794247875e-05
  29    -0.00034835911778548
  30    -0.00011317337014332
  31    3.4837078782807e-05
  32    -0.00025526846267313
  33    -5.2182232974985e-05
  34    3.9090692213761e-06
  35    4.197695554313e-06
  36    7.2432476217905e-06
  37    -3.6662070319224e-07
  38    -1.6355363000859e-06
  39    -3.2948875284708e-06
  40    -0.00016715290666157
  41    0.0001385584032224
  42    -0.00022134979608872
  43    0.00013081478348642
  44    0.0001837007150783
  45    0.00015622609139985
  46    -0.00032064855952773
  47    0.00016286461021717
  48    3.9832115417296e-05
  49    -2.8663853443226e-05
  50    -4.0806461804611e-05
  51    1.9066821264469e-05
  52    2.0158351664563e-05
  53    -5.7583030640582e-05
  54    0.00030252345607667
  55    0.00082307129413552
  56    0.00072670938255033
  57    0.00069331835949663
  58    -0.00089222241438113
  59    0.00090322255027062
  60    0.00039496632529543
  61    -0.0010295775778081
  62    2.0514845170244e-05
  63    -4.9919421095687e-05
  64    -8.0241258148903e-05
  65    -2.0646845772985e-06
  66    7.2983147297322e-05
  67    2.2066044713599e-06
  68    -3.7539326763168e-05
  69    0.00020570628488993
  70    -1.4897809568911e-05
  71    -7.4659231195948e-05
  72    9.1495974491613e-05
  73    0.00017842714014631
  74    -6.0377979385827e-05
  75    0.00011581249911423
  76    7.8900681962795e-06
  77    1.6034250299515e-05
  78    -1.0840285249396e-05
  79    -3.9577670977361e-06
  80    1.2828774785221e-06
  81    -0.00023677621506525
  82    -9.0365208977321e-05
  83    9.4428670941226e-06
  84    1.6765855253681e-05
  85    4.4844240426746e-06
  86    -4.0046809218619e-05
  87    5.562435044182e-05
  88    -0.00044440455144617
  89    -0.00049975849765279
  90    -0.0011432776208337
  91    0.00093540716648903
  92    -0.00017098605436636
  93    1.5657873097281e-05
  94    0.00019156319274152
  95    -2.9179399275231e-06
  96    -0.00011145923435306
  97    -9.8932674674231e-05
  98    -2.5903231142942e-05
  99    4.8933052668851e-05
 100    -0.00022530234188606
 101    -0.00015599189628645
 102    -9.7214056048549e-06
 103    1.4646280609945e-05
 104    -1.3026699702622e-05
 105    -3.5262896722878e-05
 106    5.8489192934619e-05
 107    -4.8149077667661e-06
 108    -9.273890251273e-07
 109    3.9535657796737e-06
 110    -0.00013340462751606
 111    -1.2382287273255e-05
 112    3.4879251280126e-06
 113    4.585383161365e-06
 114    -4.7120755567521e-06
 115    0.0044612782427849
 116    2.2784489151163e-05
 117    3.3910812541172e-05
 118    1.0582154845914e-05
 119    -9.7768908305669e-06
 120    7.4070422222044e-06
 121    -6.8487119180488e-06
 122    -2.7351862331576e-05
 123    7.4389855318996e-07
 124    -5.8656418754058e-07
 125    -1.89784262335e-06
 126    5.2019014183739e-06
 127    -1.3828697252912e-06
 128    -6.0442536801103e-06
 129    -0.00052220604676647
 130    -0.00048126467904349
 131    -2.2447838920581e-05
 132    -9.9818029408468e-06
 133    0.00010851561381708
 134    -0.00063004141817349
 135    -0.00056814310695369
 136    -0.00010271883516447
 137    -3.7341857362256e-05
 138    2.8558941494855e-06
 139    -0.097975080193454
 140    -0.0006998344138392
 141    0.0044450155009205
 142    8.230169602065e-05
 143    -6.4053572252386e-05
 144    -3.0061112293138e-05
 145    0.00095461060656672
 146    0.0011465014020042
 147    -0.0012627450395027
 148    1.9713039283777e-05
 149    4.9269809207056e-06
 150    8.6679931233526e-05
 151    7.7773554994757e-05
 152    -3.5423647366218e-05
 153    4.7659626895308e-06
 154    -2.5225167568252e-05
 155    -7.7325368334469e-07
 156    5.3101830556408e-06
 157    9.8278615776225e-07
 158    2.2310632440963e-06
 159    -2.4660794090976e-05
 160    -1.3662202885118e-06
 161    -1.5312243295411e-06
 162    1.1538086602624e-06
 163    -0.0013367243406503
 164    -1.4591982909496e-05
 165    2.8504294634219e-05
 166    -3.4351375298497e-06
 167    1.4139659079136e-06
 168    1.3655375296906e-06
 169    2.8976085292504e-05
 170    3.3275582012442e-06
 171    -1.5917652700108e-05
 172    -7.2768921092879e-07
 173    -2.7330567210114e-07
 174    2.2859857374128e-06
 175    1.2583523587841e-06
 176    6.1517027237141e-07
 177    -0.00012173271848505
 178    2.0034127971687e-06
 179    -2.2902009674344e-05
 180    4.1514525366696e-05
 181    -8.3326217063895e-05
 182      0.99634886263889
 183    0.0051232616433484
 184    -0.012199930376363
 185    9.2661558921557e-06
 186    0.0001642345943351
 187    -7.4242204998779e-05
 188    0.00013135655837644
 189    0.0014223455863235
 190    -0.00064243021105657
 191    4.4480933286533e-06
 192    0.00031494411424779
 193    8.4512425638634e-05
 194    -6.1961416419987e-05
 195    7.9107299502161e-06
 196    -0.00013351190470964
 197    2.5500904247383e-06
 198    5.8398697708868e-05
 199    7.4755847822563e-05
 200    9.1433607700489e-06
 201    -2.6092186167137e-06
 202    -2.5464256479621e-06
 203    -1.1759348825351e-06
 204    -4.3400970225155e-07
 205    5.0791131230758e-07
 206    -4.9286591447112e-06
 207    -1.7070571617711e-05
 208    -6.9203135383724e-07
 209    1.0452041715937e-06
 210    6.4781099889704e-07
 211    -7.0091311652105e-05
 212    -3.004524361754e-06
 213    2.8323793434501e-06
 214    -1.8076373895753e-06
 215    4.3420457927023e-07
 216    3.3242253417471e-07
 217    1.626764436527e-05
 218    -1.2848004417624e-05
 219    -3.596089532294e-06
 220    -2.5535215379845e-07
 221    -5.1648345145335e-07
 222    8.3571149036279e-07
 223    5.7626551119557e-07
 224    -1.2443822518007e-06
 225    0.00019347606193711
 226    0.0011912825053496
 227    0.00020144755572909
 228    0.0003023499311086
 229    0.0002593240888751
 230    0.0001881205167542
 231     0.001206345823415
 232    -0.00030012039273665
 233    8.4505644686422e-05
 234    -0.00032149513529948
 235     0.053621689252429
 236    0.00019984840017357
 237    0.0022035247894142
 238    -0.00010727727467973
 239    5.7879712925239e-05
 240    6.9889615643528e-05
 241    -0.00080618922310201
 242    0.00056891877934964
 243    0.00048206812754809
 244    5.500735474597e-05
 245    0.00011419987567992
 246    -9.2578782809804e-05
 247    -4.3160893623068e-05
 248    0.00015779641052823
 249    -2.0798294321888e-06
 250    1.102825606813e-05
 251    -8.3150213008169e-07
 252    1.1724287133579e-07
 253    -7.6203696078159e-07
 254    -4.3776083848307e-07
 255    2.843773680336e-06
 256    -4.4907661768878e-07
 257    9.8342650128841e-07
 258    -7.4642762480565e-07
 259    -2.4872570701372e-06
 260    -1.4720009212776e-06
 261    1.1387672714314e-05
 262    3.2702873019968e-07
 263    -1.0968965072412e-07