[Molden Format]
made by pyscf v[2.0.1]
[Atoms] (AU)
O   1   8     0.00000000000000     0.00000000000000     8.29613401107647
H   2   1     0.00000000000000     0.00000000000000     6.47273218917551
H   3   1    -0.05031916615174     1.78353065140343     8.67200570754314
O   4   8     0.00000000000000     0.00000000000000     2.31533471513237
C   5   6     0.00000000000000     0.00000000000000     0.00000000000000
C   6   6     2.01118073026938    -1.40227222164369    -1.50774939176400
C   7   6    -2.01249334291722     1.41331050329955    -1.50315905028694
H   8   1     3.32037363730244    -2.26721897153159    -0.13599698591495
C   9   6     3.45899267434009     0.28739631745591    -3.37437943254505
H   10   1     1.07662969841332    -2.94725144642667    -2.56541439481080
H   11   1    -2.67503415753480     0.18421555839588    -3.06194479365997
H   12   1    -1.07974048864772     3.03851734677796    -2.43674295017013
C   13   6    -4.21607110578555     2.32938802552922     0.11994162256091
H   14   1     4.24440173074564     1.93368664142019    -2.34976285512790
H   15   1     2.15020713235517     1.04714335134846    -4.81494497423699
C   16   6     5.60746363007797    -1.12419643481196    -4.70268606082550
H   17   1    -3.46838323670267     3.50951302338067     1.66946842715333
H   18   1    -5.11873485366228     0.68575958301209     1.04047743976495
C   19   6    -6.18314754751344     3.80909592987882    -1.39656589068747
H   20   1     6.93011263717176    -1.87550812453645    -3.26656317360070
C   21   6     7.06356622236532     0.52877932406334    -6.57829775293605
H   22   1     4.82318879258361    -2.78573437948532    -5.70504560381835
H   23   1    -6.91582688743803     2.61304780074712    -2.95074552451969
H   24   1    -5.26532430573853     5.45420349051338    -2.31005832200284
C   25   6    -8.39941882261433     4.73263980500213     0.21800571437956
H   26   1     7.83338371486801     2.19084139882824    -5.57093109900697
H   27   1     5.73544244039420     1.27376866537418    -8.01071492370229
C   28   6     9.21124858443101    -0.89699110072176    -7.88926949186242
H   29   1    -7.66272760055236     5.92277078003992     1.77035591474408
H   30   1    -9.31497248082589     3.08753015622020     1.12614408368786
C   31   6   -10.35481709231879     6.21833079391143    -1.30905206253246
H   32   1    10.58815905329501    -1.61074586756696    -6.49512691622620
H   33   1    10.23506248045667     0.32468009384095    -9.23072870921204
H   34   1     8.47665842847139    -2.53598436989925    -8.94921964622535
H   35   1    -9.48948872868064     7.90013588951020    -2.18823918416067
H   36   1   -11.93332513000955     6.86460487874102    -0.11255798845995
H   37   1   -11.15126291841033     5.04495968327630    -2.83849898862534
[GTO]
1 0
 s    8 1.00
                 11720  0.00070964594651845
                  1759  0.0054672722921914
                 400.8   0.027823118610189
                 113.7    0.10474773971146
                 37.03    0.28292084635691
                 13.27    0.44849523869833
                 5.025    0.27081688521277
                 1.013    0.01545029160744
 s    8 1.00
                 11720  -0.00031444341168873
                  1759  -0.0024821376810179
                 400.8  -0.012316355381583
                 113.7  -0.050538917343672
                 37.03   -0.13938490331632
                 13.27   -0.32507749481778
                 5.025   -0.22984830758785
                 1.013     1.0953793467883
 s    1 1.00
                0.3023                   1
 p    3 1.00
                  17.7   0.062679166281506
                 3.854    0.33353656587936
                 1.046    0.74123964163973
 p    1 1.00
                0.2753                   1
 d    1 1.00
                 1.185                   1

2 0
 s    3 1.00
                 13.01   0.033498726389998
                 1.962    0.23480080117413
                0.4446     0.8136829578829
 s    1 1.00
                 0.122                   1
 p    1 1.00
                 0.727                   1

3 0
 s    3 1.00
                 13.01   0.033498726389998
                 1.962    0.23480080117413
                0.4446     0.8136829578829
 s    1 1.00
                 0.122                   1
 p    1 1.00
                 0.727                   1

4 0
 s    8 1.00
                 11720  0.00070964594651845
                  1759  0.0054672722921914
                 400.8   0.027823118610189
                 113.7    0.10474773971146
                 37.03    0.28292084635691
                 13.27    0.44849523869833
                 5.025    0.27081688521277
                 1.013    0.01545029160744
 s    8 1.00
                 11720  -0.00031444341168873
                  1759  -0.0024821376810179
                 400.8  -0.012316355381583
                 113.7  -0.050538917343672
                 37.03   -0.13938490331632
                 13.27   -0.32507749481778
                 5.025   -0.22984830758785
                 1.013     1.0953793467883
 s    1 1.00
                0.3023                   1
 p    3 1.00
                  17.7   0.062679166281506
                 3.854    0.33353656587936
                 1.046    0.74123964163973
 p    1 1.00
                0.2753                   1
 d    1 1.00
                 1.185                   1

5 0
 s    8 1.00
                  6665  0.00069158396281299
                  1000  0.0053257961529341
                   228   0.027060721042034
                 64.71    0.10165684614077
                 21.06     0.2745748236174
                 7.495    0.44829431892377
                 2.797    0.28490261071525
                0.5215   0.015194859206082
 s    8 1.00
                  6665  -0.00029326965268655
                  1000  -0.0023180354739745
                   228  -0.011499786038565
                 64.71  -0.046826727009787
                 21.06   -0.12846616875047
                 7.495   -0.30126627246289
                 2.797   -0.25563070233011
                0.5215      1.093793361012
 s    1 1.00
                0.1596                   1
 p    3 1.00
                 9.439   0.056979251590039
                 2.002    0.31320721150073
                0.5456    0.76037674173753
 p    1 1.00
                0.1517                   1
 d    1 1.00
                  0.55                   1

6 0
 s    8 1.00
                  6665  0.00069158396281299
                  1000  0.0053257961529341
                   228   0.027060721042034
                 64.71    0.10165684614077
                 21.06     0.2745748236174
                 7.495    0.44829431892377
                 2.797    0.28490261071525
                0.5215   0.015194859206082
 s    8 1.00
                  6665  -0.00029326965268655
                  1000  -0.0023180354739745
                   228  -0.011499786038565
                 64.71  -0.046826727009787
                 21.06   -0.12846616875047
                 7.495   -0.30126627246289
                 2.797   -0.25563070233011
                0.5215      1.093793361012
 s    1 1.00
                0.1596                   1
 p    3 1.00
                 9.439   0.056979251590039
                 2.002    0.31320721150073
                0.5456    0.76037674173753
 p    1 1.00
                0.1517                   1
 d    1 1.00
                  0.55                   1

7 0
 s    8 1.00
                  6665  0.00069158396281299
                  1000  0.0053257961529341
                   228   0.027060721042034
                 64.71    0.10165684614077
                 21.06     0.2745748236174
                 7.495    0.44829431892377
                 2.797    0.28490261071525
                0.5215   0.015194859206082
 s    8 1.00
                  6665  -0.00029326965268655
                  1000  -0.0023180354739745
                   228  -0.011499786038565
                 64.71  -0.046826727009787
                 21.06   -0.12846616875047
                 7.495   -0.30126627246289
                 2.797   -0.25563070233011
                0.5215      1.093793361012
 s    1 1.00
                0.1596                   1
 p    3 1.00
                 9.439   0.056979251590039
                 2.002    0.31320721150073
                0.5456    0.76037674173753
 p    1 1.00
                0.1517                   1
 d    1 1.00
                  0.55                   1

8 0
 s    3 1.00
                 13.01   0.033498726389998
                 1.962    0.23480080117413
                0.4446     0.8136829578829
 s    1 1.00
                 0.122                   1
 p    1 1.00
                 0.727                   1

9 0
 s    8 1.00
                  6665  0.00069158396281299
                  1000  0.0053257961529341
                   228   0.027060721042034
                 64.71    0.10165684614077
                 21.06     0.2745748236174
                 7.495    0.44829431892377
                 2.797    0.28490261071525
                0.5215   0.015194859206082
 s    8 1.00
                  6665  -0.00029326965268655
                  1000  -0.0023180354739745
                   228  -0.011499786038565
                 64.71  -0.046826727009787
                 21.06   -0.12846616875047
                 7.495   -0.30126627246289
                 2.797   -0.25563070233011
                0.5215      1.093793361012
 s    1 1.00
                0.1596                   1
 p    3 1.00
                 9.439   0.056979251590039
                 2.002    0.31320721150073
                0.5456    0.76037674173753
 p    1 1.00
                0.1517                   1
 d    1 1.00
                  0.55                   1

10 0
 s    3 1.00
                 13.01   0.033498726389998
                 1.962    0.23480080117413
                0.4446     0.8136829578829
 s    1 1.00
                 0.122                   1
 p    1 1.00
                 0.727                   1

11 0
 s    3 1.00
                 13.01   0.033498726389998
                 1.962    0.23480080117413
                0.4446     0.8136829578829
 s    1 1.00
                 0.122                   1
 p    1 1.00
                 0.727                   1

12 0
 s    3 1.00
                 13.01   0.033498726389998
                 1.962    0.23480080117413
                0.4446     0.8136829578829
 s    1 1.00
                 0.122                   1
 p    1 1.00
                 0.727                   1

13 0
 s    8 1.00
                  6665  0.00069158396281299
                  1000  0.0053257961529341
                   228   0.027060721042034
                 64.71    0.10165684614077
                 21.06     0.2745748236174
                 7.495    0.44829431892377
                 2.797    0.28490261071525
                0.5215   0.015194859206082
 s    8 1.00
                  6665  -0.00029326965268655
                  1000  -0.0023180354739745
                   228  -0.011499786038565
                 64.71  -0.046826727009787
                 21.06   -0.12846616875047
                 7.495   -0.30126627246289
                 2.797   -0.25563070233011
                0.5215      1.093793361012
 s    1 1.00
                0.1596                   1
 p    3 1.00
                 9.439   0.056979251590039
                 2.002    0.31320721150073
                0.5456    0.76037674173753
 p    1 1.00
                0.1517                   1
 d    1 1.00
                  0.55                   1

14 0
 s    3 1.00
                 13.01   0.033498726389998
                 1.962    0.23480080117413
                0.4446     0.8136829578829
 s    1 1.00
                 0.122                   1
 p    1 1.00
                 0.727                   1

15 0
 s    3 1.00
                 13.01   0.033498726389998
                 1.962    0.23480080117413
                0.4446     0.8136829578829
 s    1 1.00
                 0.122                   1
 p    1 1.00
                 0.727                   1

16 0
 s    8 1.00
                  6665  0.00069158396281299
                  1000  0.0053257961529341
                   228   0.027060721042034
                 64.71    0.10165684614077
                 21.06     0.2745748236174
                 7.495    0.44829431892377
                 2.797    0.28490261071525
                0.5215   0.015194859206082
 s    8 1.00
                  6665  -0.00029326965268655
                  1000  -0.0023180354739745
                   228  -0.011499786038565
                 64.71  -0.046826727009787
                 21.06   -0.12846616875047
                 7.495   -0.30126627246289
                 2.797   -0.25563070233011
                0.5215      1.093793361012
 s    1 1.00
                0.1596                   1
 p    3 1.00
                 9.439   0.056979251590039
                 2.002    0.31320721150073
                0.5456    0.76037674173753
 p    1 1.00
                0.1517                   1
 d    1 1.00
                  0.55                   1

17 0
 s    3 1.00
                 13.01   0.033498726389998
                 1.962    0.23480080117413
                0.4446     0.8136829578829
 s    1 1.00
                 0.122                   1
 p    1 1.00
                 0.727                   1

18 0
 s    3 1.00
                 13.01   0.033498726389998
                 1.962    0.23480080117413
                0.4446     0.8136829578829
 s    1 1.00
                 0.122                   1
 p    1 1.00
                 0.727                   1

19 0
 s    8 1.00
                  6665  0.00069158396281299
                  1000  0.0053257961529341
                   228   0.027060721042034
                 64.71    0.10165684614077
                 21.06     0.2745748236174
                 7.495    0.44829431892377
                 2.797    0.28490261071525
                0.5215   0.015194859206082
 s    8 1.00
                  6665  -0.00029326965268655
                  1000  -0.0023180354739745
                   228  -0.011499786038565
                 64.71  -0.046826727009787
                 21.06   -0.12846616875047
                 7.495   -0.30126627246289
                 2.797   -0.25563070233011
                0.5215      1.093793361012
 s    1 1.00
                0.1596                   1
 p    3 1.00
                 9.439   0.056979251590039
                 2.002    0.31320721150073
                0.5456    0.76037674173753
 p    1 1.00
                0.1517                   1
 d    1 1.00
                  0.55                   1

20 0
 s    3 1.00
                 13.01   0.033498726389998
                 1.962    0.23480080117413
                0.4446     0.8136829578829
 s    1 1.00
                 0.122                   1
 p    1 1.00
                 0.727                   1

21 0
 s    8 1.00
                  6665  0.00069158396281299
                  1000  0.0053257961529341
                   228   0.027060721042034
                 64.71    0.10165684614077
                 21.06     0.2745748236174
                 7.495    0.44829431892377
                 2.797    0.28490261071525
                0.5215   0.015194859206082
 s    8 1.00
                  6665  -0.00029326965268655
                  1000  -0.0023180354739745
                   228  -0.011499786038565
                 64.71  -0.046826727009787
                 21.06   -0.12846616875047
                 7.495   -0.30126627246289
                 2.797   -0.25563070233011
                0.5215      1.093793361012
 s    1 1.00
                0.1596                   1
 p    3 1.00
                 9.439   0.056979251590039
                 2.002    0.31320721150073
                0.5456    0.76037674173753
 p    1 1.00
                0.1517                   1
 d    1 1.00
                  0.55                   1

22 0
 s    3 1.00
                 13.01   0.033498726389998
                 1.962    0.23480080117413
                0.4446     0.8136829578829
 s    1 1.00
                 0.122                   1
 p    1 1.00
                 0.727                   1

23 0
 s    3 1.00
                 13.01   0.033498726389998
                 1.962    0.23480080117413
                0.4446     0.8136829578829
 s    1 1.00
                 0.122                   1
 p    1 1.00
                 0.727                   1

24 0
 s    3 1.00
                 13.01   0.033498726389998
                 1.962    0.23480080117413
                0.4446     0.8136829578829
 s    1 1.00
                 0.122                   1
 p    1 1.00
                 0.727                   1

25 0
 s    8 1.00
                  6665  0.00069158396281299
                  1000  0.0053257961529341
                   228   0.027060721042034
                 64.71    0.10165684614077
                 21.06     0.2745748236174
                 7.495    0.44829431892377
                 2.797    0.28490261071525
                0.5215   0.015194859206082
 s    8 1.00
                  6665  -0.00029326965268655
                  1000  -0.0023180354739745
                   228  -0.011499786038565
                 64.71  -0.046826727009787
                 21.06   -0.12846616875047
                 7.495   -0.30126627246289
                 2.797   -0.25563070233011
                0.5215      1.093793361012
 s    1 1.00
                0.1596                   1
 p    3 1.00
                 9.439   0.056979251590039
                 2.002    0.31320721150073
                0.5456    0.76037674173753
 p    1 1.00
                0.1517                   1
 d    1 1.00
                  0.55                   1

26 0
 s    3 1.00
                 13.01   0.033498726389998
                 1.962    0.23480080117413
                0.4446     0.8136829578829
 s    1 1.00
                 0.122                   1
 p    1 1.00
                 0.727                   1

27 0
 s    3 1.00
                 13.01   0.033498726389998
                 1.962    0.23480080117413
                0.4446     0.8136829578829
 s    1 1.00
                 0.122                   1
 p    1 1.00
                 0.727                   1

28 0
 s    8 1.00
                  6665  0.00069158396281299
                  1000  0.0053257961529341
                   228   0.027060721042034
                 64.71    0.10165684614077
                 21.06     0.2745748236174
                 7.495    0.44829431892377
                 2.797    0.28490261071525
                0.5215   0.015194859206082
 s    8 1.00
                  6665  -0.00029326965268655
                  1000  -0.0023180354739745
                   228  -0.011499786038565
                 64.71  -0.046826727009787
                 21.06   -0.12846616875047
                 7.495   -0.30126627246289
                 2.797   -0.25563070233011
                0.5215      1.093793361012
 s    1 1.00
                0.1596                   1
 p    3 1.00
                 9.439   0.056979251590039
                 2.002    0.31320721150073
                0.5456    0.76037674173753
 p    1 1.00
                0.1517                   1
 d    1 1.00
                  0.55                   1

29 0
 s    3 1.00
                 13.01   0.033498726389998
                 1.962    0.23480080117413
                0.4446     0.8136829578829
 s    1 1.00
                 0.122                   1
 p    1 1.00
                 0.727                   1

30 0
 s    3 1.00
                 13.01   0.033498726389998
                 1.962    0.23480080117413
                0.4446     0.8136829578829
 s    1 1.00
                 0.122                   1
 p    1 1.00
                 0.727                   1

31 0
 s    8 1.00
                  6665  0.00069158396281299
                  1000  0.0053257961529341
                   228   0.027060721042034
                 64.71    0.10165684614077
                 21.06     0.2745748236174
                 7.495    0.44829431892377
                 2.797    0.28490261071525
                0.5215   0.015194859206082
 s    8 1.00
                  6665  -0.00029326965268655
                  1000  -0.0023180354739745
                   228  -0.011499786038565
                 64.71  -0.046826727009787
                 21.06   -0.12846616875047
                 7.495   -0.30126627246289
                 2.797   -0.25563070233011
                0.5215      1.093793361012
 s    1 1.00
                0.1596                   1
 p    3 1.00
                 9.439   0.056979251590039
                 2.002    0.31320721150073
                0.5456    0.76037674173753
 p    1 1.00
                0.1517                   1
 d    1 1.00
                  0.55                   1

32 0
 s    3 1.00
                 13.01   0.033498726389998
                 1.962    0.23480080117413
                0.4446     0.8136829578829
 s    1 1.00
                 0.122                   1
 p    1 1.00
                 0.727                   1

33 0
 s    3 1.00
                 13.01   0.033498726389998
                 1.962    0.23480080117413
                0.4446     0.8136829578829
 s    1 1.00
                 0.122                   1
 p    1 1.00
                 0.727                   1

34 0
 s    3 1.00
                 13.01   0.033498726389998
                 1.962    0.23480080117413
                0.4446     0.8136829578829
 s    1 1.00
                 0.122                   1
 p    1 1.00
                 0.727                   1

35 0
 s    3 1.00
                 13.01   0.033498726389998
                 1.962    0.23480080117413
                0.4446     0.8136829578829
 s    1 1.00
                 0.122                   1
 p    1 1.00
                 0.727                   1

36 0
 s    3 1.00
                 13.01   0.033498726389998
                 1.962    0.23480080117413
                0.4446     0.8136829578829
 s    1 1.00
                 0.122                   1
 p    1 1.00
                 0.727                   1

37 0
 s    3 1.00
                 13.01   0.033498726389998
                 1.962    0.23480080117413
                0.4446     0.8136829578829
 s    1 1.00
                 0.122                   1
 p    1 1.00
                 0.727                   1

[5d]
[7f]
[9g]

[MO]
 Sym= A
 Ene=               0
 Spin= Alpha
 Occup=    1.00000
   1    -2.6731831968747e-06
   2    -4.7015598681328e-06
   3    1.8276765783313e-05
   4    -2.5292476185521e-07
   5    5.5989284583488e-06
   6    -8.2195666942936e-06
   7    1.1063743735885e-07
   8    3.5691700929371e-07
   9    -1.5361855013757e-05
  10    9.3247938484977e-07
  11    1.0014360080643e-07
  12    -4.3808705810102e-07
  13    -1.1761851279095e-07
  14    -7.187139505507e-10
  15    1.135046805339e-07
  16    -3.1005228334406e-05
  17    7.6423867127681e-07
  18    -1.8213261171283e-06
  19    -4.9333725578169e-07
  20    2.7896209054318e-06
  21    3.1115951918722e-06
  22    -1.7412330833465e-08
  23    -2.8457278545564e-08
  24    -2.6346889331288e-07
  25    1.138828340505e-05
  26    6.2955771515563e-05
  27    -9.6837534525693e-05
  28    4.2277686315865e-05
  29    -0.00033979007179576
  30    -0.0001113712626222
  31    3.3717650501159e-05
  32    -0.00025160317128947
  33    -3.7397441604796e-05
  34    2.6950618908277e-06
  35     4.10552792561e-06
  36    6.2945507824055e-06
  37    -2.8907092965724e-07
  38    -1.6258577678626e-06
  39    -2.1834597558425e-06
  40    -0.00016506470193648
  41    0.00014478218450651
  42    -0.00021617587434208
  43    0.00013769097594246
  44    0.00018319345339222
  45    0.00015332147568434
  46    -0.00030697106230396
  47    0.00017499062809399
  48    4.1875924174036e-05
  49    -2.9078527328379e-05
  50    -3.9315721147371e-05
  51    1.9316209319468e-05
  52    2.0143782647856e-05
  53    -5.7507200444822e-05
  54    0.00030217196873239
  55    0.00083732328874136
  56    0.00072168318158827
  57    0.00069259583694148
  58    -0.00088758390017353
  59    0.00089391995241456
  60    0.00040005675927615
  61    -0.0010275971584081
  62    2.0300564747268e-05
  63    -4.9283142353856e-05
  64    -7.9538852464239e-05
  65    -2.5653143960743e-06
  66    7.2651587739825e-05
  67    2.6631703101318e-06
  68    -3.8652421917301e-05
  69    0.00019831256172451
  70    -1.4942907489656e-05
  71    -7.4823205944101e-05
  72    8.8950847467505e-05
  73    0.00017722335475554
  74    -6.1705388072345e-05
  75    0.00010879714080504
  76    7.8102661400965e-06
  77    1.6140462121083e-05
  78    -1.0469259640664e-05
  79    -3.7856105802109e-06
  80    1.4093678482736e-06
  81    -0.00023585209870702
  82    -8.8232526374915e-05
  83    9.589311096089e-06
  84    1.6441758052101e-05
  85    4.3588024224772e-06
  86    -4.0261574681557e-05
  87    6.0266250246717e-05
  88    -0.00045361843450697
  89    -0.00048707919234305
  90    -0.0011429425801651
  91    0.00092421380996026
  92    -0.00016276915137095
  93    2.0804231233898e-05
  94    0.00018487259539813
  95    -3.0610320037578e-06
  96    -0.00011248601335005
  97    -9.8265184129749e-05
  98    -2.5420802935668e-05
  99    4.7814363271508e-05
 100    -0.00022427182558841
 101    -0.00015415259351878
 102    -9.8667209781333e-06
 103    1.4381744946611e-05
 104    -1.2797487752804e-05
 105    -3.3738516548048e-05
 106     5.86712884397e-05
 107    -4.7765484004955e-06
 108    -1.0801695580163e-06
 109    4.104465744233e-06
 110    -0.00013400156843803
 111    -1.357975538387e-05
 112    3.4591880118202e-06
 113    4.7656427033965e-06
 114    -4.5936074310887e-06
 115    0.0045355559864694
 116    2.1915299990995e-05
 117    3.1491523238509e-05
 118    9.546021695963e-06
 119    -9.5950305323532e-06
 120    7.7556999865312e-06
 121    -7.0833835682024e-06
 122    -2.7086043847344e-05
 123    -1.1606308964241e-06
 124    -5.3887861490392e-07
 125    -1.842130031058e-06
 126    5.0343154455435e-06
 127    -1.4303647468572e-06
 128    -5.8673586275936e-06
 129    -0.0005205342869514
 130    -0.00048220993104777
 131    -2.2211008520498e-05
 132    -1.0258969802494e-05
 133    0.00010816955657056
 134    -0.00062797979310633
 135    -0.00056763212527344
 136    -0.00010219329988083
 137    -3.7607455140487e-05
 138    2.7426360328941e-06
 139    -0.098265010348473
 140    -0.00068789393747595
 141    0.0044548106003565
 142    7.5376778862601e-05
 143    -5.8491545784642e-05
 144    -2.5997589827497e-05
 145    0.00094288659888223
 146    0.0011502430177612
 147    -0.0012551358740361
 148    1.9187904271087e-05
 149    5.7789099179713e-06
 150    8.8067575875058e-05
 151    7.7890047557986e-05
 152    -3.6894358854869e-05
 153    4.2261873218108e-06
 154    -2.1957829943485e-05
 155    -7.778582288851e-07
 156    5.1246903547547e-06
 157    9.5249731453843e-07
 158    1.893602720933e-06
 159    -2.3652536726411e-05
 160    -1.39245866538e-06
 161    -1.56480415406e-06
 162    1.2579168803433e-06
 163    -0.0016281625199172
 164    -1.6013951293523e-05
 165    3.0581622828813e-05
 166    -3.5892015417262e-06
 167    1.4369787776741e-06
 168    1.4076945863617e-06
 169    2.8216670098755e-05
 170    3.3878384823111e-06
 171    -1.5886428897311e-05
 172    -6.7600404340454e-07
 173    -3.435862358055e-07
 174    2.2901807348357e-06
 175    1.2608041243999e-06
 176    5.8250450485628e-07
 177    -0.00011923074781452
 178    2.798305925692e-06
 179    -2.2826443101239e-05
 180    4.164073237552e-05
 181    -8.3849715013081e-05
 182      0.99653379782064
 183    0.0051253502929756
 184     -0.01220879712434
 185    3.7422723005897e-06
 186    0.00016283815352579
 187    -6.9637246612883e-05
 188    0.00012938338057505
 189    0.0014234718960015
 190    -0.00064071892155407
 191    4.4844178026483e-06
 192    0.00031367803504237
 193    8.4166793291733e-05
 194    -6.1598768856357e-05
 195    7.7704769876224e-06
 196    -0.00013105264632171
 197    2.5192779975157e-06
 198    5.888952102011e-05
 199    7.5097478494143e-05
 200    9.0962910883113e-06
 201    -2.64818971765e-06
 202    -3.2173447286816e-06
 203    -1.1246774745816e-06
 204    -3.7353714275943e-07
 205    5.763787808765e-07
 206    -4.9691433424756e-06
 207    -1.7218427744327e-05
 208    -7.2845090030209e-07
 209    9.2668512367427e-07
 210    7.0436865074454e-07
 211    -8.1643210880347e-05
 212    -3.1057576504706e-06
 213    3.1139121439672e-06
 214    -1.7673255359825e-06
 215    4.3663899554633e-07
 216    3.2563847365021e-07
 217    1.5719148022558e-05
 218    -1.2361211239401e-05
 219    -3.2781386408977e-06
 220    -2.4599630187029e-07
 221    -5.1326345849579e-07
 222    8.3251417352345e-07
 223    5.9506170130218e-07
 224    -1.2532525030937e-06
 225    0.00019503038214053
 226    0.0011909214337234
 227    0.00020103954768183
 228    0.00030214293402119
 229    0.0002590379070462
 230    0.00018938230265844
 231    0.0012062140251319
 232    -0.00030007669908515
 233    8.4706545918786e-05
 234    -0.00032125180042896
 235     0.049491516755816
 236    0.00017962585709257
 237    0.0022444430073462
 238    -0.00010851767888448
 239    5.8880234721488e-05
 240    7.055029804391e-05
 241    -0.00081131747032277
 242    0.00056905978225107
 243    0.00048631600136776
 244    5.458932965934e-05
 245    0.00011327759042176
 246    -9.1747179454437e-05
 247    -4.2733787170118e-05
 248    0.00015650895797059
 249    -2.0196115538504e-06
 250    1.0170645647148e-05
 251    -8.2678098655755e-07
 252    1.576458458601e-07
 253    -7.0485885965774e-07
 254    -4.4219001518782e-07
 255    2.7113937362881e-06
 256    -4.5181102472959e-07
 257    9.6750902022207e-07
 258    -7.261734141416e-07
 259    -2.4448002545061e-06
 260    -1.3552742618245e-06
 261    1.0713988391149e-05
 262    3.2619278311752e-07
 263    -1.1308446767823e-07