[Molden Format]
made by pyscf v[2.0.1]
[Atoms] (AU)
O   1   8     0.00000000000000     0.00000000000000    10.94175058546756
H   2   1     0.00000000000000     0.00000000000000     9.11834876356659
H   3   1    -0.05031916615174     1.78353065140343    11.31762228193423
O   4   8     0.00000000000000     0.00000000000000     2.31533471513237
C   5   6     0.00000000000000     0.00000000000000     0.00000000000000
C   6   6     2.01118073026938    -1.40227222164369    -1.50774939176400
C   7   6    -2.01249334291722     1.41331050329955    -1.50315905028694
H   8   1     3.32037363730244    -2.26721897153159    -0.13599698591495
C   9   6     3.45899267434009     0.28739631745591    -3.37437943254505
H   10   1     1.07662969841332    -2.94725144642667    -2.56541439481080
H   11   1    -2.67503415753480     0.18421555839588    -3.06194479365997
H   12   1    -1.07974048864772     3.03851734677796    -2.43674295017013
C   13   6    -4.21607110578555     2.32938802552922     0.11994162256091
H   14   1     4.24440173074564     1.93368664142019    -2.34976285512790
H   15   1     2.15020713235517     1.04714335134846    -4.81494497423699
C   16   6     5.60746363007797    -1.12419643481196    -4.70268606082550
H   17   1    -3.46838323670267     3.50951302338067     1.66946842715333
H   18   1    -5.11873485366228     0.68575958301209     1.04047743976495
C   19   6    -6.18314754751344     3.80909592987882    -1.39656589068747
H   20   1     6.93011263717176    -1.87550812453645    -3.26656317360070
C   21   6     7.06356622236532     0.52877932406334    -6.57829775293605
H   22   1     4.82318879258361    -2.78573437948532    -5.70504560381835
H   23   1    -6.91582688743803     2.61304780074712    -2.95074552451969
H   24   1    -5.26532430573853     5.45420349051338    -2.31005832200284
C   25   6    -8.39941882261433     4.73263980500213     0.21800571437956
H   26   1     7.83338371486801     2.19084139882824    -5.57093109900697
H   27   1     5.73544244039420     1.27376866537418    -8.01071492370229
C   28   6     9.21124858443101    -0.89699110072176    -7.88926949186242
H   29   1    -7.66272760055236     5.92277078003992     1.77035591474408
H   30   1    -9.31497248082589     3.08753015622020     1.12614408368786
C   31   6   -10.35481709231879     6.21833079391143    -1.30905206253246
H   32   1    10.58815905329501    -1.61074586756696    -6.49512691622620
H   33   1    10.23506248045667     0.32468009384095    -9.23072870921204
H   34   1     8.47665842847139    -2.53598436989925    -8.94921964622535
H   35   1    -9.48948872868064     7.90013588951020    -2.18823918416067
H   36   1   -11.93332513000955     6.86460487874102    -0.11255798845995
H   37   1   -11.15126291841033     5.04495968327630    -2.83849898862534
[GTO]
1 0
 s    8 1.00
                 11720  0.00070964594651845
                  1759  0.0054672722921914
                 400.8   0.027823118610189
                 113.7    0.10474773971146
                 37.03    0.28292084635691
                 13.27    0.44849523869833
                 5.025    0.27081688521277
                 1.013    0.01545029160744
 s    8 1.00
                 11720  -0.00031444341168873
                  1759  -0.0024821376810179
                 400.8  -0.012316355381583
                 113.7  -0.050538917343672
                 37.03   -0.13938490331632
                 13.27   -0.32507749481778
                 5.025   -0.22984830758785
                 1.013     1.0953793467883
 s    1 1.00
                0.3023                   1
 p    3 1.00
                  17.7   0.062679166281506
                 3.854    0.33353656587936
                 1.046    0.74123964163973
 p    1 1.00
                0.2753                   1
 d    1 1.00
                 1.185                   1

2 0
 s    3 1.00
                 13.01   0.033498726389998
                 1.962    0.23480080117413
                0.4446     0.8136829578829
 s    1 1.00
                 0.122                   1
 p    1 1.00
                 0.727                   1

3 0
 s    3 1.00
                 13.01   0.033498726389998
                 1.962    0.23480080117413
                0.4446     0.8136829578829
 s    1 1.00
                 0.122                   1
 p    1 1.00
                 0.727                   1

4 0
 s    8 1.00
                 11720  0.00070964594651845
                  1759  0.0054672722921914
                 400.8   0.027823118610189
                 113.7    0.10474773971146
                 37.03    0.28292084635691
                 13.27    0.44849523869833
                 5.025    0.27081688521277
                 1.013    0.01545029160744
 s    8 1.00
                 11720  -0.00031444341168873
                  1759  -0.0024821376810179
                 400.8  -0.012316355381583
                 113.7  -0.050538917343672
                 37.03   -0.13938490331632
                 13.27   -0.32507749481778
                 5.025   -0.22984830758785
                 1.013     1.0953793467883
 s    1 1.00
                0.3023                   1
 p    3 1.00
                  17.7   0.062679166281506
                 3.854    0.33353656587936
                 1.046    0.74123964163973
 p    1 1.00
                0.2753                   1
 d    1 1.00
                 1.185                   1

5 0
 s    8 1.00
                  6665  0.00069158396281299
                  1000  0.0053257961529341
                   228   0.027060721042034
                 64.71    0.10165684614077
                 21.06     0.2745748236174
                 7.495    0.44829431892377
                 2.797    0.28490261071525
                0.5215   0.015194859206082
 s    8 1.00
                  6665  -0.00029326965268655
                  1000  -0.0023180354739745
                   228  -0.011499786038565
                 64.71  -0.046826727009787
                 21.06   -0.12846616875047
                 7.495   -0.30126627246289
                 2.797   -0.25563070233011
                0.5215      1.093793361012
 s    1 1.00
                0.1596                   1
 p    3 1.00
                 9.439   0.056979251590039
                 2.002    0.31320721150073
                0.5456    0.76037674173753
 p    1 1.00
                0.1517                   1
 d    1 1.00
                  0.55                   1

6 0
 s    8 1.00
                  6665  0.00069158396281299
                  1000  0.0053257961529341
                   228   0.027060721042034
                 64.71    0.10165684614077
                 21.06     0.2745748236174
                 7.495    0.44829431892377
                 2.797    0.28490261071525
                0.5215   0.015194859206082
 s    8 1.00
                  6665  -0.00029326965268655
                  1000  -0.0023180354739745
                   228  -0.011499786038565
                 64.71  -0.046826727009787
                 21.06   -0.12846616875047
                 7.495   -0.30126627246289
                 2.797   -0.25563070233011
                0.5215      1.093793361012
 s    1 1.00
                0.1596                   1
 p    3 1.00
                 9.439   0.056979251590039
                 2.002    0.31320721150073
                0.5456    0.76037674173753
 p    1 1.00
                0.1517                   1
 d    1 1.00
                  0.55                   1

7 0
 s    8 1.00
                  6665  0.00069158396281299
                  1000  0.0053257961529341
                   228   0.027060721042034
                 64.71    0.10165684614077
                 21.06     0.2745748236174
                 7.495    0.44829431892377
                 2.797    0.28490261071525
                0.5215   0.015194859206082
 s    8 1.00
                  6665  -0.00029326965268655
                  1000  -0.0023180354739745
                   228  -0.011499786038565
                 64.71  -0.046826727009787
                 21.06   -0.12846616875047
                 7.495   -0.30126627246289
                 2.797   -0.25563070233011
                0.5215      1.093793361012
 s    1 1.00
                0.1596                   1
 p    3 1.00
                 9.439   0.056979251590039
                 2.002    0.31320721150073
                0.5456    0.76037674173753
 p    1 1.00
                0.1517                   1
 d    1 1.00
                  0.55                   1

8 0
 s    3 1.00
                 13.01   0.033498726389998
                 1.962    0.23480080117413
                0.4446     0.8136829578829
 s    1 1.00
                 0.122                   1
 p    1 1.00
                 0.727                   1

9 0
 s    8 1.00
                  6665  0.00069158396281299
                  1000  0.0053257961529341
                   228   0.027060721042034
                 64.71    0.10165684614077
                 21.06     0.2745748236174
                 7.495    0.44829431892377
                 2.797    0.28490261071525
                0.5215   0.015194859206082
 s    8 1.00
                  6665  -0.00029326965268655
                  1000  -0.0023180354739745
                   228  -0.011499786038565
                 64.71  -0.046826727009787
                 21.06   -0.12846616875047
                 7.495   -0.30126627246289
                 2.797   -0.25563070233011
                0.5215      1.093793361012
 s    1 1.00
                0.1596                   1
 p    3 1.00
                 9.439   0.056979251590039
                 2.002    0.31320721150073
                0.5456    0.76037674173753
 p    1 1.00
                0.1517                   1
 d    1 1.00
                  0.55                   1

10 0
 s    3 1.00
                 13.01   0.033498726389998
                 1.962    0.23480080117413
                0.4446     0.8136829578829
 s    1 1.00
                 0.122                   1
 p    1 1.00
                 0.727                   1

11 0
 s    3 1.00
                 13.01   0.033498726389998
                 1.962    0.23480080117413
                0.4446     0.8136829578829
 s    1 1.00
                 0.122                   1
 p    1 1.00
                 0.727                   1

12 0
 s    3 1.00
                 13.01   0.033498726389998
                 1.962    0.23480080117413
                0.4446     0.8136829578829
 s    1 1.00
                 0.122                   1
 p    1 1.00
                 0.727                   1

13 0
 s    8 1.00
                  6665  0.00069158396281299
                  1000  0.0053257961529341
                   228   0.027060721042034
                 64.71    0.10165684614077
                 21.06     0.2745748236174
                 7.495    0.44829431892377
                 2.797    0.28490261071525
                0.5215   0.015194859206082
 s    8 1.00
                  6665  -0.00029326965268655
                  1000  -0.0023180354739745
                   228  -0.011499786038565
                 64.71  -0.046826727009787
                 21.06   -0.12846616875047
                 7.495   -0.30126627246289
                 2.797   -0.25563070233011
                0.5215      1.093793361012
 s    1 1.00
                0.1596                   1
 p    3 1.00
                 9.439   0.056979251590039
                 2.002    0.31320721150073
                0.5456    0.76037674173753
 p    1 1.00
                0.1517                   1
 d    1 1.00
                  0.55                   1

14 0
 s    3 1.00
                 13.01   0.033498726389998
                 1.962    0.23480080117413
                0.4446     0.8136829578829
 s    1 1.00
                 0.122                   1
 p    1 1.00
                 0.727                   1

15 0
 s    3 1.00
                 13.01   0.033498726389998
                 1.962    0.23480080117413
                0.4446     0.8136829578829
 s    1 1.00
                 0.122                   1
 p    1 1.00
                 0.727                   1

16 0
 s    8 1.00
                  6665  0.00069158396281299
                  1000  0.0053257961529341
                   228   0.027060721042034
                 64.71    0.10165684614077
                 21.06     0.2745748236174
                 7.495    0.44829431892377
                 2.797    0.28490261071525
                0.5215   0.015194859206082
 s    8 1.00
                  6665  -0.00029326965268655
                  1000  -0.0023180354739745
                   228  -0.011499786038565
                 64.71  -0.046826727009787
                 21.06   -0.12846616875047
                 7.495   -0.30126627246289
                 2.797   -0.25563070233011
                0.5215      1.093793361012
 s    1 1.00
                0.1596                   1
 p    3 1.00
                 9.439   0.056979251590039
                 2.002    0.31320721150073
                0.5456    0.76037674173753
 p    1 1.00
                0.1517                   1
 d    1 1.00
                  0.55                   1

17 0
 s    3 1.00
                 13.01   0.033498726389998
                 1.962    0.23480080117413
                0.4446     0.8136829578829
 s    1 1.00
                 0.122                   1
 p    1 1.00
                 0.727                   1

18 0
 s    3 1.00
                 13.01   0.033498726389998
                 1.962    0.23480080117413
                0.4446     0.8136829578829
 s    1 1.00
                 0.122                   1
 p    1 1.00
                 0.727                   1

19 0
 s    8 1.00
                  6665  0.00069158396281299
                  1000  0.0053257961529341
                   228   0.027060721042034
                 64.71    0.10165684614077
                 21.06     0.2745748236174
                 7.495    0.44829431892377
                 2.797    0.28490261071525
                0.5215   0.015194859206082
 s    8 1.00
                  6665  -0.00029326965268655
                  1000  -0.0023180354739745
                   228  -0.011499786038565
                 64.71  -0.046826727009787
                 21.06   -0.12846616875047
                 7.495   -0.30126627246289
                 2.797   -0.25563070233011
                0.5215      1.093793361012
 s    1 1.00
                0.1596                   1
 p    3 1.00
                 9.439   0.056979251590039
                 2.002    0.31320721150073
                0.5456    0.76037674173753
 p    1 1.00
                0.1517                   1
 d    1 1.00
                  0.55                   1

20 0
 s    3 1.00
                 13.01   0.033498726389998
                 1.962    0.23480080117413
                0.4446     0.8136829578829
 s    1 1.00
                 0.122                   1
 p    1 1.00
                 0.727                   1

21 0
 s    8 1.00
                  6665  0.00069158396281299
                  1000  0.0053257961529341
                   228   0.027060721042034
                 64.71    0.10165684614077
                 21.06     0.2745748236174
                 7.495    0.44829431892377
                 2.797    0.28490261071525
                0.5215   0.015194859206082
 s    8 1.00
                  6665  -0.00029326965268655
                  1000  -0.0023180354739745
                   228  -0.011499786038565
                 64.71  -0.046826727009787
                 21.06   -0.12846616875047
                 7.495   -0.30126627246289
                 2.797   -0.25563070233011
                0.5215      1.093793361012
 s    1 1.00
                0.1596                   1
 p    3 1.00
                 9.439   0.056979251590039
                 2.002    0.31320721150073
                0.5456    0.76037674173753
 p    1 1.00
                0.1517                   1
 d    1 1.00
                  0.55                   1

22 0
 s    3 1.00
                 13.01   0.033498726389998
                 1.962    0.23480080117413
                0.4446     0.8136829578829
 s    1 1.00
                 0.122                   1
 p    1 1.00
                 0.727                   1

23 0
 s    3 1.00
                 13.01   0.033498726389998
                 1.962    0.23480080117413
                0.4446     0.8136829578829
 s    1 1.00
                 0.122                   1
 p    1 1.00
                 0.727                   1

24 0
 s    3 1.00
                 13.01   0.033498726389998
                 1.962    0.23480080117413
                0.4446     0.8136829578829
 s    1 1.00
                 0.122                   1
 p    1 1.00
                 0.727                   1

25 0
 s    8 1.00
                  6665  0.00069158396281299
                  1000  0.0053257961529341
                   228   0.027060721042034
                 64.71    0.10165684614077
                 21.06     0.2745748236174
                 7.495    0.44829431892377
                 2.797    0.28490261071525
                0.5215   0.015194859206082
 s    8 1.00
                  6665  -0.00029326965268655
                  1000  -0.0023180354739745
                   228  -0.011499786038565
                 64.71  -0.046826727009787
                 21.06   -0.12846616875047
                 7.495   -0.30126627246289
                 2.797   -0.25563070233011
                0.5215      1.093793361012
 s    1 1.00
                0.1596                   1
 p    3 1.00
                 9.439   0.056979251590039
                 2.002    0.31320721150073
                0.5456    0.76037674173753
 p    1 1.00
                0.1517                   1
 d    1 1.00
                  0.55                   1

26 0
 s    3 1.00
                 13.01   0.033498726389998
                 1.962    0.23480080117413
                0.4446     0.8136829578829
 s    1 1.00
                 0.122                   1
 p    1 1.00
                 0.727                   1

27 0
 s    3 1.00
                 13.01   0.033498726389998
                 1.962    0.23480080117413
                0.4446     0.8136829578829
 s    1 1.00
                 0.122                   1
 p    1 1.00
                 0.727                   1

28 0
 s    8 1.00
                  6665  0.00069158396281299
                  1000  0.0053257961529341
                   228   0.027060721042034
                 64.71    0.10165684614077
                 21.06     0.2745748236174
                 7.495    0.44829431892377
                 2.797    0.28490261071525
                0.5215   0.015194859206082
 s    8 1.00
                  6665  -0.00029326965268655
                  1000  -0.0023180354739745
                   228  -0.011499786038565
                 64.71  -0.046826727009787
                 21.06   -0.12846616875047
                 7.495   -0.30126627246289
                 2.797   -0.25563070233011
                0.5215      1.093793361012
 s    1 1.00
                0.1596                   1
 p    3 1.00
                 9.439   0.056979251590039
                 2.002    0.31320721150073
                0.5456    0.76037674173753
 p    1 1.00
                0.1517                   1
 d    1 1.00
                  0.55                   1

29 0
 s    3 1.00
                 13.01   0.033498726389998
                 1.962    0.23480080117413
                0.4446     0.8136829578829
 s    1 1.00
                 0.122                   1
 p    1 1.00
                 0.727                   1

30 0
 s    3 1.00
                 13.01   0.033498726389998
                 1.962    0.23480080117413
                0.4446     0.8136829578829
 s    1 1.00
                 0.122                   1
 p    1 1.00
                 0.727                   1

31 0
 s    8 1.00
                  6665  0.00069158396281299
                  1000  0.0053257961529341
                   228   0.027060721042034
                 64.71    0.10165684614077
                 21.06     0.2745748236174
                 7.495    0.44829431892377
                 2.797    0.28490261071525
                0.5215   0.015194859206082
 s    8 1.00
                  6665  -0.00029326965268655
                  1000  -0.0023180354739745
                   228  -0.011499786038565
                 64.71  -0.046826727009787
                 21.06   -0.12846616875047
                 7.495   -0.30126627246289
                 2.797   -0.25563070233011
                0.5215      1.093793361012
 s    1 1.00
                0.1596                   1
 p    3 1.00
                 9.439   0.056979251590039
                 2.002    0.31320721150073
                0.5456    0.76037674173753
 p    1 1.00
                0.1517                   1
 d    1 1.00
                  0.55                   1

32 0
 s    3 1.00
                 13.01   0.033498726389998
                 1.962    0.23480080117413
                0.4446     0.8136829578829
 s    1 1.00
                 0.122                   1
 p    1 1.00
                 0.727                   1

33 0
 s    3 1.00
                 13.01   0.033498726389998
                 1.962    0.23480080117413
                0.4446     0.8136829578829
 s    1 1.00
                 0.122                   1
 p    1 1.00
                 0.727                   1

34 0
 s    3 1.00
                 13.01   0.033498726389998
                 1.962    0.23480080117413
                0.4446     0.8136829578829
 s    1 1.00
                 0.122                   1
 p    1 1.00
                 0.727                   1

35 0
 s    3 1.00
                 13.01   0.033498726389998
                 1.962    0.23480080117413
                0.4446     0.8136829578829
 s    1 1.00
                 0.122                   1
 p    1 1.00
                 0.727                   1

36 0
 s    3 1.00
                 13.01   0.033498726389998
                 1.962    0.23480080117413
                0.4446     0.8136829578829
 s    1 1.00
                 0.122                   1
 p    1 1.00
                 0.727                   1

37 0
 s    3 1.00
                 13.01   0.033498726389998
                 1.962    0.23480080117413
                0.4446     0.8136829578829
 s    1 1.00
                 0.122                   1
 p    1 1.00
                 0.727                   1

[5d]
[7f]
[9g]

[MO]
 Sym= A
 Ene=               0
 Spin= Alpha
 Occup=    1.00000
   1    -6.4806924916169e-07
   2    -9.9251019030247e-07
   3    5.5424663449689e-06
   4    -4.9678216009735e-08
   5    3.4385049027218e-07
   6    -7.0947526867025e-07
   7    4.8122933689045e-10
   8    -9.6654728631002e-07
   9    -4.2793972500919e-06
  10    4.9684391133084e-07
  11    2.5364823556127e-09
  12    -5.0482484867883e-08
  13    1.8878835851508e-08
  14    3.2910692121807e-10
  15    1.5608438075273e-07
  16    -1.0175410403383e-05
  17    4.1712552576587e-09
  18    3.8168521489442e-08
  19    -1.6847476185378e-06
  20    -1.5405262989814e-07
  21    3.372485664586e-06
  22    3.3568440603964e-09
  23    -2.0837792086207e-07
  24    8.2641317758555e-08
  25    1.0289704353855e-05
  26    5.9493562154634e-05
  27    -8.7737545126854e-05
  28    4.4301557844328e-05
  29    -0.00034756520575695
  30    -0.00011292331911463
  31    3.4765130912388e-05
  32    -0.00025494130066696
  33    -5.1824092121708e-05
  34    3.8485573808237e-06
  35    4.1859070910499e-06
  36    7.162512743533e-06
  37    -3.5830032036728e-07
  38    -1.6330996949356e-06
  39    -3.275325737536e-06
  40    -0.00016710390519029
  41    0.0001382423951259
  42    -0.00022085259542064
  43    0.00013146252634923
  44    0.00018348214617461
  45    0.00015583354968777
  46    -0.00031926109071428
  47    0.00016302622380472
  48    3.9906104365586e-05
  49    -2.869339007031e-05
  50    -4.0672324092883e-05
  51    1.9079271146981e-05
  52    2.0182710569836e-05
  53    -5.7580898457601e-05
  54    0.00030244025937987
  55    0.0008244120418534
  56    0.00072617676525423
  57    0.00069320439754061
  58    -0.00089175873182676
  59    0.00090234548603375
  60    0.00039543694846803
  61    -0.0010289260904897
  62    2.0490805925694e-05
  63    -4.9861498161756e-05
  64    -8.0155272082845e-05
  65    -2.1067742671072e-06
  66    7.2940656266703e-05
  67    2.2461679079435e-06
  68    -3.7712076830133e-05
  69    0.00020486108292046
  70    -1.4792750259604e-05
  71    -7.4722675847311e-05
  72    9.1170252760995e-05
  73    0.00017815079441758
  74    -6.0393610075147e-05
  75    0.00011531816168625
  76    7.8846163471508e-06
  77    1.6058854062249e-05
  78    -1.0812541672416e-05
  79    -3.9423010924092e-06
  80    1.2967811065937e-06
  81    -0.0002367443710959
  82    -9.0325895148694e-05
  83    9.4578908117759e-06
  84    1.6729380911521e-05
  85    4.4774464987957e-06
  86    -4.0066560557619e-05
  87    5.621410499238e-05
  88    -0.00044530367785713
  89    -0.0004983195455301
  90    -0.0011432456493695
  91    0.00093421638822642
  92    -0.0001701807934741
  93    1.6055926489765e-05
  94    0.00019082459006798
  95    -2.9411286520917e-06
  96    -0.00011157517990039
  97    -9.8862157890109e-05
  98    -2.5854523808842e-05
  99    4.8827919218229e-05
 100    -0.00022515273616538
 101    -0.00015570268889239
 102    -9.7213827649333e-06
 103    1.4621755855525e-05
 104    -1.3023160466822e-05
 105    -3.5086278617841e-05
 106    5.8592373562777e-05
 107    -4.8072527079403e-06
 108    -9.287671923147e-07
 109    3.956684898439e-06
 110    -0.00013344901202723
 111    -1.2431991177278e-05
 112    3.4818837517522e-06
 113    4.5928542536349e-06
 114    -4.7145748619912e-06
 115    0.0044730131891733
 116    2.2588357073119e-05
 117    3.3517757288304e-05
 118    1.0405501999472e-05
 119    -9.7169567158308e-06
 120    7.510186816762e-06
 121    -6.8807902035767e-06
 122    -2.7293827892818e-05
 123    7.7820875963986e-07
 124    -5.7846461116324e-07
 125    -1.8690092964926e-06
 126    5.1853763490521e-06
 127    -1.3926998809542e-06
 128    -6.0262825784407e-06
 129    -0.00052196197013583
 130    -0.00048128408497195
 131    -2.2424018309161e-05
 132    -1.0020411498697e-05
 133    0.0001084705200013
 134    -0.00062982632149547
 135    -0.00056810387414549
 136    -0.00010265727577551
 137    -3.7365712202206e-05
 138    2.8510493007027e-06
 139    -0.098009678726346
 140    -0.0006984631138775
 141    0.0044460048499858
 142    8.1530248944898e-05
 143    -6.3428864400844e-05
 144    -2.9604974192964e-05
 145    0.00095323595738599
 146    0.0011469390916978
 147    -0.0012617866670628
 148    1.9657252106981e-05
 149    5.0234544713043e-06
 150    8.6847133583402e-05
 151    7.7783388517497e-05
 152    -3.5591274166592e-05
 153    4.7076455069548e-06
 154    -2.5153875893788e-05
 155    -7.6339395049216e-07
 156    5.3118658815078e-06
 157    1.0005891048561e-06
 158    2.1790376587319e-06
 159    -2.4610231819214e-05
 160    -1.373749471793e-06
 161    -1.5440691801606e-06
 162    1.1669716557629e-06
 163    -0.0013875528337332
 164    -1.4863683250637e-05
 165    2.9025568282162e-05
 166    -3.4610403707988e-06
 167    1.4216622584457e-06
 168    1.3700358763653e-06
 169    2.8903933463676e-05
 170    3.3201372016573e-06
 171    -1.5849696474153e-05
 172    -7.225831200649e-07
 173    -2.849196933552e-07
 174    2.2876703121146e-06
 175    1.2599311657306e-06
 176    6.0998018735288e-07
 177    -0.0001214390239203
 178    2.0937454785899e-06
 179    -2.288835068568e-05
 180    4.1527034135965e-05
 181    -8.3395376578766e-05
 182      0.99637501449159
 183     0.005123516281319
 184    -0.012201076382148
 185    8.6184207514098e-06
 186    0.00016411963891809
 187    -7.3690152754598e-05
 188    0.00013100235677674
 189    0.0014225005214585
 190    -0.00064214843146227
 191    4.4484279303297e-06
 192    0.00031479258341231
 193    8.4477697662401e-05
 194    -6.1921972877627e-05
 195    7.8942716501347e-06
 196    -0.00013322463392071
 197    2.5858388884511e-06
 198    5.8463037882596e-05
 199    7.4792640644182e-05
 200    9.1329746444162e-06
 201    -2.6162424880084e-06
 202    -2.6151633450293e-06
 203    -1.163328755558e-06
 204    -4.2146905453724e-07
 205    5.2162007542686e-07
 206    -4.9399139181219e-06
 207    -1.7102167619544e-05
 208    -6.9930238213462e-07
 209    1.0242543788359e-06
 210    6.5471249425002e-07
 211    -7.2900638001324e-05
 212    -3.012201972077e-06
 213    2.7206393759605e-06
 214    -1.8132107887336e-06
 215    4.3858991134891e-07
 216    3.3412627019021e-07
 217    1.6187791574783e-05
 218    -1.2796957829533e-05
 219    -3.5515854656842e-06
 220    -2.5259075846882e-07
 221    -5.2036482910226e-07
 222    8.3584007728541e-07
 223    5.7872841142319e-07
 224    -1.2461694705438e-06
 225    0.00019363955045172
 226    0.0011912330703903
 227    0.00020140814599849
 228    0.00030234613963435
 229    0.00025930265922974
 230    0.00018826540125021
 231    0.0012063149800695
 232    -0.00030012168574551
 233    8.4532656737639e-05
 234    -0.00032147276821494
 235     0.053068749300608
 236    0.00019713916762244
 237    0.0022090170476898
 238    -0.00010743519293623
 239    5.8009213003428e-05
 240    6.997364515811e-05
 241    -0.00080686037027951
 242    0.00056896706886595
 243    0.00048261625280965
 244    5.495388126794e-05
 245    0.00011407782332741
 246    -9.2473128134821e-05
 247    -4.3104383811862e-05
 248    0.00015763119067684
 249    -2.0724904425859e-06
 250    1.0986566710477e-05
 251    -8.3377095913006e-07
 252    1.192102253235e-07
 253    -7.5854323488012e-07
 254    -4.3313072958359e-07
 255    2.8324118637216e-06
 256    -4.5138333121719e-07
 257    9.841209623059e-07
 258    -7.438376812245e-07
 259    -2.519580875541e-06
 260    -1.4584994571665e-06
 261    1.1349221592531e-05
 262    3.3174893693197e-07
 263    -1.1272969296134e-07