[Molden Format]
made by pyscf v[2.0.1]
[Atoms] (AU)
O   1   8     0.00000000000000     0.00000000000000     6.40640788651141
H   2   1     0.00000000000000     0.00000000000000     4.58300606461044
H   3   1    -0.05031916615174     1.78353439551780     6.78227958297808
O   4   8     0.00000000000000     0.00000000000000     2.31533471513237
C   5   6     0.00000000000000     0.00000000000000     0.00000000000000
C   6   6     2.01118073026938    -1.40227222164369    -1.50774939176400
C   7   6    -2.01249334291722     1.41331050329955    -1.50319235519811
H   8   1     3.32037363730244    -2.26721897153159    -0.13599698591495
C   9   6     3.45899267434009     0.28739631745591    -3.37437943254505
H   10   1     1.07662969841332    -2.94725144642667    -2.56541439481080
H   11   1    -2.67503415753480     0.18421555839588    -3.06194479365997
H   12   1    -1.08005520873877     3.03851734677796    -2.43674295017013
C   13   6    -4.21607110578555     2.32938802552922     0.11994192435017
H   14   1     4.24440173074564     1.93368664387684    -2.34976285512790
H   15   1     2.18907033049676     1.04714335134846    -4.81494497423699
C   16   6     5.60746363007797    -1.12419643481196    -4.70268606082550
H   17   1    -3.46838323670267     3.50951302338067     1.66946842715333
H   18   1    -5.11873485366228     0.68575958301209     1.04047743976495
C   19   6    -6.18314754751344     3.80909592987882    -1.39656589068747
H   20   1     6.93011263717176    -1.87550812453645    -3.26656317360070
C   21   6     7.10306991577580     0.52877932406334    -6.57829775293605
H   22   1     4.82318879258361    -2.78573437948532    -5.70504560381835
H   23   1    -6.91582688743803     2.61304780074712    -2.95074552451969
H   24   1    -5.26532430573853     5.45420349051338    -2.31005832200284
C   25   6    -8.39941882261433     4.73263980500213     0.21800571437956
H   26   1     7.83338371486801     2.19084139882824    -5.57093109900697
H   27   1     5.73544244039420     1.27376866537418    -8.01071492370229
C   28   6     9.21124858443101    -0.89699110072176    -7.88926949186242
H   29   1    -7.66272760055236     5.92277078003992     1.77035591474408
H   30   1    -9.31497248082589     3.08753015622020     1.12614408368786
C   31   6   -10.35481709231879     6.21833079391143    -1.30905206253246
H   32   1    10.58815905329501    -1.61099162890610    -6.52093739071026
H   33   1    10.23506248045667     0.32468009384095    -9.23072870921204
H   34   1     8.47665842847139    -2.53598436989925    -8.94921964622535
H   35   1    -9.48948872868064     7.90013588951020    -2.18823918416067
H   36   1   -11.93332774482359     6.86460487874102    -0.11255798845995
H   37   1   -11.15126291841033     5.04495968327630    -2.83849898862534
[GTO]
1 0
 s    8 1.00
                 11720  0.00070964594651845
                  1759  0.0054672722921914
                 400.8   0.027823118610189
                 113.7    0.10474773971146
                 37.03    0.28292084635691
                 13.27    0.44849523869833
                 5.025    0.27081688521277
                 1.013    0.01545029160744
 s    8 1.00
                 11720  -0.00031444341168873
                  1759  -0.0024821376810179
                 400.8  -0.012316355381583
                 113.7  -0.050538917343672
                 37.03   -0.13938490331632
                 13.27   -0.32507749481778
                 5.025   -0.22984830758785
                 1.013     1.0953793467883
 s    1 1.00
                0.3023                   1
 p    3 1.00
                  17.7   0.062679166281506
                 3.854    0.33353656587936
                 1.046    0.74123964163973
 p    1 1.00
                0.2753                   1
 d    1 1.00
                 1.185                   1

2 0
 s    3 1.00
                 13.01   0.033498726389998
                 1.962    0.23480080117413
                0.4446     0.8136829578829
 s    1 1.00
                 0.122                   1
 p    1 1.00
                 0.727                   1

3 0
 s    3 1.00
                 13.01   0.033498726389998
                 1.962    0.23480080117413
                0.4446     0.8136829578829
 s    1 1.00
                 0.122                   1
 p    1 1.00
                 0.727                   1

4 0
 s    8 1.00
                 11720  0.00070964594651845
                  1759  0.0054672722921914
                 400.8   0.027823118610189
                 113.7    0.10474773971146
                 37.03    0.28292084635691
                 13.27    0.44849523869833
                 5.025    0.27081688521277
                 1.013    0.01545029160744
 s    8 1.00
                 11720  -0.00031444341168873
                  1759  -0.0024821376810179
                 400.8  -0.012316355381583
                 113.7  -0.050538917343672
                 37.03   -0.13938490331632
                 13.27   -0.32507749481778
                 5.025   -0.22984830758785
                 1.013     1.0953793467883
 s    1 1.00
                0.3023                   1
 p    3 1.00
                  17.7   0.062679166281506
                 3.854    0.33353656587936
                 1.046    0.74123964163973
 p    1 1.00
                0.2753                   1
 d    1 1.00
                 1.185                   1

5 0
 s    8 1.00
                  6665  0.00069158396281299
                  1000  0.0053257961529341
                   228   0.027060721042034
                 64.71    0.10165684614077
                 21.06     0.2745748236174
                 7.495    0.44829431892377
                 2.797    0.28490261071525
                0.5215   0.015194859206082
 s    8 1.00
                  6665  -0.00029326965268655
                  1000  -0.0023180354739745
                   228  -0.011499786038565
                 64.71  -0.046826727009787
                 21.06   -0.12846616875047
                 7.495   -0.30126627246289
                 2.797   -0.25563070233011
                0.5215      1.093793361012
 s    1 1.00
                0.1596                   1
 p    3 1.00
                 9.439   0.056979251590039
                 2.002    0.31320721150073
                0.5456    0.76037674173753
 p    1 1.00
                0.1517                   1
 d    1 1.00
                  0.55                   1

6 0
 s    8 1.00
                  6665  0.00069158396281299
                  1000  0.0053257961529341
                   228   0.027060721042034
                 64.71    0.10165684614077
                 21.06     0.2745748236174
                 7.495    0.44829431892377
                 2.797    0.28490261071525
                0.5215   0.015194859206082
 s    8 1.00
                  6665  -0.00029326965268655
                  1000  -0.0023180354739745
                   228  -0.011499786038565
                 64.71  -0.046826727009787
                 21.06   -0.12846616875047
                 7.495   -0.30126627246289
                 2.797   -0.25563070233011
                0.5215      1.093793361012
 s    1 1.00
                0.1596                   1
 p    3 1.00
                 9.439   0.056979251590039
                 2.002    0.31320721150073
                0.5456    0.76037674173753
 p    1 1.00
                0.1517                   1
 d    1 1.00
                  0.55                   1

7 0
 s    8 1.00
                  6665  0.00069158396281299
                  1000  0.0053257961529341
                   228   0.027060721042034
                 64.71    0.10165684614077
                 21.06     0.2745748236174
                 7.495    0.44829431892377
                 2.797    0.28490261071525
                0.5215   0.015194859206082
 s    8 1.00
                  6665  -0.00029326965268655
                  1000  -0.0023180354739745
                   228  -0.011499786038565
                 64.71  -0.046826727009787
                 21.06   -0.12846616875047
                 7.495   -0.30126627246289
                 2.797   -0.25563070233011
                0.5215      1.093793361012
 s    1 1.00
                0.1596                   1
 p    3 1.00
                 9.439   0.056979251590039
                 2.002    0.31320721150073
                0.5456    0.76037674173753
 p    1 1.00
                0.1517                   1
 d    1 1.00
                  0.55                   1

8 0
 s    3 1.00
                 13.01   0.033498726389998
                 1.962    0.23480080117413
                0.4446     0.8136829578829
 s    1 1.00
                 0.122                   1
 p    1 1.00
                 0.727                   1

9 0
 s    8 1.00
                  6665  0.00069158396281299
                  1000  0.0053257961529341
                   228   0.027060721042034
                 64.71    0.10165684614077
                 21.06     0.2745748236174
                 7.495    0.44829431892377
                 2.797    0.28490261071525
                0.5215   0.015194859206082
 s    8 1.00
                  6665  -0.00029326965268655
                  1000  -0.0023180354739745
                   228  -0.011499786038565
                 64.71  -0.046826727009787
                 21.06   -0.12846616875047
                 7.495   -0.30126627246289
                 2.797   -0.25563070233011
                0.5215      1.093793361012
 s    1 1.00
                0.1596                   1
 p    3 1.00
                 9.439   0.056979251590039
                 2.002    0.31320721150073
                0.5456    0.76037674173753
 p    1 1.00
                0.1517                   1
 d    1 1.00
                  0.55                   1

10 0
 s    3 1.00
                 13.01   0.033498726389998
                 1.962    0.23480080117413
                0.4446     0.8136829578829
 s    1 1.00
                 0.122                   1
 p    1 1.00
                 0.727                   1

11 0
 s    3 1.00
                 13.01   0.033498726389998
                 1.962    0.23480080117413
                0.4446     0.8136829578829
 s    1 1.00
                 0.122                   1
 p    1 1.00
                 0.727                   1

12 0
 s    3 1.00
                 13.01   0.033498726389998
                 1.962    0.23480080117413
                0.4446     0.8136829578829
 s    1 1.00
                 0.122                   1
 p    1 1.00
                 0.727                   1

13 0
 s    8 1.00
                  6665  0.00069158396281299
                  1000  0.0053257961529341
                   228   0.027060721042034
                 64.71    0.10165684614077
                 21.06     0.2745748236174
                 7.495    0.44829431892377
                 2.797    0.28490261071525
                0.5215   0.015194859206082
 s    8 1.00
                  6665  -0.00029326965268655
                  1000  -0.0023180354739745
                   228  -0.011499786038565
                 64.71  -0.046826727009787
                 21.06   -0.12846616875047
                 7.495   -0.30126627246289
                 2.797   -0.25563070233011
                0.5215      1.093793361012
 s    1 1.00
                0.1596                   1
 p    3 1.00
                 9.439   0.056979251590039
                 2.002    0.31320721150073
                0.5456    0.76037674173753
 p    1 1.00
                0.1517                   1
 d    1 1.00
                  0.55                   1

14 0
 s    3 1.00
                 13.01   0.033498726389998
                 1.962    0.23480080117413
                0.4446     0.8136829578829
 s    1 1.00
                 0.122                   1
 p    1 1.00
                 0.727                   1

15 0
 s    3 1.00
                 13.01   0.033498726389998
                 1.962    0.23480080117413
                0.4446     0.8136829578829
 s    1 1.00
                 0.122                   1
 p    1 1.00
                 0.727                   1

16 0
 s    8 1.00
                  6665  0.00069158396281299
                  1000  0.0053257961529341
                   228   0.027060721042034
                 64.71    0.10165684614077
                 21.06     0.2745748236174
                 7.495    0.44829431892377
                 2.797    0.28490261071525
                0.5215   0.015194859206082
 s    8 1.00
                  6665  -0.00029326965268655
                  1000  -0.0023180354739745
                   228  -0.011499786038565
                 64.71  -0.046826727009787
                 21.06   -0.12846616875047
                 7.495   -0.30126627246289
                 2.797   -0.25563070233011
                0.5215      1.093793361012
 s    1 1.00
                0.1596                   1
 p    3 1.00
                 9.439   0.056979251590039
                 2.002    0.31320721150073
                0.5456    0.76037674173753
 p    1 1.00
                0.1517                   1
 d    1 1.00
                  0.55                   1

17 0
 s    3 1.00
                 13.01   0.033498726389998
                 1.962    0.23480080117413
                0.4446     0.8136829578829
 s    1 1.00
                 0.122                   1
 p    1 1.00
                 0.727                   1

18 0
 s    3 1.00
                 13.01   0.033498726389998
                 1.962    0.23480080117413
                0.4446     0.8136829578829
 s    1 1.00
                 0.122                   1
 p    1 1.00
                 0.727                   1

19 0
 s    8 1.00
                  6665  0.00069158396281299
                  1000  0.0053257961529341
                   228   0.027060721042034
                 64.71    0.10165684614077
                 21.06     0.2745748236174
                 7.495    0.44829431892377
                 2.797    0.28490261071525
                0.5215   0.015194859206082
 s    8 1.00
                  6665  -0.00029326965268655
                  1000  -0.0023180354739745
                   228  -0.011499786038565
                 64.71  -0.046826727009787
                 21.06   -0.12846616875047
                 7.495   -0.30126627246289
                 2.797   -0.25563070233011
                0.5215      1.093793361012
 s    1 1.00
                0.1596                   1
 p    3 1.00
                 9.439   0.056979251590039
                 2.002    0.31320721150073
                0.5456    0.76037674173753
 p    1 1.00
                0.1517                   1
 d    1 1.00
                  0.55                   1

20 0
 s    3 1.00
                 13.01   0.033498726389998
                 1.962    0.23480080117413
                0.4446     0.8136829578829
 s    1 1.00
                 0.122                   1
 p    1 1.00
                 0.727                   1

21 0
 s    8 1.00
                  6665  0.00069158396281299
                  1000  0.0053257961529341
                   228   0.027060721042034
                 64.71    0.10165684614077
                 21.06     0.2745748236174
                 7.495    0.44829431892377
                 2.797    0.28490261071525
                0.5215   0.015194859206082
 s    8 1.00
                  6665  -0.00029326965268655
                  1000  -0.0023180354739745
                   228  -0.011499786038565
                 64.71  -0.046826727009787
                 21.06   -0.12846616875047
                 7.495   -0.30126627246289
                 2.797   -0.25563070233011
                0.5215      1.093793361012
 s    1 1.00
                0.1596                   1
 p    3 1.00
                 9.439   0.056979251590039
                 2.002    0.31320721150073
                0.5456    0.76037674173753
 p    1 1.00
                0.1517                   1
 d    1 1.00
                  0.55                   1

22 0
 s    3 1.00
                 13.01   0.033498726389998
                 1.962    0.23480080117413
                0.4446     0.8136829578829
 s    1 1.00
                 0.122                   1
 p    1 1.00
                 0.727                   1

23 0
 s    3 1.00
                 13.01   0.033498726389998
                 1.962    0.23480080117413
                0.4446     0.8136829578829
 s    1 1.00
                 0.122                   1
 p    1 1.00
                 0.727                   1

24 0
 s    3 1.00
                 13.01   0.033498726389998
                 1.962    0.23480080117413
                0.4446     0.8136829578829
 s    1 1.00
                 0.122                   1
 p    1 1.00
                 0.727                   1

25 0
 s    8 1.00
                  6665  0.00069158396281299
                  1000  0.0053257961529341
                   228   0.027060721042034
                 64.71    0.10165684614077
                 21.06     0.2745748236174
                 7.495    0.44829431892377
                 2.797    0.28490261071525
                0.5215   0.015194859206082
 s    8 1.00
                  6665  -0.00029326965268655
                  1000  -0.0023180354739745
                   228  -0.011499786038565
                 64.71  -0.046826727009787
                 21.06   -0.12846616875047
                 7.495   -0.30126627246289
                 2.797   -0.25563070233011
                0.5215      1.093793361012
 s    1 1.00
                0.1596                   1
 p    3 1.00
                 9.439   0.056979251590039
                 2.002    0.31320721150073
                0.5456    0.76037674173753
 p    1 1.00
                0.1517                   1
 d    1 1.00
                  0.55                   1

26 0
 s    3 1.00
                 13.01   0.033498726389998
                 1.962    0.23480080117413
                0.4446     0.8136829578829
 s    1 1.00
                 0.122                   1
 p    1 1.00
                 0.727                   1

27 0
 s    3 1.00
                 13.01   0.033498726389998
                 1.962    0.23480080117413
                0.4446     0.8136829578829
 s    1 1.00
                 0.122                   1
 p    1 1.00
                 0.727                   1

28 0
 s    8 1.00
                  6665  0.00069158396281299
                  1000  0.0053257961529341
                   228   0.027060721042034
                 64.71    0.10165684614077
                 21.06     0.2745748236174
                 7.495    0.44829431892377
                 2.797    0.28490261071525
                0.5215   0.015194859206082
 s    8 1.00
                  6665  -0.00029326965268655
                  1000  -0.0023180354739745
                   228  -0.011499786038565
                 64.71  -0.046826727009787
                 21.06   -0.12846616875047
                 7.495   -0.30126627246289
                 2.797   -0.25563070233011
                0.5215      1.093793361012
 s    1 1.00
                0.1596                   1
 p    3 1.00
                 9.439   0.056979251590039
                 2.002    0.31320721150073
                0.5456    0.76037674173753
 p    1 1.00
                0.1517                   1
 d    1 1.00
                  0.55                   1

29 0
 s    3 1.00
                 13.01   0.033498726389998
                 1.962    0.23480080117413
                0.4446     0.8136829578829
 s    1 1.00
                 0.122                   1
 p    1 1.00
                 0.727                   1

30 0
 s    3 1.00
                 13.01   0.033498726389998
                 1.962    0.23480080117413
                0.4446     0.8136829578829
 s    1 1.00
                 0.122                   1
 p    1 1.00
                 0.727                   1

31 0
 s    8 1.00
                  6665  0.00069158396281299
                  1000  0.0053257961529341
                   228   0.027060721042034
                 64.71    0.10165684614077
                 21.06     0.2745748236174
                 7.495    0.44829431892377
                 2.797    0.28490261071525
                0.5215   0.015194859206082
 s    8 1.00
                  6665  -0.00029326965268655
                  1000  -0.0023180354739745
                   228  -0.011499786038565
                 64.71  -0.046826727009787
                 21.06   -0.12846616875047
                 7.495   -0.30126627246289
                 2.797   -0.25563070233011
                0.5215      1.093793361012
 s    1 1.00
                0.1596                   1
 p    3 1.00
                 9.439   0.056979251590039
                 2.002    0.31320721150073
                0.5456    0.76037674173753
 p    1 1.00
                0.1517                   1
 d    1 1.00
                  0.55                   1

32 0
 s    3 1.00
                 13.01   0.033498726389998
                 1.962    0.23480080117413
                0.4446     0.8136829578829
 s    1 1.00
                 0.122                   1
 p    1 1.00
                 0.727                   1

33 0
 s    3 1.00
                 13.01   0.033498726389998
                 1.962    0.23480080117413
                0.4446     0.8136829578829
 s    1 1.00
                 0.122                   1
 p    1 1.00
                 0.727                   1

34 0
 s    3 1.00
                 13.01   0.033498726389998
                 1.962    0.23480080117413
                0.4446     0.8136829578829
 s    1 1.00
                 0.122                   1
 p    1 1.00
                 0.727                   1

35 0
 s    3 1.00
                 13.01   0.033498726389998
                 1.962    0.23480080117413
                0.4446     0.8136829578829
 s    1 1.00
                 0.122                   1
 p    1 1.00
                 0.727                   1

36 0
 s    3 1.00
                 13.01   0.033498726389998
                 1.962    0.23480080117413
                0.4446     0.8136829578829
 s    1 1.00
                 0.122                   1
 p    1 1.00
                 0.727                   1

37 0
 s    3 1.00
                 13.01   0.033498726389998
                 1.962    0.23480080117413
                0.4446     0.8136829578829
 s    1 1.00
                 0.122                   1
 p    1 1.00
                 0.727                   1

[5d]
[7f]
[9g]

[MO]
 Sym= A
 Ene=               0
 Spin= Alpha
 Occup=    1.00000
   1    -2.5087935832657e-06
   2    -3.6832872161597e-06
   3    2.1719147316807e-05
   4    1.1119789097582e-05
   5    2.4704908638236e-05
   6    -3.206080108999e-05
   7    1.0185233924865e-05
   8    1.2034800275463e-05
   9    -3.2584199101247e-05
  10    3.3117710361219e-07
  11    3.0947241895182e-07
  12    -8.8862212835529e-07
  13    -4.7756889995006e-07
  14    2.8092936172911e-07
  15    -1.3623595660113e-05
  16    -4.6341975950878e-05
  17    5.2569009986876e-06
  18    -7.7683695075477e-06
  19    5.5326175698115e-06
  20    1.7348680503763e-05
  21    2.8064672915412e-07
  22    6.4215958520006e-07
  23    -8.5733538165997e-07
  24    -1.2255449612861e-06
  25    1.190251249892e-05
  26    6.2119073594413e-05
  27    -0.00011459249200601
  28    3.3992348663392e-05
  29    -0.00030696260500396
  30    -0.00010982448112453
  31    2.3357421631573e-05
  32    -0.0002244307111277
  33    -1.1401784748065e-06
  34    6.9697105465748e-07
  35    3.8610601788133e-06
  36    2.3641461717226e-06
  37    -1.2284896879541e-07
  38    -1.6667466494873e-06
  39    -8.5110373108162e-08
  40    -0.00015504525798867
  41    0.00017998680257039
  42    -0.00019620028194925
  43    0.00015280798769213
  44    0.00017838970807275
  45    0.0001751334831823
  46    -0.00029401567619114
  47    0.00020572666816075
  48    4.4975624405417e-05
  49    -3.0119118069018e-05
  50    -3.3175220720024e-05
  51    1.8792576155481e-05
  52    1.8699405926655e-05
  53    -5.6838112534507e-05
  54    0.00028955553301531
  55    0.00083014029691792
  56    0.00068484787094937
  57    0.00066832978746497
  58    -0.00084604358902287
  59    0.00088011809989991
  60    0.00038524226571166
  61    -0.0010286594514231
  62    1.8863749348541e-05
  63    -4.556507148715e-05
  64    -7.6791133891182e-05
  65    -3.8260495912941e-06
  66    7.0258867304253e-05
  67    2.6342166296668e-06
  68    -4.1787817263259e-05
  69    0.00019448608782026
  70    -1.6736195507427e-05
  71    -7.1039744657788e-05
  72    8.1420730450515e-05
  73    0.00017753004585618
  74    -6.5763543263742e-05
  75    9.853398639373e-05
  76    7.2224208995929e-06
  77    1.6754415629809e-05
  78    -9.4110562958915e-06
  79    -2.8492975026776e-06
  80    1.0234370941304e-06
  81    -0.00022606172511472
  82    -7.8337332930325e-05
  83    8.4747274062382e-06
  84    1.6109389226371e-05
  85    5.4715889710417e-06
  86    -3.6897239856103e-05
  87    6.4960334784129e-05
  88    -0.00048617437234141
  89    -0.00044707541959335
  90    -0.0011035380767879
  91    0.00087243988023624
  92    -0.00016133161674505
  93    5.4524520586517e-05
  94    0.00017283014308101
  95    -5.1576705017783e-06
  96    -0.00010711563909644
  97    -9.54940385095e-05
  98    -2.6460676828768e-05
  99    4.4783533490149e-05
 100    -0.00021689462852068
 101    -0.00014494892593099
 102    -1.1819604774935e-05
 103    1.4322073682934e-05
 104    -1.0402145525055e-05
 105    -3.0137920367394e-05
 106    6.0717883399179e-05
 107    -4.6876850227694e-06
 108    -1.0986888471849e-06
 109    4.3168229899942e-06
 110    -0.00013197258339994
 111    -1.3115424366968e-05
 112    2.7474904819279e-06
 113    4.6840141116833e-06
 114    -4.243946813078e-06
 115    0.0044674955994746
 116    2.094367506302e-05
 117    1.9088025583355e-05
 118    7.701127163279e-06
 119    -9.2905302837075e-06
 120    6.5189475720533e-06
 121    -1.0702190308633e-06
 122    -3.3310613949121e-05
 123    -1.7077841175927e-06
 124    -4.1732404506697e-07
 125    -2.121356356274e-06
 126    4.8554777022804e-06
 127    -1.4753808279768e-06
 128    -5.3532567603555e-06
 129    -0.0005014223329995
 130    -0.00047848664226478
 131    -2.0712057220529e-05
 132    -9.9404125025292e-06
 133    0.00010649547502337
 134    -0.00061402115953118
 135    -0.00056038527407771
 136    -0.0001018781934657
 137    -3.646427995914e-05
 138    3.0979171768337e-07
 139    -0.095239021033447
 140    -0.00064576239198734
 141    0.0044761034918092
 142    6.8834273200603e-05
 143    -3.8634456589067e-05
 144    -2.6333474358982e-05
 145    0.00092712958555048
 146    0.0011646858863642
 147    -0.0012657738085082
 148    2.2558185354727e-05
 149    7.7547435621698e-06
 150    8.6849405150173e-05
 151    7.8459976736135e-05
 152    -3.8194173250341e-05
 153    2.6211297191192e-06
 154    -8.8092781911827e-06
 155    -7.9953265991538e-07
 156    4.4907484094268e-06
 157    5.5048848178938e-07
 158    1.1377898535469e-06
 159    -2.2769855553769e-05
 160    -1.7520070081825e-06
 161    -1.3936636571999e-06
 162    1.2648868740838e-06
 163    -0.0015701105007989
 164    -1.6485283188344e-05
 165    3.964892692827e-05
 166    -3.3866069795542e-06
 167    1.2880394913252e-06
 168    1.4442636198881e-06
 169    3.1764723584778e-05
 170    -1.1070913660948e-06
 171    -1.4210729498177e-05
 172    -7.2302676815097e-07
 173    -1.0914245982612e-07
 174    2.1145936593684e-06
 175    1.347361540437e-06
 176    2.2293447602705e-07
 177    -0.00011952347188862
 178    2.0950991482599e-05
 179    -1.9990228324618e-05
 180    4.0247236494661e-05
 181    -8.1824582485722e-05
 182      0.99743045622157
 183    0.0051259474474105
 184    -0.012255922644418
 185    -5.7731528951194e-06
 186    0.00015940836744254
 187    -5.5817044446347e-05
 188    0.00020896122900241
 189    0.0014538189281804
 190    -0.00060300553467783
 191    -1.1883444731473e-05
 192    0.00029370961614378
 193    0.00012986212143336
 194    -6.435217783651e-05
 195    -1.4482960758173e-05
 196    -0.00013426840991407
 197    -6.0111317332944e-06
 198    5.6538533292716e-05
 199    6.7772177348291e-05
 200    1.3280273355805e-05
 201    -3.2223023117566e-06
 202    -4.3977647384799e-06
 203    -1.2994809953406e-06
 204    -3.2106004241456e-07
 205    4.9205792796425e-07
 206    -4.9391522492967e-06
 207    -1.6706333786739e-05
 208    -8.683849637234e-07
 209    1.0603548713977e-06
 210    7.8347602661887e-07
 211    -6.1202490117786e-05
 212    -3.1743406455607e-06
 213    5.2770670382688e-06
 214    -1.5201731656014e-06
 215    3.4388655703801e-07
 216    2.8091980021187e-07
 217    1.5781161921315e-05
 218    -1.0841629371238e-05
 219    -2.3933981930977e-06
 220    -2.2747695689396e-07
 221    -4.071918167018e-07
 222    8.2371392347798e-07
 223    6.0601406475009e-07
 224    -1.1570673374789e-06
 225    0.00017054767833234
 226     0.001186976640936
 227    0.00019754570344449
 228    0.00030449881372923
 229    0.0002574283999819
 230    0.0002332068900829
 231     0.001199080401546
 232    -0.00029807491929306
 233    8.0592809591721e-05
 234    -0.00031983651970357
 235     0.035264833311367
 236    0.00010086702037094
 237    0.0023765807287225
 238    -9.6088181052988e-05
 239    5.3663859358173e-05
 240    6.5624054793298e-05
 241    -0.00084057588892822
 242    0.00057106659709805
 243    0.00048697761989735
 244    5.2024401352333e-05
 245    0.00011297605465445
 246    -9.4442662480597e-05
 247    -4.1408697819114e-05
 248    0.00015092827703073
 249    -1.9604212510228e-06
 250    6.984662125117e-06
 251    -7.6049986463769e-07
 252    2.7191100554045e-07
 253    -5.0742982415042e-07
 254    -4.2530966691835e-07
 255    3.0492092132174e-06
 256    -4.1492494810588e-07
 257    9.014549947445e-07
 258    -7.2152036866636e-07
 259    -1.9270107205415e-06
 260    -1.6084253401557e-06
 261    1.0421316408326e-05
 262    1.328340441892e-07
 263    -2.7538879703715e-08