[Molden Format]
made by pyscf v[2.0.1]
[Atoms] (AU)
O   1   8     0.00000000000000     0.00000000000000     7.16229833633744
H   2   1     0.00000000000000     0.00000000000000     5.33889651443647
H   3   1    -0.05031916615174     1.78353065140343     7.53817003280410
O   4   8     0.00000000000000     0.00000000000000     2.31533471513237
C   5   6     0.00000000000000     0.00000000000000     0.00000000000000
C   6   6     2.01118073026938    -1.40227222164369    -1.50774939176400
C   7   6    -2.01249334291722     1.41331050329955    -1.50315905028694
H   8   1     3.32037363730244    -2.26721897153159    -0.13599698591495
C   9   6     3.45899267434009     0.28739631745591    -3.37437943254505
H   10   1     1.07662969841332    -2.94725144642667    -2.56541439481080
H   11   1    -2.67503415753480     0.18421555839588    -3.06194479365997
H   12   1    -1.07974048864772     3.03851734677796    -2.43674295017013
C   13   6    -4.21607110578555     2.32938802552922     0.11994162256091
H   14   1     4.24440173074564     1.93368664142019    -2.34976285512790
H   15   1     2.15020713235517     1.04714335134846    -4.81494497423699
C   16   6     5.60746363007797    -1.12419643481196    -4.70268606082550
H   17   1    -3.46838323670267     3.50951302338067     1.66946842715333
H   18   1    -5.11873485366228     0.68575958301209     1.04047743976495
C   19   6    -6.18314754751344     3.80909592987882    -1.39656589068747
H   20   1     6.93011263717176    -1.87550812453645    -3.26656317360070
C   21   6     7.06356622236532     0.52877932406334    -6.57829775293605
H   22   1     4.82318879258361    -2.78573437948532    -5.70504560381835
H   23   1    -6.91582688743803     2.61304780074712    -2.95074552451969
H   24   1    -5.26532430573853     5.45420349051338    -2.31005832200284
C   25   6    -8.39941882261433     4.73263980500213     0.21800571437956
H   26   1     7.83338371486801     2.19084139882824    -5.57093109900697
H   27   1     5.73544244039420     1.27376866537418    -8.01071492370229
C   28   6     9.21124858443101    -0.89699110072176    -7.88926949186242
H   29   1    -7.66272760055236     5.92277078003992     1.77035591474408
H   30   1    -9.31497248082589     3.08753015622020     1.12614408368786
C   31   6   -10.35481709231879     6.21833079391143    -1.30905206253246
H   32   1    10.58815905329501    -1.61074586756696    -6.49512691622620
H   33   1    10.23506248045667     0.32468009384095    -9.23072870921204
H   34   1     8.47665842847139    -2.53598436989925    -8.94921964622535
H   35   1    -9.48948872868064     7.90013588951020    -2.18823918416067
H   36   1   -11.93332513000955     6.86460487874102    -0.11255798845995
H   37   1   -11.15126291841033     5.04495968327630    -2.83849898862534
[GTO]
1 0
 s    8 1.00
                 11720  0.00070964594651845
                  1759  0.0054672722921914
                 400.8   0.027823118610189
                 113.7    0.10474773971146
                 37.03    0.28292084635691
                 13.27    0.44849523869833
                 5.025    0.27081688521277
                 1.013    0.01545029160744
 s    8 1.00
                 11720  -0.00031444341168873
                  1759  -0.0024821376810179
                 400.8  -0.012316355381583
                 113.7  -0.050538917343672
                 37.03   -0.13938490331632
                 13.27   -0.32507749481778
                 5.025   -0.22984830758785
                 1.013     1.0953793467883
 s    1 1.00
                0.3023                   1
 p    3 1.00
                  17.7   0.062679166281506
                 3.854    0.33353656587936
                 1.046    0.74123964163973
 p    1 1.00
                0.2753                   1
 d    1 1.00
                 1.185                   1

2 0
 s    3 1.00
                 13.01   0.033498726389998
                 1.962    0.23480080117413
                0.4446     0.8136829578829
 s    1 1.00
                 0.122                   1
 p    1 1.00
                 0.727                   1

3 0
 s    3 1.00
                 13.01   0.033498726389998
                 1.962    0.23480080117413
                0.4446     0.8136829578829
 s    1 1.00
                 0.122                   1
 p    1 1.00
                 0.727                   1

4 0
 s    8 1.00
                 11720  0.00070964594651845
                  1759  0.0054672722921914
                 400.8   0.027823118610189
                 113.7    0.10474773971146
                 37.03    0.28292084635691
                 13.27    0.44849523869833
                 5.025    0.27081688521277
                 1.013    0.01545029160744
 s    8 1.00
                 11720  -0.00031444341168873
                  1759  -0.0024821376810179
                 400.8  -0.012316355381583
                 113.7  -0.050538917343672
                 37.03   -0.13938490331632
                 13.27   -0.32507749481778
                 5.025   -0.22984830758785
                 1.013     1.0953793467883
 s    1 1.00
                0.3023                   1
 p    3 1.00
                  17.7   0.062679166281506
                 3.854    0.33353656587936
                 1.046    0.74123964163973
 p    1 1.00
                0.2753                   1
 d    1 1.00
                 1.185                   1

5 0
 s    8 1.00
                  6665  0.00069158396281299
                  1000  0.0053257961529341
                   228   0.027060721042034
                 64.71    0.10165684614077
                 21.06     0.2745748236174
                 7.495    0.44829431892377
                 2.797    0.28490261071525
                0.5215   0.015194859206082
 s    8 1.00
                  6665  -0.00029326965268655
                  1000  -0.0023180354739745
                   228  -0.011499786038565
                 64.71  -0.046826727009787
                 21.06   -0.12846616875047
                 7.495   -0.30126627246289
                 2.797   -0.25563070233011
                0.5215      1.093793361012
 s    1 1.00
                0.1596                   1
 p    3 1.00
                 9.439   0.056979251590039
                 2.002    0.31320721150073
                0.5456    0.76037674173753
 p    1 1.00
                0.1517                   1
 d    1 1.00
                  0.55                   1

6 0
 s    8 1.00
                  6665  0.00069158396281299
                  1000  0.0053257961529341
                   228   0.027060721042034
                 64.71    0.10165684614077
                 21.06     0.2745748236174
                 7.495    0.44829431892377
                 2.797    0.28490261071525
                0.5215   0.015194859206082
 s    8 1.00
                  6665  -0.00029326965268655
                  1000  -0.0023180354739745
                   228  -0.011499786038565
                 64.71  -0.046826727009787
                 21.06   -0.12846616875047
                 7.495   -0.30126627246289
                 2.797   -0.25563070233011
                0.5215      1.093793361012
 s    1 1.00
                0.1596                   1
 p    3 1.00
                 9.439   0.056979251590039
                 2.002    0.31320721150073
                0.5456    0.76037674173753
 p    1 1.00
                0.1517                   1
 d    1 1.00
                  0.55                   1

7 0
 s    8 1.00
                  6665  0.00069158396281299
                  1000  0.0053257961529341
                   228   0.027060721042034
                 64.71    0.10165684614077
                 21.06     0.2745748236174
                 7.495    0.44829431892377
                 2.797    0.28490261071525
                0.5215   0.015194859206082
 s    8 1.00
                  6665  -0.00029326965268655
                  1000  -0.0023180354739745
                   228  -0.011499786038565
                 64.71  -0.046826727009787
                 21.06   -0.12846616875047
                 7.495   -0.30126627246289
                 2.797   -0.25563070233011
                0.5215      1.093793361012
 s    1 1.00
                0.1596                   1
 p    3 1.00
                 9.439   0.056979251590039
                 2.002    0.31320721150073
                0.5456    0.76037674173753
 p    1 1.00
                0.1517                   1
 d    1 1.00
                  0.55                   1

8 0
 s    3 1.00
                 13.01   0.033498726389998
                 1.962    0.23480080117413
                0.4446     0.8136829578829
 s    1 1.00
                 0.122                   1
 p    1 1.00
                 0.727                   1

9 0
 s    8 1.00
                  6665  0.00069158396281299
                  1000  0.0053257961529341
                   228   0.027060721042034
                 64.71    0.10165684614077
                 21.06     0.2745748236174
                 7.495    0.44829431892377
                 2.797    0.28490261071525
                0.5215   0.015194859206082
 s    8 1.00
                  6665  -0.00029326965268655
                  1000  -0.0023180354739745
                   228  -0.011499786038565
                 64.71  -0.046826727009787
                 21.06   -0.12846616875047
                 7.495   -0.30126627246289
                 2.797   -0.25563070233011
                0.5215      1.093793361012
 s    1 1.00
                0.1596                   1
 p    3 1.00
                 9.439   0.056979251590039
                 2.002    0.31320721150073
                0.5456    0.76037674173753
 p    1 1.00
                0.1517                   1
 d    1 1.00
                  0.55                   1

10 0
 s    3 1.00
                 13.01   0.033498726389998
                 1.962    0.23480080117413
                0.4446     0.8136829578829
 s    1 1.00
                 0.122                   1
 p    1 1.00
                 0.727                   1

11 0
 s    3 1.00
                 13.01   0.033498726389998
                 1.962    0.23480080117413
                0.4446     0.8136829578829
 s    1 1.00
                 0.122                   1
 p    1 1.00
                 0.727                   1

12 0
 s    3 1.00
                 13.01   0.033498726389998
                 1.962    0.23480080117413
                0.4446     0.8136829578829
 s    1 1.00
                 0.122                   1
 p    1 1.00
                 0.727                   1

13 0
 s    8 1.00
                  6665  0.00069158396281299
                  1000  0.0053257961529341
                   228   0.027060721042034
                 64.71    0.10165684614077
                 21.06     0.2745748236174
                 7.495    0.44829431892377
                 2.797    0.28490261071525
                0.5215   0.015194859206082
 s    8 1.00
                  6665  -0.00029326965268655
                  1000  -0.0023180354739745
                   228  -0.011499786038565
                 64.71  -0.046826727009787
                 21.06   -0.12846616875047
                 7.495   -0.30126627246289
                 2.797   -0.25563070233011
                0.5215      1.093793361012
 s    1 1.00
                0.1596                   1
 p    3 1.00
                 9.439   0.056979251590039
                 2.002    0.31320721150073
                0.5456    0.76037674173753
 p    1 1.00
                0.1517                   1
 d    1 1.00
                  0.55                   1

14 0
 s    3 1.00
                 13.01   0.033498726389998
                 1.962    0.23480080117413
                0.4446     0.8136829578829
 s    1 1.00
                 0.122                   1
 p    1 1.00
                 0.727                   1

15 0
 s    3 1.00
                 13.01   0.033498726389998
                 1.962    0.23480080117413
                0.4446     0.8136829578829
 s    1 1.00
                 0.122                   1
 p    1 1.00
                 0.727                   1

16 0
 s    8 1.00
                  6665  0.00069158396281299
                  1000  0.0053257961529341
                   228   0.027060721042034
                 64.71    0.10165684614077
                 21.06     0.2745748236174
                 7.495    0.44829431892377
                 2.797    0.28490261071525
                0.5215   0.015194859206082
 s    8 1.00
                  6665  -0.00029326965268655
                  1000  -0.0023180354739745
                   228  -0.011499786038565
                 64.71  -0.046826727009787
                 21.06   -0.12846616875047
                 7.495   -0.30126627246289
                 2.797   -0.25563070233011
                0.5215      1.093793361012
 s    1 1.00
                0.1596                   1
 p    3 1.00
                 9.439   0.056979251590039
                 2.002    0.31320721150073
                0.5456    0.76037674173753
 p    1 1.00
                0.1517                   1
 d    1 1.00
                  0.55                   1

17 0
 s    3 1.00
                 13.01   0.033498726389998
                 1.962    0.23480080117413
                0.4446     0.8136829578829
 s    1 1.00
                 0.122                   1
 p    1 1.00
                 0.727                   1

18 0
 s    3 1.00
                 13.01   0.033498726389998
                 1.962    0.23480080117413
                0.4446     0.8136829578829
 s    1 1.00
                 0.122                   1
 p    1 1.00
                 0.727                   1

19 0
 s    8 1.00
                  6665  0.00069158396281299
                  1000  0.0053257961529341
                   228   0.027060721042034
                 64.71    0.10165684614077
                 21.06     0.2745748236174
                 7.495    0.44829431892377
                 2.797    0.28490261071525
                0.5215   0.015194859206082
 s    8 1.00
                  6665  -0.00029326965268655
                  1000  -0.0023180354739745
                   228  -0.011499786038565
                 64.71  -0.046826727009787
                 21.06   -0.12846616875047
                 7.495   -0.30126627246289
                 2.797   -0.25563070233011
                0.5215      1.093793361012
 s    1 1.00
                0.1596                   1
 p    3 1.00
                 9.439   0.056979251590039
                 2.002    0.31320721150073
                0.5456    0.76037674173753
 p    1 1.00
                0.1517                   1
 d    1 1.00
                  0.55                   1

20 0
 s    3 1.00
                 13.01   0.033498726389998
                 1.962    0.23480080117413
                0.4446     0.8136829578829
 s    1 1.00
                 0.122                   1
 p    1 1.00
                 0.727                   1

21 0
 s    8 1.00
                  6665  0.00069158396281299
                  1000  0.0053257961529341
                   228   0.027060721042034
                 64.71    0.10165684614077
                 21.06     0.2745748236174
                 7.495    0.44829431892377
                 2.797    0.28490261071525
                0.5215   0.015194859206082
 s    8 1.00
                  6665  -0.00029326965268655
                  1000  -0.0023180354739745
                   228  -0.011499786038565
                 64.71  -0.046826727009787
                 21.06   -0.12846616875047
                 7.495   -0.30126627246289
                 2.797   -0.25563070233011
                0.5215      1.093793361012
 s    1 1.00
                0.1596                   1
 p    3 1.00
                 9.439   0.056979251590039
                 2.002    0.31320721150073
                0.5456    0.76037674173753
 p    1 1.00
                0.1517                   1
 d    1 1.00
                  0.55                   1

22 0
 s    3 1.00
                 13.01   0.033498726389998
                 1.962    0.23480080117413
                0.4446     0.8136829578829
 s    1 1.00
                 0.122                   1
 p    1 1.00
                 0.727                   1

23 0
 s    3 1.00
                 13.01   0.033498726389998
                 1.962    0.23480080117413
                0.4446     0.8136829578829
 s    1 1.00
                 0.122                   1
 p    1 1.00
                 0.727                   1

24 0
 s    3 1.00
                 13.01   0.033498726389998
                 1.962    0.23480080117413
                0.4446     0.8136829578829
 s    1 1.00
                 0.122                   1
 p    1 1.00
                 0.727                   1

25 0
 s    8 1.00
                  6665  0.00069158396281299
                  1000  0.0053257961529341
                   228   0.027060721042034
                 64.71    0.10165684614077
                 21.06     0.2745748236174
                 7.495    0.44829431892377
                 2.797    0.28490261071525
                0.5215   0.015194859206082
 s    8 1.00
                  6665  -0.00029326965268655
                  1000  -0.0023180354739745
                   228  -0.011499786038565
                 64.71  -0.046826727009787
                 21.06   -0.12846616875047
                 7.495   -0.30126627246289
                 2.797   -0.25563070233011
                0.5215      1.093793361012
 s    1 1.00
                0.1596                   1
 p    3 1.00
                 9.439   0.056979251590039
                 2.002    0.31320721150073
                0.5456    0.76037674173753
 p    1 1.00
                0.1517                   1
 d    1 1.00
                  0.55                   1

26 0
 s    3 1.00
                 13.01   0.033498726389998
                 1.962    0.23480080117413
                0.4446     0.8136829578829
 s    1 1.00
                 0.122                   1
 p    1 1.00
                 0.727                   1

27 0
 s    3 1.00
                 13.01   0.033498726389998
                 1.962    0.23480080117413
                0.4446     0.8136829578829
 s    1 1.00
                 0.122                   1
 p    1 1.00
                 0.727                   1

28 0
 s    8 1.00
                  6665  0.00069158396281299
                  1000  0.0053257961529341
                   228   0.027060721042034
                 64.71    0.10165684614077
                 21.06     0.2745748236174
                 7.495    0.44829431892377
                 2.797    0.28490261071525
                0.5215   0.015194859206082
 s    8 1.00
                  6665  -0.00029326965268655
                  1000  -0.0023180354739745
                   228  -0.011499786038565
                 64.71  -0.046826727009787
                 21.06   -0.12846616875047
                 7.495   -0.30126627246289
                 2.797   -0.25563070233011
                0.5215      1.093793361012
 s    1 1.00
                0.1596                   1
 p    3 1.00
                 9.439   0.056979251590039
                 2.002    0.31320721150073
                0.5456    0.76037674173753
 p    1 1.00
                0.1517                   1
 d    1 1.00
                  0.55                   1

29 0
 s    3 1.00
                 13.01   0.033498726389998
                 1.962    0.23480080117413
                0.4446     0.8136829578829
 s    1 1.00
                 0.122                   1
 p    1 1.00
                 0.727                   1

30 0
 s    3 1.00
                 13.01   0.033498726389998
                 1.962    0.23480080117413
                0.4446     0.8136829578829
 s    1 1.00
                 0.122                   1
 p    1 1.00
                 0.727                   1

31 0
 s    8 1.00
                  6665  0.00069158396281299
                  1000  0.0053257961529341
                   228   0.027060721042034
                 64.71    0.10165684614077
                 21.06     0.2745748236174
                 7.495    0.44829431892377
                 2.797    0.28490261071525
                0.5215   0.015194859206082
 s    8 1.00
                  6665  -0.00029326965268655
                  1000  -0.0023180354739745
                   228  -0.011499786038565
                 64.71  -0.046826727009787
                 21.06   -0.12846616875047
                 7.495   -0.30126627246289
                 2.797   -0.25563070233011
                0.5215      1.093793361012
 s    1 1.00
                0.1596                   1
 p    3 1.00
                 9.439   0.056979251590039
                 2.002    0.31320721150073
                0.5456    0.76037674173753
 p    1 1.00
                0.1517                   1
 d    1 1.00
                  0.55                   1

32 0
 s    3 1.00
                 13.01   0.033498726389998
                 1.962    0.23480080117413
                0.4446     0.8136829578829
 s    1 1.00
                 0.122                   1
 p    1 1.00
                 0.727                   1

33 0
 s    3 1.00
                 13.01   0.033498726389998
                 1.962    0.23480080117413
                0.4446     0.8136829578829
 s    1 1.00
                 0.122                   1
 p    1 1.00
                 0.727                   1

34 0
 s    3 1.00
                 13.01   0.033498726389998
                 1.962    0.23480080117413
                0.4446     0.8136829578829
 s    1 1.00
                 0.122                   1
 p    1 1.00
                 0.727                   1

35 0
 s    3 1.00
                 13.01   0.033498726389998
                 1.962    0.23480080117413
                0.4446     0.8136829578829
 s    1 1.00
                 0.122                   1
 p    1 1.00
                 0.727                   1

36 0
 s    3 1.00
                 13.01   0.033498726389998
                 1.962    0.23480080117413
                0.4446     0.8136829578829
 s    1 1.00
                 0.122                   1
 p    1 1.00
                 0.727                   1

37 0
 s    3 1.00
                 13.01   0.033498726389998
                 1.962    0.23480080117413
                0.4446     0.8136829578829
 s    1 1.00
                 0.122                   1
 p    1 1.00
                 0.727                   1

[5d]
[7f]
[9g]

[MO]
 Sym= A
 Ene=               0
 Spin= Alpha
 Occup=    1.00000
   1    7.8838105561057e-05
   2    1.0669357034583e-05
   3    -3.5981214411901e-05
   4    -9.3362693115674e-07
   5    -2.3520980554401e-06
   6    -8.6677025266718e-06
   7    1.1767047319833e-06
   8    1.8066611723489e-05
   9    -2.9091497652793e-05
  10    1.5633989780714e-05
  11    3.1482334033764e-07
  12    -2.9239715459893e-06
  13    -2.9266759875866e-06
  14    -9.4927580787032e-08
  15    3.652379978629e-05
  16    0.00018882399886141
  17    1.4374385833698e-06
  18    -4.1236346742764e-06
  19    -3.4996464923141e-05
  20    -1.3616320837269e-05
  21    -1.9867683295459e-05
  22    -1.8421813499604e-07
  23    -3.9933683927772e-06
  24    9.3845195637102e-06
  25      -1.0014025573812
  26    -0.0020682133092132
  27    0.0070507271105947
  28    3.6464338169917e-06
  29    -1.4006042027805e-05
  30    0.0015975498991265
  31    -3.1196942377904e-06
  32    6.0080633417331e-06
  33    -0.0020606223992584
  34    -0.00010854963349633
  35    2.9167655430349e-06
  36    -1.5200604749715e-06
  37    -6.3780246673475e-05
  38    0.00016645856276227
  39    -0.00029802256585096
  40    -0.0004207801109355
  41    -0.0016244593769081
  42    -2.4008258601668e-05
  43    1.5403433393035e-05
  44    -4.971067065702e-05
  45    -8.5949811014915e-05
  46    6.8733129679104e-05
  47    -0.0037759518223618
  48    0.00048455976986878
  49    7.5292718646652e-06
  50    -1.9614071971544e-06
  51    -3.1248705679233e-05
  52    0.00011426072466384
  53    8.3277391579429e-05
  54    0.00016233229717727
  55    -0.0014079351856262
  56    -7.9047143139668e-05
  57    6.0468831786949e-06
  58    3.2940648872243e-05
  59    0.00043424164221005
  60    -0.00049007123545283
  61    0.0010034068699579
  62    0.00011466191607163
  63    -0.00014947857423187
  64    0.00014359117278924
  65    -5.4260410346509e-05
  66    0.00012524110819304
  67    4.1527737769358e-05
  68    9.8833381029233e-05
  69    -0.00051916349778229
  70    5.4048079864984e-05
  71    -4.0657606830596e-05
  72    6.3623469150691e-05
  73    -0.001027277755201
  74    0.00078703657466201
  75    0.00068385194052255
  76    0.00013318497319696
  77    0.00012578325799672
  78     -9.2495632531e-05
  79    -5.5786960943733e-05
  80    0.00014554888687405
  81    5.6909681175673e-05
  82    -0.00022248369883043
  83    -6.7705242085405e-05
  84    4.9725061020935e-05
  85    -4.6175312660324e-05
  86    -2.7485157994707e-05
  87    -5.3461779492702e-05
  88    0.00062973299888543
  89    8.7918268670979e-06
  90    2.2702468746109e-05
  91    -7.7334431283612e-06
  92    -0.00026926242457539
  93    -0.00065993614150532
  94    1.0917803747286e-05
  95    -2.0439923271824e-05
  96    -1.0973118270026e-05
  97    -7.9552692124859e-06
  98    1.8321239442437e-05
  99    4.8879972419818e-05
 100    4.2536423871598e-05
 101    0.00017038480296025
 102    -4.9652820025566e-06
 103    1.1045012954913e-05
 104    -7.8954739742967e-05
 105    1.416613060671e-05
 106    0.00019658407968863
 107    6.3484771221269e-05
 108    -6.2880758004895e-06
 109    -7.7542810720676e-05
 110    -8.4023867150882e-05
 111    6.3744873745501e-05
 112    4.3204268109514e-05
 113    -2.0798573764308e-05
 114    -7.2527015559595e-05
 115    0.00017739848915689
 116    7.2238334485913e-05
 117    -0.00087512714946762
 118    -4.0524551749922e-05
 119    4.0365508195357e-05
 120    -0.00017263550131586
 121    -0.000311891467985
 122    -2.9315952065175e-05
 123    9.4002020726308e-05
 124    4.711785386388e-06
 125    -9.4774993692575e-06
 126    -2.0427226484416e-05
 127    3.527867333898e-05
 128    -6.0055302928987e-05
 129    2.1856107301849e-05
 130    0.00034755988568419
 131    -8.7805020860583e-06
 132    -5.7895540843651e-06
 133    -2.9882847875674e-05
 134    -2.1659300759464e-05
 135    0.00012076646703439
 136    1.4018020345956e-05
 137    2.6026679653951e-05
 138    2.7938688760585e-05
 139    5.314564688204e-05
 140    7.7348647539666e-05
 141    -0.00029454612454807
 142    9.9094061496462e-06
 143    -3.4755490688271e-05
 144    1.6586132614445e-05
 145    0.00024110372917054
 146    -8.2443809545954e-05
 147    -5.4272445741145e-05
 148    3.1250559420159e-06
 149    -4.9944649779518e-07
 150    4.6058570842029e-06
 151    -1.3680972831572e-05
 152    4.9322536285908e-06
 153    -1.6704167043973e-05
 154    4.9979321647074e-05
 155    2.9209187758545e-05
 156    -2.0900213207733e-05
 157    -1.4683971170447e-05
 158    -3.6169028538848e-05
 159    6.7393897304512e-05
 160    5.4744532904848e-05
 161    3.2085468536555e-06
 162    -8.0092357323827e-06
 163    -6.7147578350192e-05
 164    -1.1972126627731e-05
 165    0.00027388278615011
 166    0.00011927545019051
 167    -6.1933466946874e-05
 168    5.4033212547656e-05
 169    -0.00018002074251872
 170    0.00018460726436411
 171    0.00017595917416623
 172    -1.6649844733154e-06
 173    -7.1196055528801e-06
 174    9.0281319589789e-06
 175    -2.4081802650716e-06
 176    1.2287721081028e-05
 177    6.5316956357078e-05
 178    -7.0951144577058e-05
 179    -1.3956271477888e-06
 180    -6.3240945000899e-07
 181    1.3392413082676e-06
 182    -1.8491296163562e-05
 183    -2.900081812342e-05
 184    8.2217223046367e-05
 185    -4.6744876009533e-06
 186    5.2586621880315e-06
 187    -9.0905884548317e-06
 188    -0.00013777946482548
 189    0.00010823261801163
 190    9.291522264894e-05
 191    -6.8642905507104e-07
 192    -1.205834327034e-06
 193    5.5977645645023e-06
 194    1.8181200581509e-06
 195    6.766970757614e-06
 196    4.7462882282626e-05
 197    2.8702050096802e-05
 198    -3.6967228440165e-06
 199    1.4018394732158e-07
 200    5.4221371484031e-06
 201    -5.0056748549694e-05
 202    -3.3087601713927e-05
 203    1.3611518265236e-05
 204    -1.3861077701633e-05
 205    -1.4135869338247e-05
 206    -3.5985923734154e-05
 207    -8.1118038422644e-05
 208    1.9611637181324e-05
 209    -2.4835656949464e-06
 210    -1.5361026695307e-05
 211    1.2248623159951e-05
 212    1.3302647619069e-05
 213    -0.00028019435778659
 214    -4.3047522020762e-05
 215    2.3905693357962e-05
 216    2.5665099609929e-05
 217    -0.00021537515562582
 218    6.4686594358311e-05
 219    8.7796726288358e-05
 220    -1.1745672872829e-06
 221    2.2482598983739e-05
 222    -8.4703235226829e-06
 223    -9.670660816257e-06
 224    1.196157539854e-06
 225    -2.4124414017555e-05
 226    -5.611404332449e-05
 227    1.2380849353449e-05
 228    2.3791595792329e-06
 229    5.7002876015979e-07
 230    2.9711112747694e-06
 231    -4.5845716932764e-05
 232    4.6275724401785e-06
 233    -6.6934406785396e-06
 234    -1.168486798198e-05
 235    1.2821740645413e-07
 236    -6.8620061676578e-06
 237    7.3640480769992e-05
 238    5.6891209466122e-06
 239    -4.0140693873831e-06
 240    -1.425283133669e-06
 241    -3.3433025588707e-05
 242    6.3248106446086e-05
 243    -2.1202918971016e-05
 244    -2.2478090072958e-06
 245    -1.4513452608475e-06
 246    1.4250431809282e-06
 247    -3.1122029326763e-07
 248    -1.0000325110977e-06
 249    1.5795583865976e-05
 250    -1.342797893617e-05
 251    3.2927895048784e-06
 252    1.5813320022876e-06
 253    3.5037214355032e-07
 254    1.2295814146763e-05
 255    -5.7222223897177e-05
 256    -1.5299352501687e-06
 257    -4.2355756690642e-06
 258    1.3918173143592e-06
 259    8.2765397085709e-06
 260    2.9130753500002e-05
 261    -5.6288427727958e-05
 262    2.1495362515359e-05