[Molden Format]
made by pyscf v[2.0.1]
[Atoms] (AU)
O   1   8     0.00000000000000     0.00000000000000     7.91818878616346
H   2   1     0.00000000000000     0.00000000000000     6.09478696426249
H   3   1    -0.05031916615174     1.78353065140343     8.29406048263013
O   4   8     0.00000000000000     0.00000000000000     2.31533471513237
C   5   6     0.00000000000000     0.00000000000000     0.00000000000000
C   6   6     2.01118073026938    -1.40227222164369    -1.50774939176400
C   7   6    -2.01249334291722     1.41331050329955    -1.50315905028694
H   8   1     3.32037363730244    -2.26721897153159    -0.13599698591495
C   9   6     3.45899267434009     0.28739631745591    -3.37437943254505
H   10   1     1.07662969841332    -2.94725144642667    -2.56541439481080
H   11   1    -2.67503415753480     0.18421555839588    -3.06194479365997
H   12   1    -1.07974048864772     3.03851734677796    -2.43674295017013
C   13   6    -4.21607110578555     2.32938802552922     0.11994162256091
H   14   1     4.24440173074564     1.93368664142019    -2.34976285512790
H   15   1     2.15020713235517     1.04714335134846    -4.81494497423699
C   16   6     5.60746363007797    -1.12419643481196    -4.70268606082550
H   17   1    -3.46838323670267     3.50951302338067     1.66946842715333
H   18   1    -5.11873485366228     0.68575958301209     1.04047743976495
C   19   6    -6.18314754751344     3.80909592987882    -1.39656589068747
H   20   1     6.93011263717176    -1.87550812453645    -3.26656317360070
C   21   6     7.06356622236532     0.52877932406334    -6.57829775293605
H   22   1     4.82318879258361    -2.78573437948532    -5.70504560381835
H   23   1    -6.91582688743803     2.61304780074712    -2.95074552451969
H   24   1    -5.26532430573853     5.45420349051338    -2.31005832200284
C   25   6    -8.39941882261433     4.73263980500213     0.21800571437956
H   26   1     7.83338371486801     2.19084139882824    -5.57093109900697
H   27   1     5.73544244039420     1.27376866537418    -8.01071492370229
C   28   6     9.21124858443101    -0.89699110072176    -7.88926949186242
H   29   1    -7.66272760055236     5.92277078003992     1.77035591474408
H   30   1    -9.31497248082589     3.08753015622020     1.12614408368786
C   31   6   -10.35481709231879     6.21833079391143    -1.30905206253246
H   32   1    10.58815905329501    -1.61074586756696    -6.49512691622620
H   33   1    10.23506248045667     0.32468009384095    -9.23072870921204
H   34   1     8.47665842847139    -2.53598436989925    -8.94921964622535
H   35   1    -9.48948872868064     7.90013588951020    -2.18823918416067
H   36   1   -11.93332513000955     6.86460487874102    -0.11255798845995
H   37   1   -11.15126291841033     5.04495968327630    -2.83849898862534
[GTO]
1 0
 s    8 1.00
                 11720  0.00070964594651845
                  1759  0.0054672722921914
                 400.8   0.027823118610189
                 113.7    0.10474773971146
                 37.03    0.28292084635691
                 13.27    0.44849523869833
                 5.025    0.27081688521277
                 1.013    0.01545029160744
 s    8 1.00
                 11720  -0.00031444341168873
                  1759  -0.0024821376810179
                 400.8  -0.012316355381583
                 113.7  -0.050538917343672
                 37.03   -0.13938490331632
                 13.27   -0.32507749481778
                 5.025   -0.22984830758785
                 1.013     1.0953793467883
 s    1 1.00
                0.3023                   1
 p    3 1.00
                  17.7   0.062679166281506
                 3.854    0.33353656587936
                 1.046    0.74123964163973
 p    1 1.00
                0.2753                   1
 d    1 1.00
                 1.185                   1

2 0
 s    3 1.00
                 13.01   0.033498726389998
                 1.962    0.23480080117413
                0.4446     0.8136829578829
 s    1 1.00
                 0.122                   1
 p    1 1.00
                 0.727                   1

3 0
 s    3 1.00
                 13.01   0.033498726389998
                 1.962    0.23480080117413
                0.4446     0.8136829578829
 s    1 1.00
                 0.122                   1
 p    1 1.00
                 0.727                   1

4 0
 s    8 1.00
                 11720  0.00070964594651845
                  1759  0.0054672722921914
                 400.8   0.027823118610189
                 113.7    0.10474773971146
                 37.03    0.28292084635691
                 13.27    0.44849523869833
                 5.025    0.27081688521277
                 1.013    0.01545029160744
 s    8 1.00
                 11720  -0.00031444341168873
                  1759  -0.0024821376810179
                 400.8  -0.012316355381583
                 113.7  -0.050538917343672
                 37.03   -0.13938490331632
                 13.27   -0.32507749481778
                 5.025   -0.22984830758785
                 1.013     1.0953793467883
 s    1 1.00
                0.3023                   1
 p    3 1.00
                  17.7   0.062679166281506
                 3.854    0.33353656587936
                 1.046    0.74123964163973
 p    1 1.00
                0.2753                   1
 d    1 1.00
                 1.185                   1

5 0
 s    8 1.00
                  6665  0.00069158396281299
                  1000  0.0053257961529341
                   228   0.027060721042034
                 64.71    0.10165684614077
                 21.06     0.2745748236174
                 7.495    0.44829431892377
                 2.797    0.28490261071525
                0.5215   0.015194859206082
 s    8 1.00
                  6665  -0.00029326965268655
                  1000  -0.0023180354739745
                   228  -0.011499786038565
                 64.71  -0.046826727009787
                 21.06   -0.12846616875047
                 7.495   -0.30126627246289
                 2.797   -0.25563070233011
                0.5215      1.093793361012
 s    1 1.00
                0.1596                   1
 p    3 1.00
                 9.439   0.056979251590039
                 2.002    0.31320721150073
                0.5456    0.76037674173753
 p    1 1.00
                0.1517                   1
 d    1 1.00
                  0.55                   1

6 0
 s    8 1.00
                  6665  0.00069158396281299
                  1000  0.0053257961529341
                   228   0.027060721042034
                 64.71    0.10165684614077
                 21.06     0.2745748236174
                 7.495    0.44829431892377
                 2.797    0.28490261071525
                0.5215   0.015194859206082
 s    8 1.00
                  6665  -0.00029326965268655
                  1000  -0.0023180354739745
                   228  -0.011499786038565
                 64.71  -0.046826727009787
                 21.06   -0.12846616875047
                 7.495   -0.30126627246289
                 2.797   -0.25563070233011
                0.5215      1.093793361012
 s    1 1.00
                0.1596                   1
 p    3 1.00
                 9.439   0.056979251590039
                 2.002    0.31320721150073
                0.5456    0.76037674173753
 p    1 1.00
                0.1517                   1
 d    1 1.00
                  0.55                   1

7 0
 s    8 1.00
                  6665  0.00069158396281299
                  1000  0.0053257961529341
                   228   0.027060721042034
                 64.71    0.10165684614077
                 21.06     0.2745748236174
                 7.495    0.44829431892377
                 2.797    0.28490261071525
                0.5215   0.015194859206082
 s    8 1.00
                  6665  -0.00029326965268655
                  1000  -0.0023180354739745
                   228  -0.011499786038565
                 64.71  -0.046826727009787
                 21.06   -0.12846616875047
                 7.495   -0.30126627246289
                 2.797   -0.25563070233011
                0.5215      1.093793361012
 s    1 1.00
                0.1596                   1
 p    3 1.00
                 9.439   0.056979251590039
                 2.002    0.31320721150073
                0.5456    0.76037674173753
 p    1 1.00
                0.1517                   1
 d    1 1.00
                  0.55                   1

8 0
 s    3 1.00
                 13.01   0.033498726389998
                 1.962    0.23480080117413
                0.4446     0.8136829578829
 s    1 1.00
                 0.122                   1
 p    1 1.00
                 0.727                   1

9 0
 s    8 1.00
                  6665  0.00069158396281299
                  1000  0.0053257961529341
                   228   0.027060721042034
                 64.71    0.10165684614077
                 21.06     0.2745748236174
                 7.495    0.44829431892377
                 2.797    0.28490261071525
                0.5215   0.015194859206082
 s    8 1.00
                  6665  -0.00029326965268655
                  1000  -0.0023180354739745
                   228  -0.011499786038565
                 64.71  -0.046826727009787
                 21.06   -0.12846616875047
                 7.495   -0.30126627246289
                 2.797   -0.25563070233011
                0.5215      1.093793361012
 s    1 1.00
                0.1596                   1
 p    3 1.00
                 9.439   0.056979251590039
                 2.002    0.31320721150073
                0.5456    0.76037674173753
 p    1 1.00
                0.1517                   1
 d    1 1.00
                  0.55                   1

10 0
 s    3 1.00
                 13.01   0.033498726389998
                 1.962    0.23480080117413
                0.4446     0.8136829578829
 s    1 1.00
                 0.122                   1
 p    1 1.00
                 0.727                   1

11 0
 s    3 1.00
                 13.01   0.033498726389998
                 1.962    0.23480080117413
                0.4446     0.8136829578829
 s    1 1.00
                 0.122                   1
 p    1 1.00
                 0.727                   1

12 0
 s    3 1.00
                 13.01   0.033498726389998
                 1.962    0.23480080117413
                0.4446     0.8136829578829
 s    1 1.00
                 0.122                   1
 p    1 1.00
                 0.727                   1

13 0
 s    8 1.00
                  6665  0.00069158396281299
                  1000  0.0053257961529341
                   228   0.027060721042034
                 64.71    0.10165684614077
                 21.06     0.2745748236174
                 7.495    0.44829431892377
                 2.797    0.28490261071525
                0.5215   0.015194859206082
 s    8 1.00
                  6665  -0.00029326965268655
                  1000  -0.0023180354739745
                   228  -0.011499786038565
                 64.71  -0.046826727009787
                 21.06   -0.12846616875047
                 7.495   -0.30126627246289
                 2.797   -0.25563070233011
                0.5215      1.093793361012
 s    1 1.00
                0.1596                   1
 p    3 1.00
                 9.439   0.056979251590039
                 2.002    0.31320721150073
                0.5456    0.76037674173753
 p    1 1.00
                0.1517                   1
 d    1 1.00
                  0.55                   1

14 0
 s    3 1.00
                 13.01   0.033498726389998
                 1.962    0.23480080117413
                0.4446     0.8136829578829
 s    1 1.00
                 0.122                   1
 p    1 1.00
                 0.727                   1

15 0
 s    3 1.00
                 13.01   0.033498726389998
                 1.962    0.23480080117413
                0.4446     0.8136829578829
 s    1 1.00
                 0.122                   1
 p    1 1.00
                 0.727                   1

16 0
 s    8 1.00
                  6665  0.00069158396281299
                  1000  0.0053257961529341
                   228   0.027060721042034
                 64.71    0.10165684614077
                 21.06     0.2745748236174
                 7.495    0.44829431892377
                 2.797    0.28490261071525
                0.5215   0.015194859206082
 s    8 1.00
                  6665  -0.00029326965268655
                  1000  -0.0023180354739745
                   228  -0.011499786038565
                 64.71  -0.046826727009787
                 21.06   -0.12846616875047
                 7.495   -0.30126627246289
                 2.797   -0.25563070233011
                0.5215      1.093793361012
 s    1 1.00
                0.1596                   1
 p    3 1.00
                 9.439   0.056979251590039
                 2.002    0.31320721150073
                0.5456    0.76037674173753
 p    1 1.00
                0.1517                   1
 d    1 1.00
                  0.55                   1

17 0
 s    3 1.00
                 13.01   0.033498726389998
                 1.962    0.23480080117413
                0.4446     0.8136829578829
 s    1 1.00
                 0.122                   1
 p    1 1.00
                 0.727                   1

18 0
 s    3 1.00
                 13.01   0.033498726389998
                 1.962    0.23480080117413
                0.4446     0.8136829578829
 s    1 1.00
                 0.122                   1
 p    1 1.00
                 0.727                   1

19 0
 s    8 1.00
                  6665  0.00069158396281299
                  1000  0.0053257961529341
                   228   0.027060721042034
                 64.71    0.10165684614077
                 21.06     0.2745748236174
                 7.495    0.44829431892377
                 2.797    0.28490261071525
                0.5215   0.015194859206082
 s    8 1.00
                  6665  -0.00029326965268655
                  1000  -0.0023180354739745
                   228  -0.011499786038565
                 64.71  -0.046826727009787
                 21.06   -0.12846616875047
                 7.495   -0.30126627246289
                 2.797   -0.25563070233011
                0.5215      1.093793361012
 s    1 1.00
                0.1596                   1
 p    3 1.00
                 9.439   0.056979251590039
                 2.002    0.31320721150073
                0.5456    0.76037674173753
 p    1 1.00
                0.1517                   1
 d    1 1.00
                  0.55                   1

20 0
 s    3 1.00
                 13.01   0.033498726389998
                 1.962    0.23480080117413
                0.4446     0.8136829578829
 s    1 1.00
                 0.122                   1
 p    1 1.00
                 0.727                   1

21 0
 s    8 1.00
                  6665  0.00069158396281299
                  1000  0.0053257961529341
                   228   0.027060721042034
                 64.71    0.10165684614077
                 21.06     0.2745748236174
                 7.495    0.44829431892377
                 2.797    0.28490261071525
                0.5215   0.015194859206082
 s    8 1.00
                  6665  -0.00029326965268655
                  1000  -0.0023180354739745
                   228  -0.011499786038565
                 64.71  -0.046826727009787
                 21.06   -0.12846616875047
                 7.495   -0.30126627246289
                 2.797   -0.25563070233011
                0.5215      1.093793361012
 s    1 1.00
                0.1596                   1
 p    3 1.00
                 9.439   0.056979251590039
                 2.002    0.31320721150073
                0.5456    0.76037674173753
 p    1 1.00
                0.1517                   1
 d    1 1.00
                  0.55                   1

22 0
 s    3 1.00
                 13.01   0.033498726389998
                 1.962    0.23480080117413
                0.4446     0.8136829578829
 s    1 1.00
                 0.122                   1
 p    1 1.00
                 0.727                   1

23 0
 s    3 1.00
                 13.01   0.033498726389998
                 1.962    0.23480080117413
                0.4446     0.8136829578829
 s    1 1.00
                 0.122                   1
 p    1 1.00
                 0.727                   1

24 0
 s    3 1.00
                 13.01   0.033498726389998
                 1.962    0.23480080117413
                0.4446     0.8136829578829
 s    1 1.00
                 0.122                   1
 p    1 1.00
                 0.727                   1

25 0
 s    8 1.00
                  6665  0.00069158396281299
                  1000  0.0053257961529341
                   228   0.027060721042034
                 64.71    0.10165684614077
                 21.06     0.2745748236174
                 7.495    0.44829431892377
                 2.797    0.28490261071525
                0.5215   0.015194859206082
 s    8 1.00
                  6665  -0.00029326965268655
                  1000  -0.0023180354739745
                   228  -0.011499786038565
                 64.71  -0.046826727009787
                 21.06   -0.12846616875047
                 7.495   -0.30126627246289
                 2.797   -0.25563070233011
                0.5215      1.093793361012
 s    1 1.00
                0.1596                   1
 p    3 1.00
                 9.439   0.056979251590039
                 2.002    0.31320721150073
                0.5456    0.76037674173753
 p    1 1.00
                0.1517                   1
 d    1 1.00
                  0.55                   1

26 0
 s    3 1.00
                 13.01   0.033498726389998
                 1.962    0.23480080117413
                0.4446     0.8136829578829
 s    1 1.00
                 0.122                   1
 p    1 1.00
                 0.727                   1

27 0
 s    3 1.00
                 13.01   0.033498726389998
                 1.962    0.23480080117413
                0.4446     0.8136829578829
 s    1 1.00
                 0.122                   1
 p    1 1.00
                 0.727                   1

28 0
 s    8 1.00
                  6665  0.00069158396281299
                  1000  0.0053257961529341
                   228   0.027060721042034
                 64.71    0.10165684614077
                 21.06     0.2745748236174
                 7.495    0.44829431892377
                 2.797    0.28490261071525
                0.5215   0.015194859206082
 s    8 1.00
                  6665  -0.00029326965268655
                  1000  -0.0023180354739745
                   228  -0.011499786038565
                 64.71  -0.046826727009787
                 21.06   -0.12846616875047
                 7.495   -0.30126627246289
                 2.797   -0.25563070233011
                0.5215      1.093793361012
 s    1 1.00
                0.1596                   1
 p    3 1.00
                 9.439   0.056979251590039
                 2.002    0.31320721150073
                0.5456    0.76037674173753
 p    1 1.00
                0.1517                   1
 d    1 1.00
                  0.55                   1

29 0
 s    3 1.00
                 13.01   0.033498726389998
                 1.962    0.23480080117413
                0.4446     0.8136829578829
 s    1 1.00
                 0.122                   1
 p    1 1.00
                 0.727                   1

30 0
 s    3 1.00
                 13.01   0.033498726389998
                 1.962    0.23480080117413
                0.4446     0.8136829578829
 s    1 1.00
                 0.122                   1
 p    1 1.00
                 0.727                   1

31 0
 s    8 1.00
                  6665  0.00069158396281299
                  1000  0.0053257961529341
                   228   0.027060721042034
                 64.71    0.10165684614077
                 21.06     0.2745748236174
                 7.495    0.44829431892377
                 2.797    0.28490261071525
                0.5215   0.015194859206082
 s    8 1.00
                  6665  -0.00029326965268655
                  1000  -0.0023180354739745
                   228  -0.011499786038565
                 64.71  -0.046826727009787
                 21.06   -0.12846616875047
                 7.495   -0.30126627246289
                 2.797   -0.25563070233011
                0.5215      1.093793361012
 s    1 1.00
                0.1596                   1
 p    3 1.00
                 9.439   0.056979251590039
                 2.002    0.31320721150073
                0.5456    0.76037674173753
 p    1 1.00
                0.1517                   1
 d    1 1.00
                  0.55                   1

32 0
 s    3 1.00
                 13.01   0.033498726389998
                 1.962    0.23480080117413
                0.4446     0.8136829578829
 s    1 1.00
                 0.122                   1
 p    1 1.00
                 0.727                   1

33 0
 s    3 1.00
                 13.01   0.033498726389998
                 1.962    0.23480080117413
                0.4446     0.8136829578829
 s    1 1.00
                 0.122                   1
 p    1 1.00
                 0.727                   1

34 0
 s    3 1.00
                 13.01   0.033498726389998
                 1.962    0.23480080117413
                0.4446     0.8136829578829
 s    1 1.00
                 0.122                   1
 p    1 1.00
                 0.727                   1

35 0
 s    3 1.00
                 13.01   0.033498726389998
                 1.962    0.23480080117413
                0.4446     0.8136829578829
 s    1 1.00
                 0.122                   1
 p    1 1.00
                 0.727                   1

36 0
 s    3 1.00
                 13.01   0.033498726389998
                 1.962    0.23480080117413
                0.4446     0.8136829578829
 s    1 1.00
                 0.122                   1
 p    1 1.00
                 0.727                   1

37 0
 s    3 1.00
                 13.01   0.033498726389998
                 1.962    0.23480080117413
                0.4446     0.8136829578829
 s    1 1.00
                 0.122                   1
 p    1 1.00
                 0.727                   1

[5d]
[7f]
[9g]

[MO]
 Sym= A
 Ene=               0
 Spin= Alpha
 Occup=    1.00000
   1    8.0012029543104e-05
   2    4.4169045923094e-05
   3    -0.0001384983647322
   4    -3.5227535577507e-07
   5    -5.143603900614e-06
   6    -5.5009121153245e-06
   7    8.966775081401e-08
   8    2.3898170132651e-05
   9    5.5129285518583e-05
  10    -6.0876073418421e-06
  11    2.2023732391464e-07
  12    -1.8471312698866e-06
  13    -1.2179080361474e-06
  14    -2.2256009537823e-08
  15    5.8963889309666e-05
  16    0.00023131431851398
  17    8.6242978305763e-07
  18    -2.864744514919e-06
  19    -1.3531387569197e-05
  20    6.0440040114997e-07
  21    -5.4146164940635e-05
  22    -1.5023156706062e-07
  23    -5.0600621676914e-07
  24    5.121790401237e-06
  25      -1.0013867765211
  26    -0.0020113526842755
  27     0.006999583705529
  28    3.5655818972769e-06
  29    -1.1398837485263e-05
  30    0.0016269709452389
  31    -2.252094362371e-06
  32    5.0138911053798e-06
  33    -0.0020062002163633
  34    -0.00010500946745921
  35    2.9509184685552e-06
  36    -1.6501485059285e-06
  37    -6.5738427264465e-05
  38    0.00017115943554809
  39    -0.0002940903816316
  40    -0.00041302438258007
  41    -0.001566550775361
  42    -2.2915264720185e-05
  43    1.4723029829681e-05
  44    -3.869562620821e-05
  45    -8.7991881297168e-05
  46    6.9828968073881e-05
  47    -0.0037301770540889
  48    0.00049397472958354
  49    7.6887199149213e-06
  50    -2.2967897510448e-06
  51    -3.0455452046402e-05
  52    0.00011213839618484
  53    8.3527769954992e-05
  54    0.00016272833331054
  55    -0.0014027718491262
  56    -7.8726478592777e-05
  57    6.1003947195123e-06
  58    3.3124739345917e-05
  59    0.00043466352587893
  60    -0.00048883877139243
  61    0.00099045547633995
  62    0.00011517725754702
  63    -0.00014895033240879
  64    0.00014300278389199
  65    -5.4340874422342e-05
  66    0.00012591386800408
  67    4.2044040295167e-05
  68    9.9666585142314e-05
  69    -0.00052829536716407
  70    5.4642869537089e-05
  71    -4.0299678292471e-05
  72    6.2811188198474e-05
  73    -0.0010215546646286
  74    0.00078360475261967
  75    0.00067129673908337
  76    0.00013419232764532
  77    0.00012473362379925
  78    -9.1960130559144e-05
  79    -5.6179713889515e-05
  80    0.00014647185119909
  81    5.7636578822591e-05
  82    -0.00022067062941747
  83    -6.7177905243193e-05
  84    4.9338978306936e-05
  85    -4.6333039282666e-05
  86    -2.7584617795132e-05
  87    -5.3612702660757e-05
  88    0.00062707110095518
  89    8.9727002379196e-06
  90    2.2568468413216e-05
  91    -7.726582669369e-06
  92    -0.00026795369981454
  93    -0.00065441720138175
  94    1.0727381366205e-05
  95    -2.0147250289741e-05
  96    -1.1057324666329e-05
  97    -7.7921383456938e-06
  98    1.8816235941704e-05
  99    4.7972537689876e-05
 100    4.2072533869163e-05
 101    0.00016854550019782
 102    -5.8284470227655e-06
 103    1.0971578331669e-05
 104    -7.8188429604128e-05
 105    1.4852095317515e-05
 106    0.00019652442059624
 107    6.3721458948432e-05
 108    -7.182137483939e-06
 109    -7.669820428006e-05
 110    -8.2497832094648e-05
 111    6.2537592505788e-05
 112    4.3580627814504e-05
 113    -2.0404683001994e-05
 114    -7.1842574357061e-05
 115    0.00017874325534245
 116    7.6376573015719e-05
 117    -0.00085535064784045
 118    -3.5304948066955e-05
 119    3.7479572680191e-05
 120    -0.00015763003093248
 121    -0.00031003411377669
 122    -2.7976964755105e-05
 123    9.5839559029267e-05
 124    5.0463079989331e-06
 125    -9.9390862839739e-06
 126    -1.9904673514126e-05
 127    3.4702469935588e-05
 128    -5.8626299732243e-05
 129    2.207877175191e-05
 130    0.00034385192545037
 131    -8.6345264254969e-06
 132    -5.8364826824541e-06
 133    -2.9718010284417e-05
 134    -2.2282994150742e-05
 135    0.00012039647286581
 136    1.3786111319127e-05
 137    2.5804687828576e-05
 138    2.7885726535271e-05
 139    5.3619656625972e-05
 140    7.7168533385019e-05
 141    -0.00029185012701344
 142    9.7182486111597e-06
 143    -3.3731402608349e-05
 144    1.5320692104851e-05
 145    0.00024252313715868
 146    -7.9838670400858e-05
 147    -5.5775370075537e-05
 148    3.1420002377479e-06
 149    -4.5440088082453e-07
 150    4.2688190087473e-06
 151    -1.3571472365204e-05
 152    5.1114720908787e-06
 153    -4.5405877020245e-06
 154    5.4313614964593e-05
 155    2.8991225973911e-05
 156    -2.1790041018118e-05
 157    -1.4868688326623e-05
 158    -2.8073566582058e-05
 159     6.83406541265e-05
 160    5.5019822805202e-05
 161    3.4228798053094e-06
 162    -7.6542645654921e-06
 163    -6.8050637453386e-05
 164    -1.6055747700708e-05
 165    0.00026036203056926
 166    0.00011339774498189
 167    -5.8128682582137e-05
 168    5.1320930050532e-05
 169    -0.0001857762650407
 170    0.00018753844316686
 171    0.00017177269382203
 172    -1.1407988063413e-06
 173    -7.1800150237352e-06
 174    9.1452271812938e-06
 175    -2.628525449914e-06
 176    1.2850219698016e-05
 177    6.3750897156678e-05
 178    -7.0974093518454e-05
 179    -1.5113934752427e-06
 180    -7.7667852818934e-07
 181    1.4982067997944e-06
 182    -1.8357095203525e-05
 183    -2.8186413421656e-05
 184    7.9503949857864e-05
 185    -5.2364355835889e-06
 186    4.4980167063944e-06
 187    -8.5035790166712e-06
 188    -0.00013706537347899
 189    0.00010746351145087
 190    9.0793373914895e-05
 191    -7.6294547146641e-07
 192    -1.2122907237718e-06
 193    5.6052533784905e-06
 194    1.8784430825491e-06
 195    6.6815007279604e-06
 196    4.7583657132619e-05
 197    2.8698646898582e-05
 198    -3.7543335109134e-06
 199    1.5211923223218e-07
 200    5.442205099774e-06
 201    -4.9920098358852e-05
 202    -3.223399208161e-05
 203    1.3438823080563e-05
 204    -1.3938776297198e-05
 205    -1.4316513668957e-05
 206    -3.6364123672789e-05
 207    -7.9682504232423e-05
 208    1.9630131257861e-05
 209    -2.3363750845209e-06
 210    -1.5397166648191e-05
 211    1.1655050164257e-05
 212    1.2908329579181e-05
 213    -0.00027875218209589
 214    -4.2550064055827e-05
 215    2.3745898576279e-05
 216    2.4871733239938e-05
 217    -0.000213758956502
 218    6.4219921256629e-05
 219    8.6877271551948e-05
 220    -9.9319928085431e-07
 221    2.2290056043686e-05
 222    -8.4224420647164e-06
 223    -9.6452984479825e-06
 224    1.308351356406e-06
 225    -2.4106869821524e-05
 226    -5.5371849186323e-05
 227    1.227787064068e-05
 228    2.2971898506899e-06
 229    6.2015144592773e-07
 230    2.850408120938e-06
 231    -4.629235097645e-05
 232    4.5616732931221e-06
 233    -6.6399122198692e-06
 234    -1.1588961926001e-05
 235    1.6993423187769e-07
 236    -6.7049009003335e-06
 237    7.2778142360433e-05
 238    5.7849293739639e-06
 239    -3.9834518204115e-06
 240    -1.4110892172697e-06
 241    -3.2511531340857e-05
 242    6.3053918993186e-05
 243    -2.1250442291849e-05
 244    -2.1941149089273e-06
 245    -1.4363057100223e-06
 246    1.4306304501599e-06
 247    -3.2602672772389e-07
 248    -9.4963530670697e-07
 249    1.5453317663818e-05
 250    -1.3272232726977e-05
 251    3.3441661119169e-06
 252    1.5770887393044e-06
 253    3.5850298091905e-07
 254    1.1861763873965e-05
 255    -5.6450459565628e-05
 256    -1.4542087839435e-06
 257    -4.2510480430598e-06
 258    1.3686590880653e-06
 259    8.4501998012082e-06
 260    2.915308782457e-05
 261    -5.7146114243975e-05
 262    2.1193776504903e-05