[Molden Format]
made by pyscf v[2.0.1]
[Atoms] (AU)
O   1   8     0.00000000000000     0.00000000000000     7.54024356125045
H   2   1     0.00000000000000     0.00000000000000     5.71684173934948
H   3   1    -0.05031916615174     1.78353065140343     7.91611525771711
O   4   8     0.00000000000000     0.00000000000000     2.31533471513237
C   5   6     0.00000000000000     0.00000000000000     0.00000000000000
C   6   6     2.01118073026938    -1.40227222164369    -1.50774939176400
C   7   6    -2.01249334291722     1.41331050329955    -1.50315905028694
H   8   1     3.32037363730244    -2.26721897153159    -0.13599698591495
C   9   6     3.45899267434009     0.28739631745591    -3.37437943254505
H   10   1     1.07662969841332    -2.94725144642667    -2.56541439481080
H   11   1    -2.67503415753480     0.18421555839588    -3.06194479365997
H   12   1    -1.07974048864772     3.03851734677796    -2.43674295017013
C   13   6    -4.21607110578555     2.32938802552922     0.11994162256091
H   14   1     4.24440173074564     1.93368664142019    -2.34976285512790
H   15   1     2.15020713235517     1.04714335134846    -4.81494497423699
C   16   6     5.60746363007797    -1.12419643481196    -4.70268606082550
H   17   1    -3.46838323670267     3.50951302338067     1.66946842715333
H   18   1    -5.11873485366228     0.68575958301209     1.04047743976495
C   19   6    -6.18314754751344     3.80909592987882    -1.39656589068747
H   20   1     6.93011263717176    -1.87550812453645    -3.26656317360070
C   21   6     7.06356622236532     0.52877932406334    -6.57829775293605
H   22   1     4.82318879258361    -2.78573437948532    -5.70504560381835
H   23   1    -6.91582688743803     2.61304780074712    -2.95074552451969
H   24   1    -5.26532430573853     5.45420349051338    -2.31005832200284
C   25   6    -8.39941882261433     4.73263980500213     0.21800571437956
H   26   1     7.83338371486801     2.19084139882824    -5.57093109900697
H   27   1     5.73544244039420     1.27376866537418    -8.01071492370229
C   28   6     9.21124858443101    -0.89699110072176    -7.88926949186242
H   29   1    -7.66272760055236     5.92277078003992     1.77035591474408
H   30   1    -9.31497248082589     3.08753015622020     1.12614408368786
C   31   6   -10.35481709231879     6.21833079391143    -1.30905206253246
H   32   1    10.58815905329501    -1.61074586756696    -6.49512691622620
H   33   1    10.23506248045667     0.32468009384095    -9.23072870921204
H   34   1     8.47665842847139    -2.53598436989925    -8.94921964622535
H   35   1    -9.48948872868064     7.90013588951020    -2.18823918416067
H   36   1   -11.93332513000955     6.86460487874102    -0.11255798845995
H   37   1   -11.15126291841033     5.04495968327630    -2.83849898862534
[GTO]
1 0
 s    8 1.00
                 11720  0.00070964594651845
                  1759  0.0054672722921914
                 400.8   0.027823118610189
                 113.7    0.10474773971146
                 37.03    0.28292084635691
                 13.27    0.44849523869833
                 5.025    0.27081688521277
                 1.013    0.01545029160744
 s    8 1.00
                 11720  -0.00031444341168873
                  1759  -0.0024821376810179
                 400.8  -0.012316355381583
                 113.7  -0.050538917343672
                 37.03   -0.13938490331632
                 13.27   -0.32507749481778
                 5.025   -0.22984830758785
                 1.013     1.0953793467883
 s    1 1.00
                0.3023                   1
 p    3 1.00
                  17.7   0.062679166281506
                 3.854    0.33353656587936
                 1.046    0.74123964163973
 p    1 1.00
                0.2753                   1
 d    1 1.00
                 1.185                   1

2 0
 s    3 1.00
                 13.01   0.033498726389998
                 1.962    0.23480080117413
                0.4446     0.8136829578829
 s    1 1.00
                 0.122                   1
 p    1 1.00
                 0.727                   1

3 0
 s    3 1.00
                 13.01   0.033498726389998
                 1.962    0.23480080117413
                0.4446     0.8136829578829
 s    1 1.00
                 0.122                   1
 p    1 1.00
                 0.727                   1

4 0
 s    8 1.00
                 11720  0.00070964594651845
                  1759  0.0054672722921914
                 400.8   0.027823118610189
                 113.7    0.10474773971146
                 37.03    0.28292084635691
                 13.27    0.44849523869833
                 5.025    0.27081688521277
                 1.013    0.01545029160744
 s    8 1.00
                 11720  -0.00031444341168873
                  1759  -0.0024821376810179
                 400.8  -0.012316355381583
                 113.7  -0.050538917343672
                 37.03   -0.13938490331632
                 13.27   -0.32507749481778
                 5.025   -0.22984830758785
                 1.013     1.0953793467883
 s    1 1.00
                0.3023                   1
 p    3 1.00
                  17.7   0.062679166281506
                 3.854    0.33353656587936
                 1.046    0.74123964163973
 p    1 1.00
                0.2753                   1
 d    1 1.00
                 1.185                   1

5 0
 s    8 1.00
                  6665  0.00069158396281299
                  1000  0.0053257961529341
                   228   0.027060721042034
                 64.71    0.10165684614077
                 21.06     0.2745748236174
                 7.495    0.44829431892377
                 2.797    0.28490261071525
                0.5215   0.015194859206082
 s    8 1.00
                  6665  -0.00029326965268655
                  1000  -0.0023180354739745
                   228  -0.011499786038565
                 64.71  -0.046826727009787
                 21.06   -0.12846616875047
                 7.495   -0.30126627246289
                 2.797   -0.25563070233011
                0.5215      1.093793361012
 s    1 1.00
                0.1596                   1
 p    3 1.00
                 9.439   0.056979251590039
                 2.002    0.31320721150073
                0.5456    0.76037674173753
 p    1 1.00
                0.1517                   1
 d    1 1.00
                  0.55                   1

6 0
 s    8 1.00
                  6665  0.00069158396281299
                  1000  0.0053257961529341
                   228   0.027060721042034
                 64.71    0.10165684614077
                 21.06     0.2745748236174
                 7.495    0.44829431892377
                 2.797    0.28490261071525
                0.5215   0.015194859206082
 s    8 1.00
                  6665  -0.00029326965268655
                  1000  -0.0023180354739745
                   228  -0.011499786038565
                 64.71  -0.046826727009787
                 21.06   -0.12846616875047
                 7.495   -0.30126627246289
                 2.797   -0.25563070233011
                0.5215      1.093793361012
 s    1 1.00
                0.1596                   1
 p    3 1.00
                 9.439   0.056979251590039
                 2.002    0.31320721150073
                0.5456    0.76037674173753
 p    1 1.00
                0.1517                   1
 d    1 1.00
                  0.55                   1

7 0
 s    8 1.00
                  6665  0.00069158396281299
                  1000  0.0053257961529341
                   228   0.027060721042034
                 64.71    0.10165684614077
                 21.06     0.2745748236174
                 7.495    0.44829431892377
                 2.797    0.28490261071525
                0.5215   0.015194859206082
 s    8 1.00
                  6665  -0.00029326965268655
                  1000  -0.0023180354739745
                   228  -0.011499786038565
                 64.71  -0.046826727009787
                 21.06   -0.12846616875047
                 7.495   -0.30126627246289
                 2.797   -0.25563070233011
                0.5215      1.093793361012
 s    1 1.00
                0.1596                   1
 p    3 1.00
                 9.439   0.056979251590039
                 2.002    0.31320721150073
                0.5456    0.76037674173753
 p    1 1.00
                0.1517                   1
 d    1 1.00
                  0.55                   1

8 0
 s    3 1.00
                 13.01   0.033498726389998
                 1.962    0.23480080117413
                0.4446     0.8136829578829
 s    1 1.00
                 0.122                   1
 p    1 1.00
                 0.727                   1

9 0
 s    8 1.00
                  6665  0.00069158396281299
                  1000  0.0053257961529341
                   228   0.027060721042034
                 64.71    0.10165684614077
                 21.06     0.2745748236174
                 7.495    0.44829431892377
                 2.797    0.28490261071525
                0.5215   0.015194859206082
 s    8 1.00
                  6665  -0.00029326965268655
                  1000  -0.0023180354739745
                   228  -0.011499786038565
                 64.71  -0.046826727009787
                 21.06   -0.12846616875047
                 7.495   -0.30126627246289
                 2.797   -0.25563070233011
                0.5215      1.093793361012
 s    1 1.00
                0.1596                   1
 p    3 1.00
                 9.439   0.056979251590039
                 2.002    0.31320721150073
                0.5456    0.76037674173753
 p    1 1.00
                0.1517                   1
 d    1 1.00
                  0.55                   1

10 0
 s    3 1.00
                 13.01   0.033498726389998
                 1.962    0.23480080117413
                0.4446     0.8136829578829
 s    1 1.00
                 0.122                   1
 p    1 1.00
                 0.727                   1

11 0
 s    3 1.00
                 13.01   0.033498726389998
                 1.962    0.23480080117413
                0.4446     0.8136829578829
 s    1 1.00
                 0.122                   1
 p    1 1.00
                 0.727                   1

12 0
 s    3 1.00
                 13.01   0.033498726389998
                 1.962    0.23480080117413
                0.4446     0.8136829578829
 s    1 1.00
                 0.122                   1
 p    1 1.00
                 0.727                   1

13 0
 s    8 1.00
                  6665  0.00069158396281299
                  1000  0.0053257961529341
                   228   0.027060721042034
                 64.71    0.10165684614077
                 21.06     0.2745748236174
                 7.495    0.44829431892377
                 2.797    0.28490261071525
                0.5215   0.015194859206082
 s    8 1.00
                  6665  -0.00029326965268655
                  1000  -0.0023180354739745
                   228  -0.011499786038565
                 64.71  -0.046826727009787
                 21.06   -0.12846616875047
                 7.495   -0.30126627246289
                 2.797   -0.25563070233011
                0.5215      1.093793361012
 s    1 1.00
                0.1596                   1
 p    3 1.00
                 9.439   0.056979251590039
                 2.002    0.31320721150073
                0.5456    0.76037674173753
 p    1 1.00
                0.1517                   1
 d    1 1.00
                  0.55                   1

14 0
 s    3 1.00
                 13.01   0.033498726389998
                 1.962    0.23480080117413
                0.4446     0.8136829578829
 s    1 1.00
                 0.122                   1
 p    1 1.00
                 0.727                   1

15 0
 s    3 1.00
                 13.01   0.033498726389998
                 1.962    0.23480080117413
                0.4446     0.8136829578829
 s    1 1.00
                 0.122                   1
 p    1 1.00
                 0.727                   1

16 0
 s    8 1.00
                  6665  0.00069158396281299
                  1000  0.0053257961529341
                   228   0.027060721042034
                 64.71    0.10165684614077
                 21.06     0.2745748236174
                 7.495    0.44829431892377
                 2.797    0.28490261071525
                0.5215   0.015194859206082
 s    8 1.00
                  6665  -0.00029326965268655
                  1000  -0.0023180354739745
                   228  -0.011499786038565
                 64.71  -0.046826727009787
                 21.06   -0.12846616875047
                 7.495   -0.30126627246289
                 2.797   -0.25563070233011
                0.5215      1.093793361012
 s    1 1.00
                0.1596                   1
 p    3 1.00
                 9.439   0.056979251590039
                 2.002    0.31320721150073
                0.5456    0.76037674173753
 p    1 1.00
                0.1517                   1
 d    1 1.00
                  0.55                   1

17 0
 s    3 1.00
                 13.01   0.033498726389998
                 1.962    0.23480080117413
                0.4446     0.8136829578829
 s    1 1.00
                 0.122                   1
 p    1 1.00
                 0.727                   1

18 0
 s    3 1.00
                 13.01   0.033498726389998
                 1.962    0.23480080117413
                0.4446     0.8136829578829
 s    1 1.00
                 0.122                   1
 p    1 1.00
                 0.727                   1

19 0
 s    8 1.00
                  6665  0.00069158396281299
                  1000  0.0053257961529341
                   228   0.027060721042034
                 64.71    0.10165684614077
                 21.06     0.2745748236174
                 7.495    0.44829431892377
                 2.797    0.28490261071525
                0.5215   0.015194859206082
 s    8 1.00
                  6665  -0.00029326965268655
                  1000  -0.0023180354739745
                   228  -0.011499786038565
                 64.71  -0.046826727009787
                 21.06   -0.12846616875047
                 7.495   -0.30126627246289
                 2.797   -0.25563070233011
                0.5215      1.093793361012
 s    1 1.00
                0.1596                   1
 p    3 1.00
                 9.439   0.056979251590039
                 2.002    0.31320721150073
                0.5456    0.76037674173753
 p    1 1.00
                0.1517                   1
 d    1 1.00
                  0.55                   1

20 0
 s    3 1.00
                 13.01   0.033498726389998
                 1.962    0.23480080117413
                0.4446     0.8136829578829
 s    1 1.00
                 0.122                   1
 p    1 1.00
                 0.727                   1

21 0
 s    8 1.00
                  6665  0.00069158396281299
                  1000  0.0053257961529341
                   228   0.027060721042034
                 64.71    0.10165684614077
                 21.06     0.2745748236174
                 7.495    0.44829431892377
                 2.797    0.28490261071525
                0.5215   0.015194859206082
 s    8 1.00
                  6665  -0.00029326965268655
                  1000  -0.0023180354739745
                   228  -0.011499786038565
                 64.71  -0.046826727009787
                 21.06   -0.12846616875047
                 7.495   -0.30126627246289
                 2.797   -0.25563070233011
                0.5215      1.093793361012
 s    1 1.00
                0.1596                   1
 p    3 1.00
                 9.439   0.056979251590039
                 2.002    0.31320721150073
                0.5456    0.76037674173753
 p    1 1.00
                0.1517                   1
 d    1 1.00
                  0.55                   1

22 0
 s    3 1.00
                 13.01   0.033498726389998
                 1.962    0.23480080117413
                0.4446     0.8136829578829
 s    1 1.00
                 0.122                   1
 p    1 1.00
                 0.727                   1

23 0
 s    3 1.00
                 13.01   0.033498726389998
                 1.962    0.23480080117413
                0.4446     0.8136829578829
 s    1 1.00
                 0.122                   1
 p    1 1.00
                 0.727                   1

24 0
 s    3 1.00
                 13.01   0.033498726389998
                 1.962    0.23480080117413
                0.4446     0.8136829578829
 s    1 1.00
                 0.122                   1
 p    1 1.00
                 0.727                   1

25 0
 s    8 1.00
                  6665  0.00069158396281299
                  1000  0.0053257961529341
                   228   0.027060721042034
                 64.71    0.10165684614077
                 21.06     0.2745748236174
                 7.495    0.44829431892377
                 2.797    0.28490261071525
                0.5215   0.015194859206082
 s    8 1.00
                  6665  -0.00029326965268655
                  1000  -0.0023180354739745
                   228  -0.011499786038565
                 64.71  -0.046826727009787
                 21.06   -0.12846616875047
                 7.495   -0.30126627246289
                 2.797   -0.25563070233011
                0.5215      1.093793361012
 s    1 1.00
                0.1596                   1
 p    3 1.00
                 9.439   0.056979251590039
                 2.002    0.31320721150073
                0.5456    0.76037674173753
 p    1 1.00
                0.1517                   1
 d    1 1.00
                  0.55                   1

26 0
 s    3 1.00
                 13.01   0.033498726389998
                 1.962    0.23480080117413
                0.4446     0.8136829578829
 s    1 1.00
                 0.122                   1
 p    1 1.00
                 0.727                   1

27 0
 s    3 1.00
                 13.01   0.033498726389998
                 1.962    0.23480080117413
                0.4446     0.8136829578829
 s    1 1.00
                 0.122                   1
 p    1 1.00
                 0.727                   1

28 0
 s    8 1.00
                  6665  0.00069158396281299
                  1000  0.0053257961529341
                   228   0.027060721042034
                 64.71    0.10165684614077
                 21.06     0.2745748236174
                 7.495    0.44829431892377
                 2.797    0.28490261071525
                0.5215   0.015194859206082
 s    8 1.00
                  6665  -0.00029326965268655
                  1000  -0.0023180354739745
                   228  -0.011499786038565
                 64.71  -0.046826727009787
                 21.06   -0.12846616875047
                 7.495   -0.30126627246289
                 2.797   -0.25563070233011
                0.5215      1.093793361012
 s    1 1.00
                0.1596                   1
 p    3 1.00
                 9.439   0.056979251590039
                 2.002    0.31320721150073
                0.5456    0.76037674173753
 p    1 1.00
                0.1517                   1
 d    1 1.00
                  0.55                   1

29 0
 s    3 1.00
                 13.01   0.033498726389998
                 1.962    0.23480080117413
                0.4446     0.8136829578829
 s    1 1.00
                 0.122                   1
 p    1 1.00
                 0.727                   1

30 0
 s    3 1.00
                 13.01   0.033498726389998
                 1.962    0.23480080117413
                0.4446     0.8136829578829
 s    1 1.00
                 0.122                   1
 p    1 1.00
                 0.727                   1

31 0
 s    8 1.00
                  6665  0.00069158396281299
                  1000  0.0053257961529341
                   228   0.027060721042034
                 64.71    0.10165684614077
                 21.06     0.2745748236174
                 7.495    0.44829431892377
                 2.797    0.28490261071525
                0.5215   0.015194859206082
 s    8 1.00
                  6665  -0.00029326965268655
                  1000  -0.0023180354739745
                   228  -0.011499786038565
                 64.71  -0.046826727009787
                 21.06   -0.12846616875047
                 7.495   -0.30126627246289
                 2.797   -0.25563070233011
                0.5215      1.093793361012
 s    1 1.00
                0.1596                   1
 p    3 1.00
                 9.439   0.056979251590039
                 2.002    0.31320721150073
                0.5456    0.76037674173753
 p    1 1.00
                0.1517                   1
 d    1 1.00
                  0.55                   1

32 0
 s    3 1.00
                 13.01   0.033498726389998
                 1.962    0.23480080117413
                0.4446     0.8136829578829
 s    1 1.00
                 0.122                   1
 p    1 1.00
                 0.727                   1

33 0
 s    3 1.00
                 13.01   0.033498726389998
                 1.962    0.23480080117413
                0.4446     0.8136829578829
 s    1 1.00
                 0.122                   1
 p    1 1.00
                 0.727                   1

34 0
 s    3 1.00
                 13.01   0.033498726389998
                 1.962    0.23480080117413
                0.4446     0.8136829578829
 s    1 1.00
                 0.122                   1
 p    1 1.00
                 0.727                   1

35 0
 s    3 1.00
                 13.01   0.033498726389998
                 1.962    0.23480080117413
                0.4446     0.8136829578829
 s    1 1.00
                 0.122                   1
 p    1 1.00
                 0.727                   1

36 0
 s    3 1.00
                 13.01   0.033498726389998
                 1.962    0.23480080117413
                0.4446     0.8136829578829
 s    1 1.00
                 0.122                   1
 p    1 1.00
                 0.727                   1

37 0
 s    3 1.00
                 13.01   0.033498726389998
                 1.962    0.23480080117413
                0.4446     0.8136829578829
 s    1 1.00
                 0.122                   1
 p    1 1.00
                 0.727                   1

[5d]
[7f]
[9g]

[MO]
 Sym= A
 Ene=               0
 Spin= Alpha
 Occup=    1.00000
   1    7.7384412334785e-05
   2    2.9466181739043e-05
   3    -0.00012130412294152
   4    -5.9320034027602e-07
   5    -4.1492449788414e-06
   6    1.8513759807712e-06
   7    5.3166311902308e-07
   8    2.134434949051e-05
   9    3.2779545745987e-05
  10    -4.6417419262149e-06
  11    2.805965249478e-07
  12    -2.5081198253866e-06
  13    -1.7351659342606e-06
  14    -3.8768957391072e-08
  15    7.1506425513681e-05
  16    0.00022623101346465
  17    1.1441014543274e-06
  18    -3.3220854133189e-06
  19    -2.2853644186268e-06
  20    -3.9439909718693e-06
  21    -4.1533482326705e-05
  22    -1.622503732757e-07
  23    -2.1776944845468e-06
  24    7.356149743177e-06
  25      -1.0013927159831
  26    -0.0020317506065436
  27    0.0070255979651572
  28    3.6878453249815e-06
  29    -1.265681900918e-05
  30     0.001613652128954
  31    -2.5439732625252e-06
  32    5.6288161341666e-06
  33    -0.0020319121161255
  34    -0.00010420491238194
  35    2.9374940906169e-06
  36    -1.6367419138348e-06
  37    -6.492798701089e-05
  38    0.00016915866119987
  39    -0.00029663652380286
  40    -0.00041819168678474
  41    -0.0015866137006165
  42    -2.3356823458092e-05
  43    1.4929390286762e-05
  44    -4.3924907198758e-05
  45    -8.9102241873802e-05
  46    7.0603177560291e-05
  47    -0.0037618081279886
  48    0.00048807581750317
  49    7.6974288866738e-06
  50    -2.2796524964397e-06
  51    -3.0605122155009e-05
  52     0.000112582456587
  53    8.3328748045764e-05
  54    0.00016233166922942
  55    -0.0014081487852667
  56    -7.8745843841092e-05
  57    5.8924060970813e-06
  58    3.2703243731256e-05
  59    0.00043808483241517
  60    -0.00049133215290059
  61    0.0010004500710217
  62    0.00011511583015635
  63    -0.00014878356301809
  64    0.00014301044984517
  65    -5.4278042317462e-05
  66    0.00012551866562684
  67    4.1844025237738e-05
  68    9.9258231973545e-05
  69    -0.00053145774680575
  70    5.4316415940674e-05
  71    -4.041732081594e-05
  72    6.2784422044307e-05
  73    -0.0010277360667386
  74    0.00078825986790613
  75    0.00067714389551627
  76    0.00013399280128471
  77    0.00012482415782112
  78    -9.1988051662489e-05
  79    -5.6051935044926e-05
  80    0.00014621964378373
  81    5.6526756479086e-05
  82    -0.00022416691217938
  83    -6.7372027149909e-05
  84    4.9454094090495e-05
  85    -4.5877422281945e-05
  86    -2.7579889738346e-05
  87    -5.3605913625122e-05
  88    0.00063065370624974
  89    8.9147449527634e-06
  90    2.2677452860484e-05
  91    -7.5535633251135e-06
  92    -0.00026906265574001
  93    -0.00065958441434872
  94    8.9604769648677e-06
  95    -2.0362881767961e-05
  96    -1.1085771953964e-05
  97    -7.9005147200991e-06
  98    1.8564344993841e-05
  99    4.8505690835439e-05
 100    4.284165079762e-05
 101    0.00017007752524741
 102    -5.3682246282047e-06
 103    1.1135291779604e-05
 104    -7.8804583264616e-05
 105    1.4946058001132e-05
 106    0.0001975269455885
 107    6.3712539038637e-05
 108    -6.6992737384827e-06
 109    -7.7174371670856e-05
 110    -8.3041334009403e-05
 111    6.3225515474369e-05
 112    4.3417392291623e-05
 113    -2.0691151527581e-05
 114    -7.2327682251421e-05
 115    0.00017773930096774
 116    7.4049339555697e-05
 117    -0.00085928041801913
 118    -3.7414541730662e-05
 119    3.8701475714381e-05
 120    -0.00016307983911604
 121    -0.00031177802867031
 122    -2.7963678671939e-05
 123    9.5028199608723e-05
 124    4.9460034351982e-06
 125    -9.4142163765786e-06
 126    -2.020974873255e-05
 127    3.496420163831e-05
 128    -5.9423701568547e-05
 129    2.2389819194355e-05
 130     0.000346828308519
 131    -8.7422390666333e-06
 132    -5.843095673132e-06
 133    -2.9789635175286e-05
 134    -2.2237226403661e-05
 135    0.00012077261289647
 136    1.3812007309287e-05
 137    2.6010605645892e-05
 138    2.8181391437245e-05
 139    5.3696122326688e-05
 140    7.7697556178638e-05
 141    -0.00029566280293799
 142    9.756239850285e-06
 143    -3.4258780669114e-05
 144    1.5778591986604e-05
 145    0.00024366442302161
 146    -8.118732237337e-05
 147    -5.5170144379833e-05
 148    3.1704847459594e-06
 149    -4.4575523359963e-07
 150    4.474419925757e-06
 151    -1.3740262506876e-05
 152    5.0872802236023e-06
 153    -8.7946920930623e-06
 154    5.0903179040555e-05
 155    2.9193071842305e-05
 156    -2.1312530220431e-05
 157    -1.4664702662377e-05
 158    -3.093624982666e-05
 159    6.6968078894744e-05
 160    5.4966366046896e-05
 161    3.2544981809368e-06
 162    -7.7202723881249e-06
 163    -6.7454833674214e-05
 164    -1.4104850589677e-05
 165    0.00026327031724481
 166    0.00011573489037332
 167    -5.9577075894965e-05
 168    5.1971714018984e-05
 169    -0.00018564419007329
 170    0.00018790968100895
 171    0.00017317331265926
 172    -1.2869924684023e-06
 173    -7.2928515549581e-06
 174    9.2127406561025e-06
 175    -2.5958797012346e-06
 176    1.2823674362141e-05
 177    6.4439161093496e-05
 178    -7.1142018910109e-05
 179    -1.527199713538e-06
 180    -7.3171581469055e-07
 181    1.4290634018296e-06
 182    -1.8475615334316e-05
 183    -2.8613189555516e-05
 184    8.1328907459738e-05
 185    -5.0212006990146e-06
 186    4.8176100145574e-06
 187    -8.7118431195202e-06
 188    -0.00013769233546416
 189    0.00010776801629627
 190    9.1459311381931e-05
 191    -7.6788523673983e-07
 192    -1.2232011265033e-06
 193    5.6271957155589e-06
 194    1.8646914598092e-06
 195    6.7497657669505e-06
 196    4.7870997594864e-05
 197    2.906230814707e-05
 198    -3.7707032431151e-06
 199    1.5526066743848e-07
 200    5.4358095434054e-06
 201    -4.9569366386789e-05
 202    -3.2373297327553e-05
 203    1.3630725510137e-05
 204    -1.3950575706158e-05
 205    -1.4254522454699e-05
 206    -3.5925406677373e-05
 207    -8.0201635038394e-05
 208    1.9707770549229e-05
 209    -2.4686779577087e-06
 210    -1.541986819882e-05
 211    1.2013352342105e-05
 212    1.3172985004647e-05
 213    -0.00028089368187298
 214    -4.2937803041842e-05
 215    2.3897912734771e-05
 216    2.5237485590125e-05
 217    -0.00021430923968538
 218    6.4139169505537e-05
 219    8.7470320268407e-05
 220    -1.0446591706195e-06
 221    2.2345056502246e-05
 222    -8.4363606877039e-06
 223    -9.6732179673093e-06
 224    1.2784767106673e-06
 225    -2.4117815355835e-05
 226    -5.5670929677081e-05
 227    1.2334867012955e-05
 228    2.3361143012213e-06
 229    6.1717983079258e-07
 230    2.8478804281576e-06
 231    -4.6472136254497e-05
 232    4.5826570759527e-06
 233    -6.6564210248393e-06
 234    -1.1652125790403e-05
 235    1.9767901934213e-07
 236    -6.7063051296133e-06
 237    7.2856148772151e-05
 238    5.762553309293e-06
 239    -4.0189424954764e-06
 240    -1.4158165449634e-06
 241    -3.2650059052823e-05
 242    6.3264581389026e-05
 243    -2.1414492104288e-05
 244    -2.2120456555256e-06
 245    -1.4340017966545e-06
 246    1.4370941251859e-06
 247    -3.4415840805847e-07
 248    -9.491797961345e-07
 249    1.5612616625251e-05
 250    -1.2819270995642e-05
 251    3.2993722583289e-06
 252    1.5587735821123e-06
 253    2.9708928191665e-07
 254    1.2070790918641e-05
 255    -5.6556075489451e-05
 256    -1.4974582169794e-06
 257    -4.2095724044152e-06
 258    1.3518683460388e-06
 259    8.4259312436907e-06
 260    2.9230486741104e-05
 261    -5.6439338088587e-05
 262    2.1398112582903e-05