[Molden Format]
made by pyscf v[2.0.1]
[Atoms] (AU)
O   1   8     0.00000000000000     0.00000000000000    11.69764103529358
H   2   1     0.00000000000000     0.00000000000000     9.87423921339262
H   3   1    -0.05031916615174     1.78353065140343    12.07351273176025
O   4   8     0.00000000000000     0.00000000000000     2.31533471513237
C   5   6     0.00000000000000     0.00000000000000     0.00000000000000
C   6   6     2.01118073026938    -1.40227222164369    -1.50774939176400
C   7   6    -2.01249334291722     1.41331050329955    -1.50315905028694
H   8   1     3.32037363730244    -2.26721897153159    -0.13599698591495
C   9   6     3.45899267434009     0.28739631745591    -3.37437943254505
H   10   1     1.07662969841332    -2.94725144642667    -2.56541439481080
H   11   1    -2.67503415753480     0.18421555839588    -3.06194479365997
H   12   1    -1.07974048864772     3.03851734677796    -2.43674295017013
C   13   6    -4.21607110578555     2.32938802552922     0.11994162256091
H   14   1     4.24440173074564     1.93368664142019    -2.34976285512790
H   15   1     2.15020713235517     1.04714335134846    -4.81494497423699
C   16   6     5.60746363007797    -1.12419643481196    -4.70268606082550
H   17   1    -3.46838323670267     3.50951302338067     1.66946842715333
H   18   1    -5.11873485366228     0.68575958301209     1.04047743976495
C   19   6    -6.18314754751344     3.80909592987882    -1.39656589068747
H   20   1     6.93011263717176    -1.87550812453645    -3.26656317360070
C   21   6     7.06356622236532     0.52877932406334    -6.57829775293605
H   22   1     4.82318879258361    -2.78573437948532    -5.70504560381835
H   23   1    -6.91582688743803     2.61304780074712    -2.95074552451969
H   24   1    -5.26532430573853     5.45420349051338    -2.31005832200284
C   25   6    -8.39941882261433     4.73263980500213     0.21800571437956
H   26   1     7.83338371486801     2.19084139882824    -5.57093109900697
H   27   1     5.73544244039420     1.27376866537418    -8.01071492370229
C   28   6     9.21124858443101    -0.89699110072176    -7.88926949186242
H   29   1    -7.66272760055236     5.92277078003992     1.77035591474408
H   30   1    -9.31497248082589     3.08753015622020     1.12614408368786
C   31   6   -10.35481709231879     6.21833079391143    -1.30905206253246
H   32   1    10.58815905329501    -1.61074586756696    -6.49512691622620
H   33   1    10.23506248045667     0.32468009384095    -9.23072870921204
H   34   1     8.47665842847139    -2.53598436989925    -8.94921964622535
H   35   1    -9.48948872868064     7.90013588951020    -2.18823918416067
H   36   1   -11.93332513000955     6.86460487874102    -0.11255798845995
H   37   1   -11.15126291841033     5.04495968327630    -2.83849898862534
[GTO]
1 0
 s    8 1.00
                 11720  0.00070964594651845
                  1759  0.0054672722921914
                 400.8   0.027823118610189
                 113.7    0.10474773971146
                 37.03    0.28292084635691
                 13.27    0.44849523869833
                 5.025    0.27081688521277
                 1.013    0.01545029160744
 s    8 1.00
                 11720  -0.00031444341168873
                  1759  -0.0024821376810179
                 400.8  -0.012316355381583
                 113.7  -0.050538917343672
                 37.03   -0.13938490331632
                 13.27   -0.32507749481778
                 5.025   -0.22984830758785
                 1.013     1.0953793467883
 s    1 1.00
                0.3023                   1
 p    3 1.00
                  17.7   0.062679166281506
                 3.854    0.33353656587936
                 1.046    0.74123964163973
 p    1 1.00
                0.2753                   1
 d    1 1.00
                 1.185                   1

2 0
 s    3 1.00
                 13.01   0.033498726389998
                 1.962    0.23480080117413
                0.4446     0.8136829578829
 s    1 1.00
                 0.122                   1
 p    1 1.00
                 0.727                   1

3 0
 s    3 1.00
                 13.01   0.033498726389998
                 1.962    0.23480080117413
                0.4446     0.8136829578829
 s    1 1.00
                 0.122                   1
 p    1 1.00
                 0.727                   1

4 0
 s    8 1.00
                 11720  0.00070964594651845
                  1759  0.0054672722921914
                 400.8   0.027823118610189
                 113.7    0.10474773971146
                 37.03    0.28292084635691
                 13.27    0.44849523869833
                 5.025    0.27081688521277
                 1.013    0.01545029160744
 s    8 1.00
                 11720  -0.00031444341168873
                  1759  -0.0024821376810179
                 400.8  -0.012316355381583
                 113.7  -0.050538917343672
                 37.03   -0.13938490331632
                 13.27   -0.32507749481778
                 5.025   -0.22984830758785
                 1.013     1.0953793467883
 s    1 1.00
                0.3023                   1
 p    3 1.00
                  17.7   0.062679166281506
                 3.854    0.33353656587936
                 1.046    0.74123964163973
 p    1 1.00
                0.2753                   1
 d    1 1.00
                 1.185                   1

5 0
 s    8 1.00
                  6665  0.00069158396281299
                  1000  0.0053257961529341
                   228   0.027060721042034
                 64.71    0.10165684614077
                 21.06     0.2745748236174
                 7.495    0.44829431892377
                 2.797    0.28490261071525
                0.5215   0.015194859206082
 s    8 1.00
                  6665  -0.00029326965268655
                  1000  -0.0023180354739745
                   228  -0.011499786038565
                 64.71  -0.046826727009787
                 21.06   -0.12846616875047
                 7.495   -0.30126627246289
                 2.797   -0.25563070233011
                0.5215      1.093793361012
 s    1 1.00
                0.1596                   1
 p    3 1.00
                 9.439   0.056979251590039
                 2.002    0.31320721150073
                0.5456    0.76037674173753
 p    1 1.00
                0.1517                   1
 d    1 1.00
                  0.55                   1

6 0
 s    8 1.00
                  6665  0.00069158396281299
                  1000  0.0053257961529341
                   228   0.027060721042034
                 64.71    0.10165684614077
                 21.06     0.2745748236174
                 7.495    0.44829431892377
                 2.797    0.28490261071525
                0.5215   0.015194859206082
 s    8 1.00
                  6665  -0.00029326965268655
                  1000  -0.0023180354739745
                   228  -0.011499786038565
                 64.71  -0.046826727009787
                 21.06   -0.12846616875047
                 7.495   -0.30126627246289
                 2.797   -0.25563070233011
                0.5215      1.093793361012
 s    1 1.00
                0.1596                   1
 p    3 1.00
                 9.439   0.056979251590039
                 2.002    0.31320721150073
                0.5456    0.76037674173753
 p    1 1.00
                0.1517                   1
 d    1 1.00
                  0.55                   1

7 0
 s    8 1.00
                  6665  0.00069158396281299
                  1000  0.0053257961529341
                   228   0.027060721042034
                 64.71    0.10165684614077
                 21.06     0.2745748236174
                 7.495    0.44829431892377
                 2.797    0.28490261071525
                0.5215   0.015194859206082
 s    8 1.00
                  6665  -0.00029326965268655
                  1000  -0.0023180354739745
                   228  -0.011499786038565
                 64.71  -0.046826727009787
                 21.06   -0.12846616875047
                 7.495   -0.30126627246289
                 2.797   -0.25563070233011
                0.5215      1.093793361012
 s    1 1.00
                0.1596                   1
 p    3 1.00
                 9.439   0.056979251590039
                 2.002    0.31320721150073
                0.5456    0.76037674173753
 p    1 1.00
                0.1517                   1
 d    1 1.00
                  0.55                   1

8 0
 s    3 1.00
                 13.01   0.033498726389998
                 1.962    0.23480080117413
                0.4446     0.8136829578829
 s    1 1.00
                 0.122                   1
 p    1 1.00
                 0.727                   1

9 0
 s    8 1.00
                  6665  0.00069158396281299
                  1000  0.0053257961529341
                   228   0.027060721042034
                 64.71    0.10165684614077
                 21.06     0.2745748236174
                 7.495    0.44829431892377
                 2.797    0.28490261071525
                0.5215   0.015194859206082
 s    8 1.00
                  6665  -0.00029326965268655
                  1000  -0.0023180354739745
                   228  -0.011499786038565
                 64.71  -0.046826727009787
                 21.06   -0.12846616875047
                 7.495   -0.30126627246289
                 2.797   -0.25563070233011
                0.5215      1.093793361012
 s    1 1.00
                0.1596                   1
 p    3 1.00
                 9.439   0.056979251590039
                 2.002    0.31320721150073
                0.5456    0.76037674173753
 p    1 1.00
                0.1517                   1
 d    1 1.00
                  0.55                   1

10 0
 s    3 1.00
                 13.01   0.033498726389998
                 1.962    0.23480080117413
                0.4446     0.8136829578829
 s    1 1.00
                 0.122                   1
 p    1 1.00
                 0.727                   1

11 0
 s    3 1.00
                 13.01   0.033498726389998
                 1.962    0.23480080117413
                0.4446     0.8136829578829
 s    1 1.00
                 0.122                   1
 p    1 1.00
                 0.727                   1

12 0
 s    3 1.00
                 13.01   0.033498726389998
                 1.962    0.23480080117413
                0.4446     0.8136829578829
 s    1 1.00
                 0.122                   1
 p    1 1.00
                 0.727                   1

13 0
 s    8 1.00
                  6665  0.00069158396281299
                  1000  0.0053257961529341
                   228   0.027060721042034
                 64.71    0.10165684614077
                 21.06     0.2745748236174
                 7.495    0.44829431892377
                 2.797    0.28490261071525
                0.5215   0.015194859206082
 s    8 1.00
                  6665  -0.00029326965268655
                  1000  -0.0023180354739745
                   228  -0.011499786038565
                 64.71  -0.046826727009787
                 21.06   -0.12846616875047
                 7.495   -0.30126627246289
                 2.797   -0.25563070233011
                0.5215      1.093793361012
 s    1 1.00
                0.1596                   1
 p    3 1.00
                 9.439   0.056979251590039
                 2.002    0.31320721150073
                0.5456    0.76037674173753
 p    1 1.00
                0.1517                   1
 d    1 1.00
                  0.55                   1

14 0
 s    3 1.00
                 13.01   0.033498726389998
                 1.962    0.23480080117413
                0.4446     0.8136829578829
 s    1 1.00
                 0.122                   1
 p    1 1.00
                 0.727                   1

15 0
 s    3 1.00
                 13.01   0.033498726389998
                 1.962    0.23480080117413
                0.4446     0.8136829578829
 s    1 1.00
                 0.122                   1
 p    1 1.00
                 0.727                   1

16 0
 s    8 1.00
                  6665  0.00069158396281299
                  1000  0.0053257961529341
                   228   0.027060721042034
                 64.71    0.10165684614077
                 21.06     0.2745748236174
                 7.495    0.44829431892377
                 2.797    0.28490261071525
                0.5215   0.015194859206082
 s    8 1.00
                  6665  -0.00029326965268655
                  1000  -0.0023180354739745
                   228  -0.011499786038565
                 64.71  -0.046826727009787
                 21.06   -0.12846616875047
                 7.495   -0.30126627246289
                 2.797   -0.25563070233011
                0.5215      1.093793361012
 s    1 1.00
                0.1596                   1
 p    3 1.00
                 9.439   0.056979251590039
                 2.002    0.31320721150073
                0.5456    0.76037674173753
 p    1 1.00
                0.1517                   1
 d    1 1.00
                  0.55                   1

17 0
 s    3 1.00
                 13.01   0.033498726389998
                 1.962    0.23480080117413
                0.4446     0.8136829578829
 s    1 1.00
                 0.122                   1
 p    1 1.00
                 0.727                   1

18 0
 s    3 1.00
                 13.01   0.033498726389998
                 1.962    0.23480080117413
                0.4446     0.8136829578829
 s    1 1.00
                 0.122                   1
 p    1 1.00
                 0.727                   1

19 0
 s    8 1.00
                  6665  0.00069158396281299
                  1000  0.0053257961529341
                   228   0.027060721042034
                 64.71    0.10165684614077
                 21.06     0.2745748236174
                 7.495    0.44829431892377
                 2.797    0.28490261071525
                0.5215   0.015194859206082
 s    8 1.00
                  6665  -0.00029326965268655
                  1000  -0.0023180354739745
                   228  -0.011499786038565
                 64.71  -0.046826727009787
                 21.06   -0.12846616875047
                 7.495   -0.30126627246289
                 2.797   -0.25563070233011
                0.5215      1.093793361012
 s    1 1.00
                0.1596                   1
 p    3 1.00
                 9.439   0.056979251590039
                 2.002    0.31320721150073
                0.5456    0.76037674173753
 p    1 1.00
                0.1517                   1
 d    1 1.00
                  0.55                   1

20 0
 s    3 1.00
                 13.01   0.033498726389998
                 1.962    0.23480080117413
                0.4446     0.8136829578829
 s    1 1.00
                 0.122                   1
 p    1 1.00
                 0.727                   1

21 0
 s    8 1.00
                  6665  0.00069158396281299
                  1000  0.0053257961529341
                   228   0.027060721042034
                 64.71    0.10165684614077
                 21.06     0.2745748236174
                 7.495    0.44829431892377
                 2.797    0.28490261071525
                0.5215   0.015194859206082
 s    8 1.00
                  6665  -0.00029326965268655
                  1000  -0.0023180354739745
                   228  -0.011499786038565
                 64.71  -0.046826727009787
                 21.06   -0.12846616875047
                 7.495   -0.30126627246289
                 2.797   -0.25563070233011
                0.5215      1.093793361012
 s    1 1.00
                0.1596                   1
 p    3 1.00
                 9.439   0.056979251590039
                 2.002    0.31320721150073
                0.5456    0.76037674173753
 p    1 1.00
                0.1517                   1
 d    1 1.00
                  0.55                   1

22 0
 s    3 1.00
                 13.01   0.033498726389998
                 1.962    0.23480080117413
                0.4446     0.8136829578829
 s    1 1.00
                 0.122                   1
 p    1 1.00
                 0.727                   1

23 0
 s    3 1.00
                 13.01   0.033498726389998
                 1.962    0.23480080117413
                0.4446     0.8136829578829
 s    1 1.00
                 0.122                   1
 p    1 1.00
                 0.727                   1

24 0
 s    3 1.00
                 13.01   0.033498726389998
                 1.962    0.23480080117413
                0.4446     0.8136829578829
 s    1 1.00
                 0.122                   1
 p    1 1.00
                 0.727                   1

25 0
 s    8 1.00
                  6665  0.00069158396281299
                  1000  0.0053257961529341
                   228   0.027060721042034
                 64.71    0.10165684614077
                 21.06     0.2745748236174
                 7.495    0.44829431892377
                 2.797    0.28490261071525
                0.5215   0.015194859206082
 s    8 1.00
                  6665  -0.00029326965268655
                  1000  -0.0023180354739745
                   228  -0.011499786038565
                 64.71  -0.046826727009787
                 21.06   -0.12846616875047
                 7.495   -0.30126627246289
                 2.797   -0.25563070233011
                0.5215      1.093793361012
 s    1 1.00
                0.1596                   1
 p    3 1.00
                 9.439   0.056979251590039
                 2.002    0.31320721150073
                0.5456    0.76037674173753
 p    1 1.00
                0.1517                   1
 d    1 1.00
                  0.55                   1

26 0
 s    3 1.00
                 13.01   0.033498726389998
                 1.962    0.23480080117413
                0.4446     0.8136829578829
 s    1 1.00
                 0.122                   1
 p    1 1.00
                 0.727                   1

27 0
 s    3 1.00
                 13.01   0.033498726389998
                 1.962    0.23480080117413
                0.4446     0.8136829578829
 s    1 1.00
                 0.122                   1
 p    1 1.00
                 0.727                   1

28 0
 s    8 1.00
                  6665  0.00069158396281299
                  1000  0.0053257961529341
                   228   0.027060721042034
                 64.71    0.10165684614077
                 21.06     0.2745748236174
                 7.495    0.44829431892377
                 2.797    0.28490261071525
                0.5215   0.015194859206082
 s    8 1.00
                  6665  -0.00029326965268655
                  1000  -0.0023180354739745
                   228  -0.011499786038565
                 64.71  -0.046826727009787
                 21.06   -0.12846616875047
                 7.495   -0.30126627246289
                 2.797   -0.25563070233011
                0.5215      1.093793361012
 s    1 1.00
                0.1596                   1
 p    3 1.00
                 9.439   0.056979251590039
                 2.002    0.31320721150073
                0.5456    0.76037674173753
 p    1 1.00
                0.1517                   1
 d    1 1.00
                  0.55                   1

29 0
 s    3 1.00
                 13.01   0.033498726389998
                 1.962    0.23480080117413
                0.4446     0.8136829578829
 s    1 1.00
                 0.122                   1
 p    1 1.00
                 0.727                   1

30 0
 s    3 1.00
                 13.01   0.033498726389998
                 1.962    0.23480080117413
                0.4446     0.8136829578829
 s    1 1.00
                 0.122                   1
 p    1 1.00
                 0.727                   1

31 0
 s    8 1.00
                  6665  0.00069158396281299
                  1000  0.0053257961529341
                   228   0.027060721042034
                 64.71    0.10165684614077
                 21.06     0.2745748236174
                 7.495    0.44829431892377
                 2.797    0.28490261071525
                0.5215   0.015194859206082
 s    8 1.00
                  6665  -0.00029326965268655
                  1000  -0.0023180354739745
                   228  -0.011499786038565
                 64.71  -0.046826727009787
                 21.06   -0.12846616875047
                 7.495   -0.30126627246289
                 2.797   -0.25563070233011
                0.5215      1.093793361012
 s    1 1.00
                0.1596                   1
 p    3 1.00
                 9.439   0.056979251590039
                 2.002    0.31320721150073
                0.5456    0.76037674173753
 p    1 1.00
                0.1517                   1
 d    1 1.00
                  0.55                   1

32 0
 s    3 1.00
                 13.01   0.033498726389998
                 1.962    0.23480080117413
                0.4446     0.8136829578829
 s    1 1.00
                 0.122                   1
 p    1 1.00
                 0.727                   1

33 0
 s    3 1.00
                 13.01   0.033498726389998
                 1.962    0.23480080117413
                0.4446     0.8136829578829
 s    1 1.00
                 0.122                   1
 p    1 1.00
                 0.727                   1

34 0
 s    3 1.00
                 13.01   0.033498726389998
                 1.962    0.23480080117413
                0.4446     0.8136829578829
 s    1 1.00
                 0.122                   1
 p    1 1.00
                 0.727                   1

35 0
 s    3 1.00
                 13.01   0.033498726389998
                 1.962    0.23480080117413
                0.4446     0.8136829578829
 s    1 1.00
                 0.122                   1
 p    1 1.00
                 0.727                   1

36 0
 s    3 1.00
                 13.01   0.033498726389998
                 1.962    0.23480080117413
                0.4446     0.8136829578829
 s    1 1.00
                 0.122                   1
 p    1 1.00
                 0.727                   1

37 0
 s    3 1.00
                 13.01   0.033498726389998
                 1.962    0.23480080117413
                0.4446     0.8136829578829
 s    1 1.00
                 0.122                   1
 p    1 1.00
                 0.727                   1

[5d]
[7f]
[9g]

[MO]
 Sym= A
 Ene=               0
 Spin= Alpha
 Occup=    1.00000
   1    -5.0972319979844e-08
   2    4.7066526180152e-08
   3    6.9392804965137e-07
   4    7.1381942837322e-10
   5    -3.5578057724308e-08
   6    -2.4287182103062e-07
   7    5.950836532524e-09
   8    -1.4282197717912e-07
   9    -5.6892620452124e-07
  10    -7.4191108126688e-09
  11    2.9287788415426e-10
  12    -2.2828763634192e-09
  13    -1.9151836758329e-09
  14    -4.116606850727e-11
  15    2.4448481066212e-07
  16    -1.8889507624395e-06
  17    2.4445260955104e-09
  18    -3.461821485677e-11
  19    1.6800287210009e-09
  20    -5.4008262929164e-08
  21    5.9211653025494e-07
  22    -8.7540716107078e-10
  23    1.7886157055813e-08
  24    4.6910085777806e-09
  25    -7.5314873363159e-06
  26    8.4524939327322e-06
  27    0.0001222153395516
  28    6.7302780481186e-05
  29    -0.00010394659552784
  30    -8.4155470593392e-05
  31    0.0001227116219919
  32    -0.00014698766645542
  33    -9.156850406843e-05
  34    3.9970028888955e-06
  35    4.1756071162238e-06
  36    -6.2695386879495e-07
  37    8.2251547362297e-07
  38    1.800237607898e-06
  39    2.8745123405946e-05
  40    -0.0001576362806245
  41    -0.0006557163305773
  42    -0.00025974522712887
  43    0.00020670213901247
  44    0.00020235759448624
  45    -0.00040065234611183
  46    0.00035265793265267
  47    8.631098693503e-05
  48    1.3289915581118e-05
  49    2.6546523628393e-05
  50    -3.374069729754e-05
  51    1.6050751840059e-05
  52    2.2359789423861e-05
  53    7.2162843329364e-05
  54    0.00071353139103051
  55    -0.00018578577500422
  56    0.0007044732065497
  57    -2.239793112159e-05
  58    -0.00059149068326807
  59    -0.00032850857972109
  60    -1.4060853003976e-05
  61    0.00036977607636532
  62    9.7579213764114e-06
  63    -2.5784814129337e-06
  64    -1.8703930154905e-05
  65    -7.9400996918521e-06
  66    1.4482253871644e-05
  67    6.1931497309681e-07
  68    3.134757781687e-05
  69    0.00014043567468115
  70    5.0310209910761e-05
  71    -6.7817228225476e-05
  72    4.4068998422122e-05
  73    -0.00014405487718826
  74    -2.1690160763659e-05
  75    5.6134686110375e-05
  76    8.7920509672574e-06
  77    -4.9524003651932e-06
  78    6.8261279856577e-06
  79    4.6423524505166e-06
  80    2.6751146649366e-06
  81    0.00040106309901837
  82    6.1553375039373e-05
  83    -1.6002116082479e-06
  84    1.3217555956265e-05
  85    -6.0482534618685e-05
  86    0.00063159723399002
  87    0.0003323080905242
  88    0.00083624597748035
  89    -0.00012578522973193
  90    -0.00076197234315914
  91    0.00040829199763592
  92    -0.0002454210460496
  93    -0.00098914984515088
  94    0.00054872207818672
  95    4.3980806633647e-06
  96    -3.2823231269976e-05
  97    -2.3617949757775e-05
  98    6.0173587532498e-08
  99    2.2959346843317e-05
 100    0.00033749353407249
 101    2.5123006492153e-05
 102    6.331081481745e-05
 103    2.2436821253562e-05
 104    -1.0236101319919e-05
 105    2.2544873660563e-05
 106    -4.8863929003593e-05
 107    9.5025979357162e-06
 108    -7.1865793614874e-06
 109    -4.7998158615114e-06
 110    -1.1808835321528e-05
 111    -6.5694190111607e-05
 112    5.4476890462545e-06
 113    2.2741597463782e-06
 114    1.473546632552e-06
 115    -0.00083535672520726
 116    4.1751872355199e-06
 117    -0.00015379190343417
 118    -1.8845339450124e-05
 119    4.5570174156808e-06
 120    2.5457467662987e-05
 121    -0.00013987858773612
 122    0.00012122844274553
 123    4.8999633459957e-05
 124    -1.7708693694258e-06
 125    8.7706155317691e-06
 126    -4.1526568324459e-06
 127    -3.9242511174904e-06
 128    4.7934740101606e-06
 129    -0.00024665943745744
 130    0.00011845234700149
 131    3.6393489430118e-05
 132    1.9443307940655e-05
 133    -4.6946106646226e-05
 134    -0.00028259560565944
 135    0.00014961539028323
 136    4.1326563444881e-05
 137    2.3156245493094e-05
 138    -2.7379125035925e-05
 139     0.039903713159096
 140    0.00044028155890114
 141    -0.0039039871246769
 142    -0.00014010643507029
 143    -3.7870263759058e-05
 144    0.00013372148278883
 145    -0.00088555632946206
 146    -0.0011166843724077
 147    0.0012201484644637
 148     1.52694662153e-05
 149    -7.8368742686669e-05
 150    -0.0001030441748539
 151    -2.4557212164857e-05
 152    7.4881651086512e-05
 153    6.2779924308397e-06
 154    -4.2585534582616e-05
 155    9.9214149520189e-07
 156    -7.1749438350919e-07
 157    1.6081723550798e-06
 158    9.0497238129927e-06
 159    1.0514863203246e-05
 160    3.2329692255516e-06
 161    -1.4976538531452e-06
 162    -1.0865777056964e-06
 163    0.0010973889621955
 164    1.9003026435906e-05
 165    -6.7570078236943e-05
 166    4.9454399221326e-06
 167    -1.6339538676731e-06
 168    1.1169897563769e-06
 169    -1.9345345427079e-05
 170    5.2353165087138e-06
 171    -1.720880280096e-06
 172    1.3027402351726e-06
 173    -3.542538435159e-07
 174    -1.4710432194896e-06
 175    -2.8914136530677e-06
 176    1.7707467184155e-06
 177    0.00010434009156392
 178    -0.00019913349702907
 179    5.533973167568e-06
 180    -3.7463230712164e-05
 181    6.0048569620137e-05
 182      -1.0002300417032
 183    -0.0051286530544204
 184     0.012228765168467
 185    -5.8057282162827e-06
 186    -0.00020173987413475
 187    8.4999883148005e-05
 188    -0.00021160500619311
 189    -0.0013964081088009
 190    0.00069415584070173
 191    -1.2426260336584e-06
 192    -0.00031640296346186
 193    -8.8098381913193e-05
 194    6.3680214694314e-05
 195    -1.5759178979432e-06
 196    0.00010997933923165
 197    -0.00016589515643003
 198    -4.2658806924396e-05
 199    -5.5239302938561e-05
 200    6.8844109441741e-06
 201    6.7002537655976e-06
 202    1.1060361552671e-05
 203    1.6152243567158e-06
 204    3.7913509557317e-07
 205    7.4585572547272e-07
 206    5.9169976810558e-06
 207    2.0479705475398e-05
 208    6.8784955387553e-07
 209    -1.7824659892169e-06
 210    1.3452332474871e-07
 211    -0.00029391910473334
 212    -7.7732071701041e-07
 213    1.6836510020937e-06
 214    -2.2908998603242e-06
 215    2.9283430607906e-07
 216    3.4397633829435e-06
 217    -4.3369651905313e-05
 218    2.3974314274384e-05
 219    -1.7903137068773e-05
 220    2.4592798072458e-07
 221    7.1513217624733e-07
 222    -1.5171054284803e-06
 223    -3.7656698225358e-07
 224    3.1054955719494e-07
 225    -0.0002040596419077
 226    -0.0012010033536463
 227    -0.0001967318245674
 228    -0.00030268073742717
 229    -0.00026443031713096
 230    -0.00019811765600486
 231    -0.0012248614590884
 232    0.00030595148364429
 233    -8.430339022811e-05
 234    0.00031713253279728
 235    -0.055909968267646
 236    -0.00021032899103628
 237    -0.0021833828716696
 238    0.00011383799209124
 239    -7.0786738013816e-05
 240    -7.0492121228443e-05
 241    0.00081497140947628
 242    -0.00054347799036481
 243    -0.00050127649495428
 244    -5.4458861869393e-05
 245    -0.00011642011051936
 246    9.6679247023105e-05
 247    4.7289114242023e-05
 248    -0.00016012079749065
 249    2.2897957155937e-06
 250    6.8661171837578e-06
 251    1.2573758080905e-06
 252    -1.7840774587502e-06
 253    5.601023102139e-07
 254    1.9189272120175e-06
 255    -2.4344001555638e-06
 256    1.4181916247399e-06
 257    -9.5770098576461e-07
 258    1.6144971852627e-06
 259    5.2581727646559e-05
 260    5.2559937278852e-06
 261    -3.5117260484842e-05
 262    8.7261531656271e-07
 263    -6.7963656336839e-07