[Molden Format]
made by pyscf v[2.0.1]
[Atoms] (AU)
O   1   8     0.00000000000000     0.00000000000000    10.56380536055454
H   2   1     0.00000000000000     0.00000000000000     8.74040353865358
H   3   1    -0.05031916615174     1.78353065140343    10.93967705702121
O   4   8     0.00000000000000     0.00000000000000     2.31533471513237
C   5   6     0.00000000000000     0.00000000000000     0.00000000000000
C   6   6     2.01118073026938    -1.40227222164369    -1.50774939176400
C   7   6    -2.01249334291722     1.41331050329955    -1.50315905028694
H   8   1     3.32037363730244    -2.26721897153159    -0.13599698591495
C   9   6     3.45899267434009     0.28739631745591    -3.37437943254505
H   10   1     1.07662969841332    -2.94725144642667    -2.56541439481080
H   11   1    -2.67503415753480     0.18421555839588    -3.06194479365997
H   12   1    -1.07974048864772     3.03851734677796    -2.43674295017013
C   13   6    -4.21607110578555     2.32938802552922     0.11994162256091
H   14   1     4.24440173074564     1.93368664142019    -2.34976285512790
H   15   1     2.15020713235517     1.04714335134846    -4.81494497423699
C   16   6     5.60746363007797    -1.12419643481196    -4.70268606082550
H   17   1    -3.46838323670267     3.50951302338067     1.66946842715333
H   18   1    -5.11873485366228     0.68575958301209     1.04047743976495
C   19   6    -6.18314754751344     3.80909592987882    -1.39656589068747
H   20   1     6.93011263717176    -1.87550812453645    -3.26656317360070
C   21   6     7.06356622236532     0.52877932406334    -6.57829775293605
H   22   1     4.82318879258361    -2.78573437948532    -5.70504560381835
H   23   1    -6.91582688743803     2.61304780074712    -2.95074552451969
H   24   1    -5.26532430573853     5.45420349051338    -2.31005832200284
C   25   6    -8.39941882261433     4.73263980500213     0.21800571437956
H   26   1     7.83338371486801     2.19084139882824    -5.57093109900697
H   27   1     5.73544244039420     1.27376866537418    -8.01071492370229
C   28   6     9.21124858443101    -0.89699110072176    -7.88926949186242
H   29   1    -7.66272760055236     5.92277078003992     1.77035591474408
H   30   1    -9.31497248082589     3.08753015622020     1.12614408368786
C   31   6   -10.35481709231879     6.21833079391143    -1.30905206253246
H   32   1    10.58815905329501    -1.61074586756696    -6.49512691622620
H   33   1    10.23506248045667     0.32468009384095    -9.23072870921204
H   34   1     8.47665842847139    -2.53598436989925    -8.94921964622535
H   35   1    -9.48948872868064     7.90013588951020    -2.18823918416067
H   36   1   -11.93332513000955     6.86460487874102    -0.11255798845995
H   37   1   -11.15126291841033     5.04495968327630    -2.83849898862534
[GTO]
1 0
 s    8 1.00
                 11720  0.00070964594651845
                  1759  0.0054672722921914
                 400.8   0.027823118610189
                 113.7    0.10474773971146
                 37.03    0.28292084635691
                 13.27    0.44849523869833
                 5.025    0.27081688521277
                 1.013    0.01545029160744
 s    8 1.00
                 11720  -0.00031444341168873
                  1759  -0.0024821376810179
                 400.8  -0.012316355381583
                 113.7  -0.050538917343672
                 37.03   -0.13938490331632
                 13.27   -0.32507749481778
                 5.025   -0.22984830758785
                 1.013     1.0953793467883
 s    1 1.00
                0.3023                   1
 p    3 1.00
                  17.7   0.062679166281506
                 3.854    0.33353656587936
                 1.046    0.74123964163973
 p    1 1.00
                0.2753                   1
 d    1 1.00
                 1.185                   1

2 0
 s    3 1.00
                 13.01   0.033498726389998
                 1.962    0.23480080117413
                0.4446     0.8136829578829
 s    1 1.00
                 0.122                   1
 p    1 1.00
                 0.727                   1

3 0
 s    3 1.00
                 13.01   0.033498726389998
                 1.962    0.23480080117413
                0.4446     0.8136829578829
 s    1 1.00
                 0.122                   1
 p    1 1.00
                 0.727                   1

4 0
 s    8 1.00
                 11720  0.00070964594651845
                  1759  0.0054672722921914
                 400.8   0.027823118610189
                 113.7    0.10474773971146
                 37.03    0.28292084635691
                 13.27    0.44849523869833
                 5.025    0.27081688521277
                 1.013    0.01545029160744
 s    8 1.00
                 11720  -0.00031444341168873
                  1759  -0.0024821376810179
                 400.8  -0.012316355381583
                 113.7  -0.050538917343672
                 37.03   -0.13938490331632
                 13.27   -0.32507749481778
                 5.025   -0.22984830758785
                 1.013     1.0953793467883
 s    1 1.00
                0.3023                   1
 p    3 1.00
                  17.7   0.062679166281506
                 3.854    0.33353656587936
                 1.046    0.74123964163973
 p    1 1.00
                0.2753                   1
 d    1 1.00
                 1.185                   1

5 0
 s    8 1.00
                  6665  0.00069158396281299
                  1000  0.0053257961529341
                   228   0.027060721042034
                 64.71    0.10165684614077
                 21.06     0.2745748236174
                 7.495    0.44829431892377
                 2.797    0.28490261071525
                0.5215   0.015194859206082
 s    8 1.00
                  6665  -0.00029326965268655
                  1000  -0.0023180354739745
                   228  -0.011499786038565
                 64.71  -0.046826727009787
                 21.06   -0.12846616875047
                 7.495   -0.30126627246289
                 2.797   -0.25563070233011
                0.5215      1.093793361012
 s    1 1.00
                0.1596                   1
 p    3 1.00
                 9.439   0.056979251590039
                 2.002    0.31320721150073
                0.5456    0.76037674173753
 p    1 1.00
                0.1517                   1
 d    1 1.00
                  0.55                   1

6 0
 s    8 1.00
                  6665  0.00069158396281299
                  1000  0.0053257961529341
                   228   0.027060721042034
                 64.71    0.10165684614077
                 21.06     0.2745748236174
                 7.495    0.44829431892377
                 2.797    0.28490261071525
                0.5215   0.015194859206082
 s    8 1.00
                  6665  -0.00029326965268655
                  1000  -0.0023180354739745
                   228  -0.011499786038565
                 64.71  -0.046826727009787
                 21.06   -0.12846616875047
                 7.495   -0.30126627246289
                 2.797   -0.25563070233011
                0.5215      1.093793361012
 s    1 1.00
                0.1596                   1
 p    3 1.00
                 9.439   0.056979251590039
                 2.002    0.31320721150073
                0.5456    0.76037674173753
 p    1 1.00
                0.1517                   1
 d    1 1.00
                  0.55                   1

7 0
 s    8 1.00
                  6665  0.00069158396281299
                  1000  0.0053257961529341
                   228   0.027060721042034
                 64.71    0.10165684614077
                 21.06     0.2745748236174
                 7.495    0.44829431892377
                 2.797    0.28490261071525
                0.5215   0.015194859206082
 s    8 1.00
                  6665  -0.00029326965268655
                  1000  -0.0023180354739745
                   228  -0.011499786038565
                 64.71  -0.046826727009787
                 21.06   -0.12846616875047
                 7.495   -0.30126627246289
                 2.797   -0.25563070233011
                0.5215      1.093793361012
 s    1 1.00
                0.1596                   1
 p    3 1.00
                 9.439   0.056979251590039
                 2.002    0.31320721150073
                0.5456    0.76037674173753
 p    1 1.00
                0.1517                   1
 d    1 1.00
                  0.55                   1

8 0
 s    3 1.00
                 13.01   0.033498726389998
                 1.962    0.23480080117413
                0.4446     0.8136829578829
 s    1 1.00
                 0.122                   1
 p    1 1.00
                 0.727                   1

9 0
 s    8 1.00
                  6665  0.00069158396281299
                  1000  0.0053257961529341
                   228   0.027060721042034
                 64.71    0.10165684614077
                 21.06     0.2745748236174
                 7.495    0.44829431892377
                 2.797    0.28490261071525
                0.5215   0.015194859206082
 s    8 1.00
                  6665  -0.00029326965268655
                  1000  -0.0023180354739745
                   228  -0.011499786038565
                 64.71  -0.046826727009787
                 21.06   -0.12846616875047
                 7.495   -0.30126627246289
                 2.797   -0.25563070233011
                0.5215      1.093793361012
 s    1 1.00
                0.1596                   1
 p    3 1.00
                 9.439   0.056979251590039
                 2.002    0.31320721150073
                0.5456    0.76037674173753
 p    1 1.00
                0.1517                   1
 d    1 1.00
                  0.55                   1

10 0
 s    3 1.00
                 13.01   0.033498726389998
                 1.962    0.23480080117413
                0.4446     0.8136829578829
 s    1 1.00
                 0.122                   1
 p    1 1.00
                 0.727                   1

11 0
 s    3 1.00
                 13.01   0.033498726389998
                 1.962    0.23480080117413
                0.4446     0.8136829578829
 s    1 1.00
                 0.122                   1
 p    1 1.00
                 0.727                   1

12 0
 s    3 1.00
                 13.01   0.033498726389998
                 1.962    0.23480080117413
                0.4446     0.8136829578829
 s    1 1.00
                 0.122                   1
 p    1 1.00
                 0.727                   1

13 0
 s    8 1.00
                  6665  0.00069158396281299
                  1000  0.0053257961529341
                   228   0.027060721042034
                 64.71    0.10165684614077
                 21.06     0.2745748236174
                 7.495    0.44829431892377
                 2.797    0.28490261071525
                0.5215   0.015194859206082
 s    8 1.00
                  6665  -0.00029326965268655
                  1000  -0.0023180354739745
                   228  -0.011499786038565
                 64.71  -0.046826727009787
                 21.06   -0.12846616875047
                 7.495   -0.30126627246289
                 2.797   -0.25563070233011
                0.5215      1.093793361012
 s    1 1.00
                0.1596                   1
 p    3 1.00
                 9.439   0.056979251590039
                 2.002    0.31320721150073
                0.5456    0.76037674173753
 p    1 1.00
                0.1517                   1
 d    1 1.00
                  0.55                   1

14 0
 s    3 1.00
                 13.01   0.033498726389998
                 1.962    0.23480080117413
                0.4446     0.8136829578829
 s    1 1.00
                 0.122                   1
 p    1 1.00
                 0.727                   1

15 0
 s    3 1.00
                 13.01   0.033498726389998
                 1.962    0.23480080117413
                0.4446     0.8136829578829
 s    1 1.00
                 0.122                   1
 p    1 1.00
                 0.727                   1

16 0
 s    8 1.00
                  6665  0.00069158396281299
                  1000  0.0053257961529341
                   228   0.027060721042034
                 64.71    0.10165684614077
                 21.06     0.2745748236174
                 7.495    0.44829431892377
                 2.797    0.28490261071525
                0.5215   0.015194859206082
 s    8 1.00
                  6665  -0.00029326965268655
                  1000  -0.0023180354739745
                   228  -0.011499786038565
                 64.71  -0.046826727009787
                 21.06   -0.12846616875047
                 7.495   -0.30126627246289
                 2.797   -0.25563070233011
                0.5215      1.093793361012
 s    1 1.00
                0.1596                   1
 p    3 1.00
                 9.439   0.056979251590039
                 2.002    0.31320721150073
                0.5456    0.76037674173753
 p    1 1.00
                0.1517                   1
 d    1 1.00
                  0.55                   1

17 0
 s    3 1.00
                 13.01   0.033498726389998
                 1.962    0.23480080117413
                0.4446     0.8136829578829
 s    1 1.00
                 0.122                   1
 p    1 1.00
                 0.727                   1

18 0
 s    3 1.00
                 13.01   0.033498726389998
                 1.962    0.23480080117413
                0.4446     0.8136829578829
 s    1 1.00
                 0.122                   1
 p    1 1.00
                 0.727                   1

19 0
 s    8 1.00
                  6665  0.00069158396281299
                  1000  0.0053257961529341
                   228   0.027060721042034
                 64.71    0.10165684614077
                 21.06     0.2745748236174
                 7.495    0.44829431892377
                 2.797    0.28490261071525
                0.5215   0.015194859206082
 s    8 1.00
                  6665  -0.00029326965268655
                  1000  -0.0023180354739745
                   228  -0.011499786038565
                 64.71  -0.046826727009787
                 21.06   -0.12846616875047
                 7.495   -0.30126627246289
                 2.797   -0.25563070233011
                0.5215      1.093793361012
 s    1 1.00
                0.1596                   1
 p    3 1.00
                 9.439   0.056979251590039
                 2.002    0.31320721150073
                0.5456    0.76037674173753
 p    1 1.00
                0.1517                   1
 d    1 1.00
                  0.55                   1

20 0
 s    3 1.00
                 13.01   0.033498726389998
                 1.962    0.23480080117413
                0.4446     0.8136829578829
 s    1 1.00
                 0.122                   1
 p    1 1.00
                 0.727                   1

21 0
 s    8 1.00
                  6665  0.00069158396281299
                  1000  0.0053257961529341
                   228   0.027060721042034
                 64.71    0.10165684614077
                 21.06     0.2745748236174
                 7.495    0.44829431892377
                 2.797    0.28490261071525
                0.5215   0.015194859206082
 s    8 1.00
                  6665  -0.00029326965268655
                  1000  -0.0023180354739745
                   228  -0.011499786038565
                 64.71  -0.046826727009787
                 21.06   -0.12846616875047
                 7.495   -0.30126627246289
                 2.797   -0.25563070233011
                0.5215      1.093793361012
 s    1 1.00
                0.1596                   1
 p    3 1.00
                 9.439   0.056979251590039
                 2.002    0.31320721150073
                0.5456    0.76037674173753
 p    1 1.00
                0.1517                   1
 d    1 1.00
                  0.55                   1

22 0
 s    3 1.00
                 13.01   0.033498726389998
                 1.962    0.23480080117413
                0.4446     0.8136829578829
 s    1 1.00
                 0.122                   1
 p    1 1.00
                 0.727                   1

23 0
 s    3 1.00
                 13.01   0.033498726389998
                 1.962    0.23480080117413
                0.4446     0.8136829578829
 s    1 1.00
                 0.122                   1
 p    1 1.00
                 0.727                   1

24 0
 s    3 1.00
                 13.01   0.033498726389998
                 1.962    0.23480080117413
                0.4446     0.8136829578829
 s    1 1.00
                 0.122                   1
 p    1 1.00
                 0.727                   1

25 0
 s    8 1.00
                  6665  0.00069158396281299
                  1000  0.0053257961529341
                   228   0.027060721042034
                 64.71    0.10165684614077
                 21.06     0.2745748236174
                 7.495    0.44829431892377
                 2.797    0.28490261071525
                0.5215   0.015194859206082
 s    8 1.00
                  6665  -0.00029326965268655
                  1000  -0.0023180354739745
                   228  -0.011499786038565
                 64.71  -0.046826727009787
                 21.06   -0.12846616875047
                 7.495   -0.30126627246289
                 2.797   -0.25563070233011
                0.5215      1.093793361012
 s    1 1.00
                0.1596                   1
 p    3 1.00
                 9.439   0.056979251590039
                 2.002    0.31320721150073
                0.5456    0.76037674173753
 p    1 1.00
                0.1517                   1
 d    1 1.00
                  0.55                   1

26 0
 s    3 1.00
                 13.01   0.033498726389998
                 1.962    0.23480080117413
                0.4446     0.8136829578829
 s    1 1.00
                 0.122                   1
 p    1 1.00
                 0.727                   1

27 0
 s    3 1.00
                 13.01   0.033498726389998
                 1.962    0.23480080117413
                0.4446     0.8136829578829
 s    1 1.00
                 0.122                   1
 p    1 1.00
                 0.727                   1

28 0
 s    8 1.00
                  6665  0.00069158396281299
                  1000  0.0053257961529341
                   228   0.027060721042034
                 64.71    0.10165684614077
                 21.06     0.2745748236174
                 7.495    0.44829431892377
                 2.797    0.28490261071525
                0.5215   0.015194859206082
 s    8 1.00
                  6665  -0.00029326965268655
                  1000  -0.0023180354739745
                   228  -0.011499786038565
                 64.71  -0.046826727009787
                 21.06   -0.12846616875047
                 7.495   -0.30126627246289
                 2.797   -0.25563070233011
                0.5215      1.093793361012
 s    1 1.00
                0.1596                   1
 p    3 1.00
                 9.439   0.056979251590039
                 2.002    0.31320721150073
                0.5456    0.76037674173753
 p    1 1.00
                0.1517                   1
 d    1 1.00
                  0.55                   1

29 0
 s    3 1.00
                 13.01   0.033498726389998
                 1.962    0.23480080117413
                0.4446     0.8136829578829
 s    1 1.00
                 0.122                   1
 p    1 1.00
                 0.727                   1

30 0
 s    3 1.00
                 13.01   0.033498726389998
                 1.962    0.23480080117413
                0.4446     0.8136829578829
 s    1 1.00
                 0.122                   1
 p    1 1.00
                 0.727                   1

31 0
 s    8 1.00
                  6665  0.00069158396281299
                  1000  0.0053257961529341
                   228   0.027060721042034
                 64.71    0.10165684614077
                 21.06     0.2745748236174
                 7.495    0.44829431892377
                 2.797    0.28490261071525
                0.5215   0.015194859206082
 s    8 1.00
                  6665  -0.00029326965268655
                  1000  -0.0023180354739745
                   228  -0.011499786038565
                 64.71  -0.046826727009787
                 21.06   -0.12846616875047
                 7.495   -0.30126627246289
                 2.797   -0.25563070233011
                0.5215      1.093793361012
 s    1 1.00
                0.1596                   1
 p    3 1.00
                 9.439   0.056979251590039
                 2.002    0.31320721150073
                0.5456    0.76037674173753
 p    1 1.00
                0.1517                   1
 d    1 1.00
                  0.55                   1

32 0
 s    3 1.00
                 13.01   0.033498726389998
                 1.962    0.23480080117413
                0.4446     0.8136829578829
 s    1 1.00
                 0.122                   1
 p    1 1.00
                 0.727                   1

33 0
 s    3 1.00
                 13.01   0.033498726389998
                 1.962    0.23480080117413
                0.4446     0.8136829578829
 s    1 1.00
                 0.122                   1
 p    1 1.00
                 0.727                   1

34 0
 s    3 1.00
                 13.01   0.033498726389998
                 1.962    0.23480080117413
                0.4446     0.8136829578829
 s    1 1.00
                 0.122                   1
 p    1 1.00
                 0.727                   1

35 0
 s    3 1.00
                 13.01   0.033498726389998
                 1.962    0.23480080117413
                0.4446     0.8136829578829
 s    1 1.00
                 0.122                   1
 p    1 1.00
                 0.727                   1

36 0
 s    3 1.00
                 13.01   0.033498726389998
                 1.962    0.23480080117413
                0.4446     0.8136829578829
 s    1 1.00
                 0.122                   1
 p    1 1.00
                 0.727                   1

37 0
 s    3 1.00
                 13.01   0.033498726389998
                 1.962    0.23480080117413
                0.4446     0.8136829578829
 s    1 1.00
                 0.122                   1
 p    1 1.00
                 0.727                   1

[5d]
[7f]
[9g]

[MO]
 Sym= A
 Ene=               0
 Spin= Alpha
 Occup=    1.00000
   1    -7.3541017756596e-08
   2    2.5685895742922e-07
   3    1.2501485950044e-06
   4    -4.5445681748473e-09
   5    -5.0291301972969e-08
   6    -6.9569678451082e-07
   7    1.3772519463499e-08
   8    -1.2616226046607e-07
   9    -9.5570181312576e-07
  10    -9.5856541708863e-08
  11    2.995324041241e-09
  12    -6.0863983952062e-09
  13    -9.5593724882911e-09
  14    -1.3403545606464e-10
  15    5.5961918924733e-07
  16    -3.5054055960957e-06
  17    2.9490881383114e-08
  18    -3.2192116861848e-08
  19    3.3087225607668e-07
  20    -4.9760049235398e-08
  21    7.0318191450041e-07
  22    -5.3397456147998e-09
  23    9.0610804898098e-08
  24    -1.4693905460466e-08
  25    -7.5784549358098e-06
  26     8.51645154418e-06
  27    0.00012306118073495
  28    6.719217249057e-05
  29    -0.00010395625841792
  30    -8.3972197566893e-05
  31    0.00012271359906769
  32    -0.00014713727123117
  33    -9.2047610777845e-05
  34    4.0176952424852e-06
  35    4.193758194762e-06
  36    -6.6267910816001e-07
  37    8.2611139766946e-07
  38    1.8045191195722e-06
  39    2.8532773450293e-05
  40    -0.00015827676506895
  41    -0.00065609330799432
  42    -0.00025984015319366
  43    0.00020715623366992
  44    0.00020225023197048
  45    -0.00040078408189277
  46    0.00035300833255652
  47    8.5752336624874e-05
  48    1.3259162222765e-05
  49    2.6416673606772e-05
  50    -3.3667307998707e-05
  51    1.6083879998254e-05
  52    2.2352992843079e-05
  53    7.2244279905564e-05
  54    0.00071415387090613
  55    -0.00018472815118391
  56    0.0007043328239636
  57    -2.1793685948141e-05
  58    -0.0005915536581287
  59    -0.00032822287321167
  60    -1.3706912758987e-05
  61    0.00036962986657933
  62    9.7161737672038e-06
  63    -2.4638501133462e-06
  64    -1.8770720508864e-05
  65    -8.0720588814742e-06
  66    1.4514866050549e-05
  67    5.8288033428344e-07
  68    3.1322198792952e-05
  69    0.00013986853031623
  70    5.0039405159857e-05
  71    -6.7766868910984e-05
  72    4.412436144482e-05
  73    -0.00014432270102206
  74    -2.1553439431643e-05
  75    5.6062811873432e-05
  76    8.7952981719611e-06
  77    -4.9447728982574e-06
  78    6.8317212599172e-06
  79    4.6668754081349e-06
  80    2.6599565172351e-06
  81    0.00040111581074647
  82    6.1488785426474e-05
  83    -1.6473963536138e-06
  84    1.3273788324174e-05
  85    -6.0458282670008e-05
  86    0.00063160034863392
  87    0.00033129552169152
  88    0.00083657830607192
  89    -0.00012775455110093
  90    -0.00076018197897216
  91    0.00040934864430499
  92    -0.00024577155843925
  93    -0.00098855087364389
  94    0.00054878921777825
  95    4.4748909062993e-06
  96    -3.2697812194003e-05
  97    -2.3690785319947e-05
  98    4.6318987590113e-08
  99    2.3135535503722e-05
 100    0.00033757427870863
 101    2.5181740839362e-05
 102    6.3280284759999e-05
 103    2.2488863684734e-05
 104    -1.0220105882291e-05
 105    2.2587311824281e-05
 106    -4.8815667427837e-05
 107    9.4951029617004e-06
 108    -7.1753501051858e-06
 109    -4.8051153007382e-06
 110    -1.1932851704073e-05
 111    -6.5767826165596e-05
 112    5.4434093087848e-06
 113    2.2741803664801e-06
 114    1.4592017930554e-06
 115    -0.00084423393932126
 116    4.2105458035189e-06
 117    -0.00015331845494818
 118    -1.8713592632293e-05
 119    4.4957013940524e-06
 120    2.5328414624112e-05
 121    -0.00013960359506078
 122    0.00012113813748838
 123    4.8992354875948e-05
 124    -1.7662024777903e-06
 125    8.7555164744275e-06
 126    -4.1270308767808e-06
 127    -3.9184852404765e-06
 128    4.7846249256948e-06
 129    -0.00024611049809657
 130    0.00011887553947454
 131    3.6343670780232e-05
 132    1.9468712776559e-05
 133    -4.6963983269867e-05
 134    -0.00028204126494242
 135    0.00015007969623681
 136    4.132359923901e-05
 137    2.320466790703e-05
 138    -2.7341973040972e-05
 139     0.040031092347468
 140    0.00043912829537296
 141    -0.0039060942511254
 142    -0.00013834402711423
 143    -3.8966689668577e-05
 144    0.00013259537173592
 145    -0.00088318530518003
 146    -0.0011175515568261
 147    0.0012184345223978
 148    1.5331179515262e-05
 149    -7.8413468406147e-05
 150    -0.00010330980049913
 151    -2.4652131922788e-05
 152    7.5138068163217e-05
 153    6.2655854496691e-06
 154    -4.2748621979496e-05
 155    9.9471638961972e-07
 156    -7.0319080368757e-07
 157    1.6115232608307e-06
 158    9.0369927969292e-06
 159    1.0477082005139e-05
 160    3.2282212930236e-06
 161    -1.4898403802435e-06
 162    -1.0992595219304e-06
 163    0.0011410082758389
 164    1.9201032915817e-05
 165    -6.7997401309842e-05
 166    4.9435729088665e-06
 167    -1.6240782516779e-06
 168    1.0963316229227e-06
 169    -1.9343849540703e-05
 170    5.216580824308e-06
 171    -1.7293242479657e-06
 172    1.2948668366181e-06
 173    -3.5168576556102e-07
 174    -1.4698452870701e-06
 175    -2.8930710302891e-06
 176    1.7693872039991e-06
 177    0.00010439368962179
 178    -0.00019884461295315
 179    5.5222936792237e-06
 180    -3.7483359153053e-05
 181    6.0149626143877e-05
 182      -1.0002743343913
 183    -0.005128808024223
 184     0.012230503512139
 185    -5.0339598644394e-06
 186    -0.00020154533904701
 187    8.4351701924307e-05
 188    -0.00021118090879607
 189    -0.0013966285518338
 190    0.00069385397904497
 191    -1.2369970001331e-06
 192    -0.00031617580636883
 193    -8.8072215709084e-05
 194    6.3607995852359e-05
 195    -1.5230015916316e-06
 196    0.00011003304940808
 197    -0.00016560682918429
 198    -4.2751464463605e-05
 199    -5.5297928571472e-05
 200    6.8964459477859e-06
 201    6.6920750067105e-06
 202    1.1118486039244e-05
 203    1.6096320647745e-06
 204    3.688998093139e-07
 205    7.3313054832996e-07
 206    5.9168312977622e-06
 207    2.0541386471988e-05
 208    6.9338199930248e-07
 209    -1.7646047601442e-06
 210    1.2675711734059e-07
 211    -0.00029149651877157
 212    -7.4997506937284e-07
 213    1.7459797954226e-06
 214    -2.2725900538255e-06
 215    2.8469614155471e-07
 216    3.4259563309942e-06
 217    -4.32533036488e-05
 218    2.3923601124367e-05
 219    -1.7913880185725e-05
 220    2.4520437126824e-07
 221    7.1699186147242e-07
 222    -1.5171174437362e-06
 223    -3.7973392836523e-07
 224    3.155096366149e-07
 225    -0.00020420484186628
 226    -0.0012008187320913
 227    -0.00019668735393478
 228    -0.00030268894361456
 229    -0.00026439558530202
 230    -0.00019822502071681
 231    -0.0012246923285115
 232    0.00030595740708856
 233    -8.4355274951326e-05
 234    0.00031712226509784
 235    -0.055021073222712
 236    -0.00020606288653749
 237    -0.0021921431666995
 238    0.00011418025741033
 239    -7.1007875728462e-05
 240    -7.0697513588055e-05
 241    0.00081603186318642
 242    -0.00054351563512554
 243    -0.0005021666696903
 244    -5.4373325095987e-05
 245    -0.00011622775081008
 246    9.6501295414657e-05
 247    4.719523521627e-05
 248    -0.00015985111819396
 249    2.2840672526006e-06
 250    6.8923467464149e-06
 251    1.2586200850754e-06
 252    -1.7855932708471e-06
 253    5.5498952985941e-07
 254    1.9201532127846e-06
 255    -2.4221512334424e-06
 256    1.4178816193632e-06
 257    -9.5750798572046e-07
 258    1.610151545462e-06
 259    5.1896046701918e-05
 260    5.2314066008031e-06
 261    -3.5029611925201e-05
 262    8.6532884860573e-07