[Molden Format]
made by pyscf v[2.0.1]
[Atoms] (AU)
O   1   8     0.00000000000000     0.00000000000000    10.94175058546756
H   2   1     0.00000000000000     0.00000000000000     9.11834876356659
H   3   1    -0.05031916615174     1.78353065140343    11.31762228193423
O   4   8     0.00000000000000     0.00000000000000     2.31533471513237
C   5   6     0.00000000000000     0.00000000000000     0.00000000000000
C   6   6     2.01118073026938    -1.40227222164369    -1.50774939176400
C   7   6    -2.01249334291722     1.41331050329955    -1.50315905028694
H   8   1     3.32037363730244    -2.26721897153159    -0.13599698591495
C   9   6     3.45899267434009     0.28739631745591    -3.37437943254505
H   10   1     1.07662969841332    -2.94725144642667    -2.56541439481080
H   11   1    -2.67503415753480     0.18421555839588    -3.06194479365997
H   12   1    -1.07974048864772     3.03851734677796    -2.43674295017013
C   13   6    -4.21607110578555     2.32938802552922     0.11994162256091
H   14   1     4.24440173074564     1.93368664142019    -2.34976285512790
H   15   1     2.15020713235517     1.04714335134846    -4.81494497423699
C   16   6     5.60746363007797    -1.12419643481196    -4.70268606082550
H   17   1    -3.46838323670267     3.50951302338067     1.66946842715333
H   18   1    -5.11873485366228     0.68575958301209     1.04047743976495
C   19   6    -6.18314754751344     3.80909592987882    -1.39656589068747
H   20   1     6.93011263717176    -1.87550812453645    -3.26656317360070
C   21   6     7.06356622236532     0.52877932406334    -6.57829775293605
H   22   1     4.82318879258361    -2.78573437948532    -5.70504560381835
H   23   1    -6.91582688743803     2.61304780074712    -2.95074552451969
H   24   1    -5.26532430573853     5.45420349051338    -2.31005832200284
C   25   6    -8.39941882261433     4.73263980500213     0.21800571437956
H   26   1     7.83338371486801     2.19084139882824    -5.57093109900697
H   27   1     5.73544244039420     1.27376866537418    -8.01071492370229
C   28   6     9.21124858443101    -0.89699110072176    -7.88926949186242
H   29   1    -7.66272760055236     5.92277078003992     1.77035591474408
H   30   1    -9.31497248082589     3.08753015622020     1.12614408368786
C   31   6   -10.35481709231879     6.21833079391143    -1.30905206253246
H   32   1    10.58815905329501    -1.61074586756696    -6.49512691622620
H   33   1    10.23506248045667     0.32468009384095    -9.23072870921204
H   34   1     8.47665842847139    -2.53598436989925    -8.94921964622535
H   35   1    -9.48948872868064     7.90013588951020    -2.18823918416067
H   36   1   -11.93332513000955     6.86460487874102    -0.11255798845995
H   37   1   -11.15126291841033     5.04495968327630    -2.83849898862534
[GTO]
1 0
 s    8 1.00
                 11720  0.00070964594651845
                  1759  0.0054672722921914
                 400.8   0.027823118610189
                 113.7    0.10474773971146
                 37.03    0.28292084635691
                 13.27    0.44849523869833
                 5.025    0.27081688521277
                 1.013    0.01545029160744
 s    8 1.00
                 11720  -0.00031444341168873
                  1759  -0.0024821376810179
                 400.8  -0.012316355381583
                 113.7  -0.050538917343672
                 37.03   -0.13938490331632
                 13.27   -0.32507749481778
                 5.025   -0.22984830758785
                 1.013     1.0953793467883
 s    1 1.00
                0.3023                   1
 p    3 1.00
                  17.7   0.062679166281506
                 3.854    0.33353656587936
                 1.046    0.74123964163973
 p    1 1.00
                0.2753                   1
 d    1 1.00
                 1.185                   1

2 0
 s    3 1.00
                 13.01   0.033498726389998
                 1.962    0.23480080117413
                0.4446     0.8136829578829
 s    1 1.00
                 0.122                   1
 p    1 1.00
                 0.727                   1

3 0
 s    3 1.00
                 13.01   0.033498726389998
                 1.962    0.23480080117413
                0.4446     0.8136829578829
 s    1 1.00
                 0.122                   1
 p    1 1.00
                 0.727                   1

4 0
 s    8 1.00
                 11720  0.00070964594651845
                  1759  0.0054672722921914
                 400.8   0.027823118610189
                 113.7    0.10474773971146
                 37.03    0.28292084635691
                 13.27    0.44849523869833
                 5.025    0.27081688521277
                 1.013    0.01545029160744
 s    8 1.00
                 11720  -0.00031444341168873
                  1759  -0.0024821376810179
                 400.8  -0.012316355381583
                 113.7  -0.050538917343672
                 37.03   -0.13938490331632
                 13.27   -0.32507749481778
                 5.025   -0.22984830758785
                 1.013     1.0953793467883
 s    1 1.00
                0.3023                   1
 p    3 1.00
                  17.7   0.062679166281506
                 3.854    0.33353656587936
                 1.046    0.74123964163973
 p    1 1.00
                0.2753                   1
 d    1 1.00
                 1.185                   1

5 0
 s    8 1.00
                  6665  0.00069158396281299
                  1000  0.0053257961529341
                   228   0.027060721042034
                 64.71    0.10165684614077
                 21.06     0.2745748236174
                 7.495    0.44829431892377
                 2.797    0.28490261071525
                0.5215   0.015194859206082
 s    8 1.00
                  6665  -0.00029326965268655
                  1000  -0.0023180354739745
                   228  -0.011499786038565
                 64.71  -0.046826727009787
                 21.06   -0.12846616875047
                 7.495   -0.30126627246289
                 2.797   -0.25563070233011
                0.5215      1.093793361012
 s    1 1.00
                0.1596                   1
 p    3 1.00
                 9.439   0.056979251590039
                 2.002    0.31320721150073
                0.5456    0.76037674173753
 p    1 1.00
                0.1517                   1
 d    1 1.00
                  0.55                   1

6 0
 s    8 1.00
                  6665  0.00069158396281299
                  1000  0.0053257961529341
                   228   0.027060721042034
                 64.71    0.10165684614077
                 21.06     0.2745748236174
                 7.495    0.44829431892377
                 2.797    0.28490261071525
                0.5215   0.015194859206082
 s    8 1.00
                  6665  -0.00029326965268655
                  1000  -0.0023180354739745
                   228  -0.011499786038565
                 64.71  -0.046826727009787
                 21.06   -0.12846616875047
                 7.495   -0.30126627246289
                 2.797   -0.25563070233011
                0.5215      1.093793361012
 s    1 1.00
                0.1596                   1
 p    3 1.00
                 9.439   0.056979251590039
                 2.002    0.31320721150073
                0.5456    0.76037674173753
 p    1 1.00
                0.1517                   1
 d    1 1.00
                  0.55                   1

7 0
 s    8 1.00
                  6665  0.00069158396281299
                  1000  0.0053257961529341
                   228   0.027060721042034
                 64.71    0.10165684614077
                 21.06     0.2745748236174
                 7.495    0.44829431892377
                 2.797    0.28490261071525
                0.5215   0.015194859206082
 s    8 1.00
                  6665  -0.00029326965268655
                  1000  -0.0023180354739745
                   228  -0.011499786038565
                 64.71  -0.046826727009787
                 21.06   -0.12846616875047
                 7.495   -0.30126627246289
                 2.797   -0.25563070233011
                0.5215      1.093793361012
 s    1 1.00
                0.1596                   1
 p    3 1.00
                 9.439   0.056979251590039
                 2.002    0.31320721150073
                0.5456    0.76037674173753
 p    1 1.00
                0.1517                   1
 d    1 1.00
                  0.55                   1

8 0
 s    3 1.00
                 13.01   0.033498726389998
                 1.962    0.23480080117413
                0.4446     0.8136829578829
 s    1 1.00
                 0.122                   1
 p    1 1.00
                 0.727                   1

9 0
 s    8 1.00
                  6665  0.00069158396281299
                  1000  0.0053257961529341
                   228   0.027060721042034
                 64.71    0.10165684614077
                 21.06     0.2745748236174
                 7.495    0.44829431892377
                 2.797    0.28490261071525
                0.5215   0.015194859206082
 s    8 1.00
                  6665  -0.00029326965268655
                  1000  -0.0023180354739745
                   228  -0.011499786038565
                 64.71  -0.046826727009787
                 21.06   -0.12846616875047
                 7.495   -0.30126627246289
                 2.797   -0.25563070233011
                0.5215      1.093793361012
 s    1 1.00
                0.1596                   1
 p    3 1.00
                 9.439   0.056979251590039
                 2.002    0.31320721150073
                0.5456    0.76037674173753
 p    1 1.00
                0.1517                   1
 d    1 1.00
                  0.55                   1

10 0
 s    3 1.00
                 13.01   0.033498726389998
                 1.962    0.23480080117413
                0.4446     0.8136829578829
 s    1 1.00
                 0.122                   1
 p    1 1.00
                 0.727                   1

11 0
 s    3 1.00
                 13.01   0.033498726389998
                 1.962    0.23480080117413
                0.4446     0.8136829578829
 s    1 1.00
                 0.122                   1
 p    1 1.00
                 0.727                   1

12 0
 s    3 1.00
                 13.01   0.033498726389998
                 1.962    0.23480080117413
                0.4446     0.8136829578829
 s    1 1.00
                 0.122                   1
 p    1 1.00
                 0.727                   1

13 0
 s    8 1.00
                  6665  0.00069158396281299
                  1000  0.0053257961529341
                   228   0.027060721042034
                 64.71    0.10165684614077
                 21.06     0.2745748236174
                 7.495    0.44829431892377
                 2.797    0.28490261071525
                0.5215   0.015194859206082
 s    8 1.00
                  6665  -0.00029326965268655
                  1000  -0.0023180354739745
                   228  -0.011499786038565
                 64.71  -0.046826727009787
                 21.06   -0.12846616875047
                 7.495   -0.30126627246289
                 2.797   -0.25563070233011
                0.5215      1.093793361012
 s    1 1.00
                0.1596                   1
 p    3 1.00
                 9.439   0.056979251590039
                 2.002    0.31320721150073
                0.5456    0.76037674173753
 p    1 1.00
                0.1517                   1
 d    1 1.00
                  0.55                   1

14 0
 s    3 1.00
                 13.01   0.033498726389998
                 1.962    0.23480080117413
                0.4446     0.8136829578829
 s    1 1.00
                 0.122                   1
 p    1 1.00
                 0.727                   1

15 0
 s    3 1.00
                 13.01   0.033498726389998
                 1.962    0.23480080117413
                0.4446     0.8136829578829
 s    1 1.00
                 0.122                   1
 p    1 1.00
                 0.727                   1

16 0
 s    8 1.00
                  6665  0.00069158396281299
                  1000  0.0053257961529341
                   228   0.027060721042034
                 64.71    0.10165684614077
                 21.06     0.2745748236174
                 7.495    0.44829431892377
                 2.797    0.28490261071525
                0.5215   0.015194859206082
 s    8 1.00
                  6665  -0.00029326965268655
                  1000  -0.0023180354739745
                   228  -0.011499786038565
                 64.71  -0.046826727009787
                 21.06   -0.12846616875047
                 7.495   -0.30126627246289
                 2.797   -0.25563070233011
                0.5215      1.093793361012
 s    1 1.00
                0.1596                   1
 p    3 1.00
                 9.439   0.056979251590039
                 2.002    0.31320721150073
                0.5456    0.76037674173753
 p    1 1.00
                0.1517                   1
 d    1 1.00
                  0.55                   1

17 0
 s    3 1.00
                 13.01   0.033498726389998
                 1.962    0.23480080117413
                0.4446     0.8136829578829
 s    1 1.00
                 0.122                   1
 p    1 1.00
                 0.727                   1

18 0
 s    3 1.00
                 13.01   0.033498726389998
                 1.962    0.23480080117413
                0.4446     0.8136829578829
 s    1 1.00
                 0.122                   1
 p    1 1.00
                 0.727                   1

19 0
 s    8 1.00
                  6665  0.00069158396281299
                  1000  0.0053257961529341
                   228   0.027060721042034
                 64.71    0.10165684614077
                 21.06     0.2745748236174
                 7.495    0.44829431892377
                 2.797    0.28490261071525
                0.5215   0.015194859206082
 s    8 1.00
                  6665  -0.00029326965268655
                  1000  -0.0023180354739745
                   228  -0.011499786038565
                 64.71  -0.046826727009787
                 21.06   -0.12846616875047
                 7.495   -0.30126627246289
                 2.797   -0.25563070233011
                0.5215      1.093793361012
 s    1 1.00
                0.1596                   1
 p    3 1.00
                 9.439   0.056979251590039
                 2.002    0.31320721150073
                0.5456    0.76037674173753
 p    1 1.00
                0.1517                   1
 d    1 1.00
                  0.55                   1

20 0
 s    3 1.00
                 13.01   0.033498726389998
                 1.962    0.23480080117413
                0.4446     0.8136829578829
 s    1 1.00
                 0.122                   1
 p    1 1.00
                 0.727                   1

21 0
 s    8 1.00
                  6665  0.00069158396281299
                  1000  0.0053257961529341
                   228   0.027060721042034
                 64.71    0.10165684614077
                 21.06     0.2745748236174
                 7.495    0.44829431892377
                 2.797    0.28490261071525
                0.5215   0.015194859206082
 s    8 1.00
                  6665  -0.00029326965268655
                  1000  -0.0023180354739745
                   228  -0.011499786038565
                 64.71  -0.046826727009787
                 21.06   -0.12846616875047
                 7.495   -0.30126627246289
                 2.797   -0.25563070233011
                0.5215      1.093793361012
 s    1 1.00
                0.1596                   1
 p    3 1.00
                 9.439   0.056979251590039
                 2.002    0.31320721150073
                0.5456    0.76037674173753
 p    1 1.00
                0.1517                   1
 d    1 1.00
                  0.55                   1

22 0
 s    3 1.00
                 13.01   0.033498726389998
                 1.962    0.23480080117413
                0.4446     0.8136829578829
 s    1 1.00
                 0.122                   1
 p    1 1.00
                 0.727                   1

23 0
 s    3 1.00
                 13.01   0.033498726389998
                 1.962    0.23480080117413
                0.4446     0.8136829578829
 s    1 1.00
                 0.122                   1
 p    1 1.00
                 0.727                   1

24 0
 s    3 1.00
                 13.01   0.033498726389998
                 1.962    0.23480080117413
                0.4446     0.8136829578829
 s    1 1.00
                 0.122                   1
 p    1 1.00
                 0.727                   1

25 0
 s    8 1.00
                  6665  0.00069158396281299
                  1000  0.0053257961529341
                   228   0.027060721042034
                 64.71    0.10165684614077
                 21.06     0.2745748236174
                 7.495    0.44829431892377
                 2.797    0.28490261071525
                0.5215   0.015194859206082
 s    8 1.00
                  6665  -0.00029326965268655
                  1000  -0.0023180354739745
                   228  -0.011499786038565
                 64.71  -0.046826727009787
                 21.06   -0.12846616875047
                 7.495   -0.30126627246289
                 2.797   -0.25563070233011
                0.5215      1.093793361012
 s    1 1.00
                0.1596                   1
 p    3 1.00
                 9.439   0.056979251590039
                 2.002    0.31320721150073
                0.5456    0.76037674173753
 p    1 1.00
                0.1517                   1
 d    1 1.00
                  0.55                   1

26 0
 s    3 1.00
                 13.01   0.033498726389998
                 1.962    0.23480080117413
                0.4446     0.8136829578829
 s    1 1.00
                 0.122                   1
 p    1 1.00
                 0.727                   1

27 0
 s    3 1.00
                 13.01   0.033498726389998
                 1.962    0.23480080117413
                0.4446     0.8136829578829
 s    1 1.00
                 0.122                   1
 p    1 1.00
                 0.727                   1

28 0
 s    8 1.00
                  6665  0.00069158396281299
                  1000  0.0053257961529341
                   228   0.027060721042034
                 64.71    0.10165684614077
                 21.06     0.2745748236174
                 7.495    0.44829431892377
                 2.797    0.28490261071525
                0.5215   0.015194859206082
 s    8 1.00
                  6665  -0.00029326965268655
                  1000  -0.0023180354739745
                   228  -0.011499786038565
                 64.71  -0.046826727009787
                 21.06   -0.12846616875047
                 7.495   -0.30126627246289
                 2.797   -0.25563070233011
                0.5215      1.093793361012
 s    1 1.00
                0.1596                   1
 p    3 1.00
                 9.439   0.056979251590039
                 2.002    0.31320721150073
                0.5456    0.76037674173753
 p    1 1.00
                0.1517                   1
 d    1 1.00
                  0.55                   1

29 0
 s    3 1.00
                 13.01   0.033498726389998
                 1.962    0.23480080117413
                0.4446     0.8136829578829
 s    1 1.00
                 0.122                   1
 p    1 1.00
                 0.727                   1

30 0
 s    3 1.00
                 13.01   0.033498726389998
                 1.962    0.23480080117413
                0.4446     0.8136829578829
 s    1 1.00
                 0.122                   1
 p    1 1.00
                 0.727                   1

31 0
 s    8 1.00
                  6665  0.00069158396281299
                  1000  0.0053257961529341
                   228   0.027060721042034
                 64.71    0.10165684614077
                 21.06     0.2745748236174
                 7.495    0.44829431892377
                 2.797    0.28490261071525
                0.5215   0.015194859206082
 s    8 1.00
                  6665  -0.00029326965268655
                  1000  -0.0023180354739745
                   228  -0.011499786038565
                 64.71  -0.046826727009787
                 21.06   -0.12846616875047
                 7.495   -0.30126627246289
                 2.797   -0.25563070233011
                0.5215      1.093793361012
 s    1 1.00
                0.1596                   1
 p    3 1.00
                 9.439   0.056979251590039
                 2.002    0.31320721150073
                0.5456    0.76037674173753
 p    1 1.00
                0.1517                   1
 d    1 1.00
                  0.55                   1

32 0
 s    3 1.00
                 13.01   0.033498726389998
                 1.962    0.23480080117413
                0.4446     0.8136829578829
 s    1 1.00
                 0.122                   1
 p    1 1.00
                 0.727                   1

33 0
 s    3 1.00
                 13.01   0.033498726389998
                 1.962    0.23480080117413
                0.4446     0.8136829578829
 s    1 1.00
                 0.122                   1
 p    1 1.00
                 0.727                   1

34 0
 s    3 1.00
                 13.01   0.033498726389998
                 1.962    0.23480080117413
                0.4446     0.8136829578829
 s    1 1.00
                 0.122                   1
 p    1 1.00
                 0.727                   1

35 0
 s    3 1.00
                 13.01   0.033498726389998
                 1.962    0.23480080117413
                0.4446     0.8136829578829
 s    1 1.00
                 0.122                   1
 p    1 1.00
                 0.727                   1

36 0
 s    3 1.00
                 13.01   0.033498726389998
                 1.962    0.23480080117413
                0.4446     0.8136829578829
 s    1 1.00
                 0.122                   1
 p    1 1.00
                 0.727                   1

37 0
 s    3 1.00
                 13.01   0.033498726389998
                 1.962    0.23480080117413
                0.4446     0.8136829578829
 s    1 1.00
                 0.122                   1
 p    1 1.00
                 0.727                   1

[5d]
[7f]
[9g]

[MO]
 Sym= A
 Ene=               0
 Spin= Alpha
 Occup=    1.00000
   1    -7.2551925524171e-08
   2    1.5155950577632e-07
   3    1.0947390167028e-06
   4    -8.5810822690741e-10
   5    -5.1274466439316e-08
   6    -4.9395543660255e-07
   7    1.0677249807181e-08
   8    -1.5809260588093e-07
   9    -8.5428780602325e-07
  10    -5.1046380482573e-08
  11    1.4242100755856e-09
  12    -3.8905547924827e-09
  13    -6.4861857993856e-09
  14    -1.3293943603896e-10
  15    4.3862179013701e-07
  16    -3.0038105459909e-06
  17    1.3519489251372e-08
  18    -1.3125568300234e-08
  19    1.5676272407104e-07
  20    -6.5090181577024e-08
  21    7.4911601621774e-07
  22    -3.0868170807644e-09
  23    5.8150105133384e-08
  24    -2.2082088648353e-09
  25    -7.5564246018822e-06
  26    8.4918402560605e-06
  27    0.00012269420578382
  28    6.7238174934104e-05
  29    -0.00010395421919398
  30    -8.4057850493493e-05
  31    0.00012271467219335
  32    -0.00014708117854042
  33    -9.1839179844073e-05
  34    4.0063774058002e-06
  35    4.1863533530715e-06
  36    -6.4820456840498e-07
  37    8.2490462050227e-07
  38    1.8025498005643e-06
  39    2.8621008490963e-05
  40    -0.00015801212079288
  41    -0.00065592281377594
  42    -0.00025980123532379
  43    0.00020697378256208
  44    0.00020230940359775
  45    -0.00040072276420321
  46    0.00035285982172514
  47    8.5977552661438e-05
  48    1.3274360644453e-05
  49    2.6467674353141e-05
  50    -3.3696083516593e-05
  51    1.6071530807794e-05
  52    2.2353533799698e-05
  53    7.2212431289324e-05
  54    0.00071390980894771
  55    -0.00018515852256191
  56    0.00070439427331783
  57    -2.2030909950275e-05
  58    -0.00059153586982908
  59    -0.00032832258896231
  60    -1.3846932894734e-05
  61    0.00036967071719781
  62    9.7335093773178e-06
  63    -2.5091813885243e-06
  64    -1.8745532046239e-05
  65    -8.020492650178e-06
  66    1.4503838568508e-05
  67    5.9606276761697e-07
  68    3.1334177876178e-05
  69    0.00014010272994033
  70    5.0140572019908e-05
  71    -6.7783917936635e-05
  72    4.4105869183339e-05
  73    -0.00014421838125858
  74    -2.1605812980607e-05
  75    5.6095146962029e-05
  76    8.7952762413363e-06
  77    -4.9485125925106e-06
  78    6.8296595144249e-06
  79    4.657252281261e-06
  80    2.6664300776572e-06
  81    0.00040109542731068
  82    6.1520400093548e-05
  83    -1.6287305180129e-06
  84    1.3251859601844e-05
  85    -6.0468052333336e-05
  86    0.00063160028964541
  87    0.00033169066471956
  88    0.00083646966300993
  89    -0.00012698868485168
  90    -0.00076088657538553
  91    0.00040894320139542
  92    -0.00024562480861262
  93    -0.00098878989061201
  94    0.00054876145787344
  95    4.4451036581681e-06
  96    -3.2746784079029e-05
  97    -2.3662094176628e-05
  98    5.2106665072198e-08
  99    2.3065527593703e-05
 100    0.00033754326833057
 101    2.5160024891363e-05
 102    6.3291489450764e-05
 103    2.2468417375437e-05
 104    -1.0225482799388e-05
 105    2.2569814000273e-05
 106    -4.8835224482525e-05
 107    9.4979732162403e-06
 108    -7.1807245153744e-06
 109    -4.80262596448e-06
 110    -1.1883840369027e-05
 111    -6.5740350270998e-05
 112    5.4455169861879e-06
 113    2.274607617338e-06
 114    1.4651915594137e-06
 115    -0.0008411216341085
 116    4.1980404458663e-06
 117    -0.0001534948942693
 118    -1.8761791708582e-05
 119    4.5185802317883e-06
 120    2.5376587008669e-05
 121    -0.00013971325116068
 122    0.00012117478487434
 123    4.8996919184088e-05
 124    -1.7680328524341e-06
 125    8.7607175879234e-06
 126    -4.137023497265e-06
 127    -3.9206437989364e-06
 128    4.788198252724e-06
 129    -0.00024632735973967
 130    0.0001187041096005
 131    3.6363042558529e-05
 132    1.9458904722938e-05
 133    -4.6956553943346e-05
 134    -0.00028226188813726
 135    0.00014989840869094
 136    4.1323953554497e-05
 137    2.3185543281766e-05
 138    -2.7356456288312e-05
 139     0.039981031322216
 140    0.00043957324136666
 141    -0.0039052723210676
 142    -0.00013903156965871
 143    -3.8539846390739e-05
 144    0.00013303513913831
 145    -0.00088409031627339
 146    -0.001117217596773
 147    0.0012190883579332
 148    1.5307160086275e-05
 149    -7.8396664318885e-05
 150    -0.00010320725519496
 151    -2.4615163235187e-05
 152    7.5038615580013e-05
 153    6.2701294326215e-06
 154    -4.2689564706961e-05
 155    9.929591121126e-07
 156    -7.0919007624225e-07
 157    1.6093772792652e-06
 158    9.0408871929118e-06
 159    1.0489913539918e-05
 160    3.2299922851633e-06
 161    -1.4925358084614e-06
 162    -1.0944516702914e-06
 163    0.0011253128183735
 164    1.9130986296503e-05
 165    -6.7849017385941e-05
 166    4.9438861607946e-06
 167    -1.6276985096189e-06
 168    1.1039038702457e-06
 169    -1.9342725442188e-05
 170    5.2237588134695e-06
 171    -1.7286011587074e-06
 172    1.2980331202336e-06
 173    -3.5252315794318e-07
 174    -1.4702771691695e-06
 175    -2.8925259769338e-06
 176    1.7701918652247e-06
 177    0.00010437158850704
 178    -0.00019896107591728
 179    5.5256952223746e-06
 180    -3.7475255108272e-05
 181    6.0111268118923e-05
 182      -1.0002578266482
 183    -0.0051287504376553
 184     0.012229848761354
 185    -5.331931052616e-06
 186    -0.00020162836423207
 187    8.4599771711986e-05
 188    -0.00021133361821267
 189    -0.0013965450785434
 190    0.00069396160348552
 191    -1.2386910350487e-06
 192    -0.00031626334898822
 193    -8.808325015281e-05
 194    6.3636426899782e-05
 195    -1.5433374227341e-06
 196    0.0001100115822388
 197    -0.00016572141709558
 198    -4.2716447232447e-05
 199    -5.527461348926e-05
 200    6.8925294461842e-06
 201    6.6957478966669e-06
 202     1.10977498274e-05
 203    1.6113462471437e-06
 204    3.7247860289566e-07
 205    7.3768591285114e-07
 206    5.917177033552e-06
 207    2.0518968039625e-05
 208    6.9151702640123e-07
 209    -1.7710432410705e-06
 210    1.2966100088242e-07
 211    -0.00029268562650305
 212    -7.6217129879247e-07
 213    1.7306807551146e-06
 214    -2.2792044969008e-06
 215    2.8764102636448e-07
 216    3.4311702874908e-06
 217    -4.3297971976026e-05
 218    2.3943183642118e-05
 219    -1.7912421973797e-05
 220    2.4546498150636e-07
 221    7.1644773915672e-07
 222    -1.5171592242452e-06
 223    -3.7853544049006e-07
 224    3.136027813881e-07
 225    -0.00020414612370181
 226    -0.0012008897145301
 227    -0.00019670559277395
 228    -0.00030268879413949
 229    -0.00026441089280055
 230    -0.00019818364779006
 231    -0.0012247580604236
 232    0.00030595599652486
 233    -8.4335615438477e-05
 234    0.00031712673485215
 235    -0.055355910471731
 236    -0.00020766850670914
 237    -0.0021888447381825
 238    0.00011404951389478
 239    -7.0924222539081e-05
 240    -7.061880891805e-05
 241    0.00081563132090584
 242    -0.00054350353362895
 243    -0.00050183000389175
 244    -5.4405798501338e-05
 245    -0.00011630021723379
 246    9.6569118752861e-05
 247    4.7230596085853e-05
 248    -0.00015995342335247
 249    2.286153851299e-06
 250    6.882722811753e-06
 251    1.2582047276603e-06
 252    -1.785093307961e-06
 253    5.5693713225536e-07
 254    1.9193249569001e-06
 255    -2.4267371566767e-06
 256    1.418292129155e-06
 257    -9.5755908460739e-07
 258    1.6117961093925e-06
 259    5.2173526086351e-05
 260    5.2409895024371e-06
 261    -3.5066602764118e-05
 262    8.6785973971055e-07
 263    -6.7628162933303e-07