[Molden Format]
made by pyscf v[2.0.1]
[Atoms] (AU)
O   1   8     0.00000000000000     0.00000000000000     8.29613401107647
H   2   1     0.00000000000000     0.00000000000000     6.47273218917551
H   3   1    -0.05031916615174     1.78353065140343     8.67200570754314
O   4   8     0.00000000000000     0.00000000000000     2.31533471513237
C   5   6     0.00000000000000     0.00000000000000     0.00000000000000
C   6   6     2.01118073026938    -1.40227222164369    -1.50774939176400
C   7   6    -2.01249334291722     1.41331050329955    -1.50315905028694
H   8   1     3.32037363730244    -2.26721897153159    -0.13599698591495
C   9   6     3.45899267434009     0.28739631745591    -3.37437943254505
H   10   1     1.07662969841332    -2.94725144642667    -2.56541439481080
H   11   1    -2.67503415753480     0.18421555839588    -3.06194479365997
H   12   1    -1.07974048864772     3.03851734677796    -2.43674295017013
C   13   6    -4.21607110578555     2.32938802552922     0.11994162256091
H   14   1     4.24440173074564     1.93368664142019    -2.34976285512790
H   15   1     2.15020713235517     1.04714335134846    -4.81494497423699
C   16   6     5.60746363007797    -1.12419643481196    -4.70268606082550
H   17   1    -3.46838323670267     3.50951302338067     1.66946842715333
H   18   1    -5.11873485366228     0.68575958301209     1.04047743976495
C   19   6    -6.18314754751344     3.80909592987882    -1.39656589068747
H   20   1     6.93011263717176    -1.87550812453645    -3.26656317360070
C   21   6     7.06356622236532     0.52877932406334    -6.57829775293605
H   22   1     4.82318879258361    -2.78573437948532    -5.70504560381835
H   23   1    -6.91582688743803     2.61304780074712    -2.95074552451969
H   24   1    -5.26532430573853     5.45420349051338    -2.31005832200284
C   25   6    -8.39941882261433     4.73263980500213     0.21800571437956
H   26   1     7.83338371486801     2.19084139882824    -5.57093109900697
H   27   1     5.73544244039420     1.27376866537418    -8.01071492370229
C   28   6     9.21124858443101    -0.89699110072176    -7.88926949186242
H   29   1    -7.66272760055236     5.92277078003992     1.77035591474408
H   30   1    -9.31497248082589     3.08753015622020     1.12614408368786
C   31   6   -10.35481709231879     6.21833079391143    -1.30905206253246
H   32   1    10.58815905329501    -1.61074586756696    -6.49512691622620
H   33   1    10.23506248045667     0.32468009384095    -9.23072870921204
H   34   1     8.47665842847139    -2.53598436989925    -8.94921964622535
H   35   1    -9.48948872868064     7.90013588951020    -2.18823918416067
H   36   1   -11.93332513000955     6.86460487874102    -0.11255798845995
H   37   1   -11.15126291841033     5.04495968327630    -2.83849898862534
[GTO]
1 0
 s    8 1.00
                 11720  0.00070964594651845
                  1759  0.0054672722921914
                 400.8   0.027823118610189
                 113.7    0.10474773971146
                 37.03    0.28292084635691
                 13.27    0.44849523869833
                 5.025    0.27081688521277
                 1.013    0.01545029160744
 s    8 1.00
                 11720  -0.00031444341168873
                  1759  -0.0024821376810179
                 400.8  -0.012316355381583
                 113.7  -0.050538917343672
                 37.03   -0.13938490331632
                 13.27   -0.32507749481778
                 5.025   -0.22984830758785
                 1.013     1.0953793467883
 s    1 1.00
                0.3023                   1
 p    3 1.00
                  17.7   0.062679166281506
                 3.854    0.33353656587936
                 1.046    0.74123964163973
 p    1 1.00
                0.2753                   1
 d    1 1.00
                 1.185                   1

2 0
 s    3 1.00
                 13.01   0.033498726389998
                 1.962    0.23480080117413
                0.4446     0.8136829578829
 s    1 1.00
                 0.122                   1
 p    1 1.00
                 0.727                   1

3 0
 s    3 1.00
                 13.01   0.033498726389998
                 1.962    0.23480080117413
                0.4446     0.8136829578829
 s    1 1.00
                 0.122                   1
 p    1 1.00
                 0.727                   1

4 0
 s    8 1.00
                 11720  0.00070964594651845
                  1759  0.0054672722921914
                 400.8   0.027823118610189
                 113.7    0.10474773971146
                 37.03    0.28292084635691
                 13.27    0.44849523869833
                 5.025    0.27081688521277
                 1.013    0.01545029160744
 s    8 1.00
                 11720  -0.00031444341168873
                  1759  -0.0024821376810179
                 400.8  -0.012316355381583
                 113.7  -0.050538917343672
                 37.03   -0.13938490331632
                 13.27   -0.32507749481778
                 5.025   -0.22984830758785
                 1.013     1.0953793467883
 s    1 1.00
                0.3023                   1
 p    3 1.00
                  17.7   0.062679166281506
                 3.854    0.33353656587936
                 1.046    0.74123964163973
 p    1 1.00
                0.2753                   1
 d    1 1.00
                 1.185                   1

5 0
 s    8 1.00
                  6665  0.00069158396281299
                  1000  0.0053257961529341
                   228   0.027060721042034
                 64.71    0.10165684614077
                 21.06     0.2745748236174
                 7.495    0.44829431892377
                 2.797    0.28490261071525
                0.5215   0.015194859206082
 s    8 1.00
                  6665  -0.00029326965268655
                  1000  -0.0023180354739745
                   228  -0.011499786038565
                 64.71  -0.046826727009787
                 21.06   -0.12846616875047
                 7.495   -0.30126627246289
                 2.797   -0.25563070233011
                0.5215      1.093793361012
 s    1 1.00
                0.1596                   1
 p    3 1.00
                 9.439   0.056979251590039
                 2.002    0.31320721150073
                0.5456    0.76037674173753
 p    1 1.00
                0.1517                   1
 d    1 1.00
                  0.55                   1

6 0
 s    8 1.00
                  6665  0.00069158396281299
                  1000  0.0053257961529341
                   228   0.027060721042034
                 64.71    0.10165684614077
                 21.06     0.2745748236174
                 7.495    0.44829431892377
                 2.797    0.28490261071525
                0.5215   0.015194859206082
 s    8 1.00
                  6665  -0.00029326965268655
                  1000  -0.0023180354739745
                   228  -0.011499786038565
                 64.71  -0.046826727009787
                 21.06   -0.12846616875047
                 7.495   -0.30126627246289
                 2.797   -0.25563070233011
                0.5215      1.093793361012
 s    1 1.00
                0.1596                   1
 p    3 1.00
                 9.439   0.056979251590039
                 2.002    0.31320721150073
                0.5456    0.76037674173753
 p    1 1.00
                0.1517                   1
 d    1 1.00
                  0.55                   1

7 0
 s    8 1.00
                  6665  0.00069158396281299
                  1000  0.0053257961529341
                   228   0.027060721042034
                 64.71    0.10165684614077
                 21.06     0.2745748236174
                 7.495    0.44829431892377
                 2.797    0.28490261071525
                0.5215   0.015194859206082
 s    8 1.00
                  6665  -0.00029326965268655
                  1000  -0.0023180354739745
                   228  -0.011499786038565
                 64.71  -0.046826727009787
                 21.06   -0.12846616875047
                 7.495   -0.30126627246289
                 2.797   -0.25563070233011
                0.5215      1.093793361012
 s    1 1.00
                0.1596                   1
 p    3 1.00
                 9.439   0.056979251590039
                 2.002    0.31320721150073
                0.5456    0.76037674173753
 p    1 1.00
                0.1517                   1
 d    1 1.00
                  0.55                   1

8 0
 s    3 1.00
                 13.01   0.033498726389998
                 1.962    0.23480080117413
                0.4446     0.8136829578829
 s    1 1.00
                 0.122                   1
 p    1 1.00
                 0.727                   1

9 0
 s    8 1.00
                  6665  0.00069158396281299
                  1000  0.0053257961529341
                   228   0.027060721042034
                 64.71    0.10165684614077
                 21.06     0.2745748236174
                 7.495    0.44829431892377
                 2.797    0.28490261071525
                0.5215   0.015194859206082
 s    8 1.00
                  6665  -0.00029326965268655
                  1000  -0.0023180354739745
                   228  -0.011499786038565
                 64.71  -0.046826727009787
                 21.06   -0.12846616875047
                 7.495   -0.30126627246289
                 2.797   -0.25563070233011
                0.5215      1.093793361012
 s    1 1.00
                0.1596                   1
 p    3 1.00
                 9.439   0.056979251590039
                 2.002    0.31320721150073
                0.5456    0.76037674173753
 p    1 1.00
                0.1517                   1
 d    1 1.00
                  0.55                   1

10 0
 s    3 1.00
                 13.01   0.033498726389998
                 1.962    0.23480080117413
                0.4446     0.8136829578829
 s    1 1.00
                 0.122                   1
 p    1 1.00
                 0.727                   1

11 0
 s    3 1.00
                 13.01   0.033498726389998
                 1.962    0.23480080117413
                0.4446     0.8136829578829
 s    1 1.00
                 0.122                   1
 p    1 1.00
                 0.727                   1

12 0
 s    3 1.00
                 13.01   0.033498726389998
                 1.962    0.23480080117413
                0.4446     0.8136829578829
 s    1 1.00
                 0.122                   1
 p    1 1.00
                 0.727                   1

13 0
 s    8 1.00
                  6665  0.00069158396281299
                  1000  0.0053257961529341
                   228   0.027060721042034
                 64.71    0.10165684614077
                 21.06     0.2745748236174
                 7.495    0.44829431892377
                 2.797    0.28490261071525
                0.5215   0.015194859206082
 s    8 1.00
                  6665  -0.00029326965268655
                  1000  -0.0023180354739745
                   228  -0.011499786038565
                 64.71  -0.046826727009787
                 21.06   -0.12846616875047
                 7.495   -0.30126627246289
                 2.797   -0.25563070233011
                0.5215      1.093793361012
 s    1 1.00
                0.1596                   1
 p    3 1.00
                 9.439   0.056979251590039
                 2.002    0.31320721150073
                0.5456    0.76037674173753
 p    1 1.00
                0.1517                   1
 d    1 1.00
                  0.55                   1

14 0
 s    3 1.00
                 13.01   0.033498726389998
                 1.962    0.23480080117413
                0.4446     0.8136829578829
 s    1 1.00
                 0.122                   1
 p    1 1.00
                 0.727                   1

15 0
 s    3 1.00
                 13.01   0.033498726389998
                 1.962    0.23480080117413
                0.4446     0.8136829578829
 s    1 1.00
                 0.122                   1
 p    1 1.00
                 0.727                   1

16 0
 s    8 1.00
                  6665  0.00069158396281299
                  1000  0.0053257961529341
                   228   0.027060721042034
                 64.71    0.10165684614077
                 21.06     0.2745748236174
                 7.495    0.44829431892377
                 2.797    0.28490261071525
                0.5215   0.015194859206082
 s    8 1.00
                  6665  -0.00029326965268655
                  1000  -0.0023180354739745
                   228  -0.011499786038565
                 64.71  -0.046826727009787
                 21.06   -0.12846616875047
                 7.495   -0.30126627246289
                 2.797   -0.25563070233011
                0.5215      1.093793361012
 s    1 1.00
                0.1596                   1
 p    3 1.00
                 9.439   0.056979251590039
                 2.002    0.31320721150073
                0.5456    0.76037674173753
 p    1 1.00
                0.1517                   1
 d    1 1.00
                  0.55                   1

17 0
 s    3 1.00
                 13.01   0.033498726389998
                 1.962    0.23480080117413
                0.4446     0.8136829578829
 s    1 1.00
                 0.122                   1
 p    1 1.00
                 0.727                   1

18 0
 s    3 1.00
                 13.01   0.033498726389998
                 1.962    0.23480080117413
                0.4446     0.8136829578829
 s    1 1.00
                 0.122                   1
 p    1 1.00
                 0.727                   1

19 0
 s    8 1.00
                  6665  0.00069158396281299
                  1000  0.0053257961529341
                   228   0.027060721042034
                 64.71    0.10165684614077
                 21.06     0.2745748236174
                 7.495    0.44829431892377
                 2.797    0.28490261071525
                0.5215   0.015194859206082
 s    8 1.00
                  6665  -0.00029326965268655
                  1000  -0.0023180354739745
                   228  -0.011499786038565
                 64.71  -0.046826727009787
                 21.06   -0.12846616875047
                 7.495   -0.30126627246289
                 2.797   -0.25563070233011
                0.5215      1.093793361012
 s    1 1.00
                0.1596                   1
 p    3 1.00
                 9.439   0.056979251590039
                 2.002    0.31320721150073
                0.5456    0.76037674173753
 p    1 1.00
                0.1517                   1
 d    1 1.00
                  0.55                   1

20 0
 s    3 1.00
                 13.01   0.033498726389998
                 1.962    0.23480080117413
                0.4446     0.8136829578829
 s    1 1.00
                 0.122                   1
 p    1 1.00
                 0.727                   1

21 0
 s    8 1.00
                  6665  0.00069158396281299
                  1000  0.0053257961529341
                   228   0.027060721042034
                 64.71    0.10165684614077
                 21.06     0.2745748236174
                 7.495    0.44829431892377
                 2.797    0.28490261071525
                0.5215   0.015194859206082
 s    8 1.00
                  6665  -0.00029326965268655
                  1000  -0.0023180354739745
                   228  -0.011499786038565
                 64.71  -0.046826727009787
                 21.06   -0.12846616875047
                 7.495   -0.30126627246289
                 2.797   -0.25563070233011
                0.5215      1.093793361012
 s    1 1.00
                0.1596                   1
 p    3 1.00
                 9.439   0.056979251590039
                 2.002    0.31320721150073
                0.5456    0.76037674173753
 p    1 1.00
                0.1517                   1
 d    1 1.00
                  0.55                   1

22 0
 s    3 1.00
                 13.01   0.033498726389998
                 1.962    0.23480080117413
                0.4446     0.8136829578829
 s    1 1.00
                 0.122                   1
 p    1 1.00
                 0.727                   1

23 0
 s    3 1.00
                 13.01   0.033498726389998
                 1.962    0.23480080117413
                0.4446     0.8136829578829
 s    1 1.00
                 0.122                   1
 p    1 1.00
                 0.727                   1

24 0
 s    3 1.00
                 13.01   0.033498726389998
                 1.962    0.23480080117413
                0.4446     0.8136829578829
 s    1 1.00
                 0.122                   1
 p    1 1.00
                 0.727                   1

25 0
 s    8 1.00
                  6665  0.00069158396281299
                  1000  0.0053257961529341
                   228   0.027060721042034
                 64.71    0.10165684614077
                 21.06     0.2745748236174
                 7.495    0.44829431892377
                 2.797    0.28490261071525
                0.5215   0.015194859206082
 s    8 1.00
                  6665  -0.00029326965268655
                  1000  -0.0023180354739745
                   228  -0.011499786038565
                 64.71  -0.046826727009787
                 21.06   -0.12846616875047
                 7.495   -0.30126627246289
                 2.797   -0.25563070233011
                0.5215      1.093793361012
 s    1 1.00
                0.1596                   1
 p    3 1.00
                 9.439   0.056979251590039
                 2.002    0.31320721150073
                0.5456    0.76037674173753
 p    1 1.00
                0.1517                   1
 d    1 1.00
                  0.55                   1

26 0
 s    3 1.00
                 13.01   0.033498726389998
                 1.962    0.23480080117413
                0.4446     0.8136829578829
 s    1 1.00
                 0.122                   1
 p    1 1.00
                 0.727                   1

27 0
 s    3 1.00
                 13.01   0.033498726389998
                 1.962    0.23480080117413
                0.4446     0.8136829578829
 s    1 1.00
                 0.122                   1
 p    1 1.00
                 0.727                   1

28 0
 s    8 1.00
                  6665  0.00069158396281299
                  1000  0.0053257961529341
                   228   0.027060721042034
                 64.71    0.10165684614077
                 21.06     0.2745748236174
                 7.495    0.44829431892377
                 2.797    0.28490261071525
                0.5215   0.015194859206082
 s    8 1.00
                  6665  -0.00029326965268655
                  1000  -0.0023180354739745
                   228  -0.011499786038565
                 64.71  -0.046826727009787
                 21.06   -0.12846616875047
                 7.495   -0.30126627246289
                 2.797   -0.25563070233011
                0.5215      1.093793361012
 s    1 1.00
                0.1596                   1
 p    3 1.00
                 9.439   0.056979251590039
                 2.002    0.31320721150073
                0.5456    0.76037674173753
 p    1 1.00
                0.1517                   1
 d    1 1.00
                  0.55                   1

29 0
 s    3 1.00
                 13.01   0.033498726389998
                 1.962    0.23480080117413
                0.4446     0.8136829578829
 s    1 1.00
                 0.122                   1
 p    1 1.00
                 0.727                   1

30 0
 s    3 1.00
                 13.01   0.033498726389998
                 1.962    0.23480080117413
                0.4446     0.8136829578829
 s    1 1.00
                 0.122                   1
 p    1 1.00
                 0.727                   1

31 0
 s    8 1.00
                  6665  0.00069158396281299
                  1000  0.0053257961529341
                   228   0.027060721042034
                 64.71    0.10165684614077
                 21.06     0.2745748236174
                 7.495    0.44829431892377
                 2.797    0.28490261071525
                0.5215   0.015194859206082
 s    8 1.00
                  6665  -0.00029326965268655
                  1000  -0.0023180354739745
                   228  -0.011499786038565
                 64.71  -0.046826727009787
                 21.06   -0.12846616875047
                 7.495   -0.30126627246289
                 2.797   -0.25563070233011
                0.5215      1.093793361012
 s    1 1.00
                0.1596                   1
 p    3 1.00
                 9.439   0.056979251590039
                 2.002    0.31320721150073
                0.5456    0.76037674173753
 p    1 1.00
                0.1517                   1
 d    1 1.00
                  0.55                   1

32 0
 s    3 1.00
                 13.01   0.033498726389998
                 1.962    0.23480080117413
                0.4446     0.8136829578829
 s    1 1.00
                 0.122                   1
 p    1 1.00
                 0.727                   1

33 0
 s    3 1.00
                 13.01   0.033498726389998
                 1.962    0.23480080117413
                0.4446     0.8136829578829
 s    1 1.00
                 0.122                   1
 p    1 1.00
                 0.727                   1

34 0
 s    3 1.00
                 13.01   0.033498726389998
                 1.962    0.23480080117413
                0.4446     0.8136829578829
 s    1 1.00
                 0.122                   1
 p    1 1.00
                 0.727                   1

35 0
 s    3 1.00
                 13.01   0.033498726389998
                 1.962    0.23480080117413
                0.4446     0.8136829578829
 s    1 1.00
                 0.122                   1
 p    1 1.00
                 0.727                   1

36 0
 s    3 1.00
                 13.01   0.033498726389998
                 1.962    0.23480080117413
                0.4446     0.8136829578829
 s    1 1.00
                 0.122                   1
 p    1 1.00
                 0.727                   1

37 0
 s    3 1.00
                 13.01   0.033498726389998
                 1.962    0.23480080117413
                0.4446     0.8136829578829
 s    1 1.00
                 0.122                   1
 p    1 1.00
                 0.727                   1

[5d]
[7f]
[9g]

[MO]
 Sym= A
 Ene=               0
 Spin= Alpha
 Occup=    1.00000
   1    -5.2806002408411e-07
   2    -2.8539280003365e-06
   3    -9.5079422314808e-07
   4    4.3820250232291e-07
   5    -9.245266509712e-07
   6    5.5404597334122e-06
   7    -9.4685335377473e-08
   8    -1.123067643235e-06
   9    2.1561279369604e-06
  10    1.4544502463844e-07
  11    2.3681470259192e-08
  12    6.8543992817316e-08
  13    5.360924533571e-08
  14    -3.0161311188649e-09
  15    -1.0221017170168e-06
  16    1.6659447771168e-06
  17    -5.1197353083346e-07
  18    5.6196927794779e-07
  19    -2.2043158021575e-07
  20    -1.0748390022003e-06
  21    3.3385890486972e-06
  22    1.024477466466e-07
  23    -2.5398179735902e-07
  24    2.0335250645871e-07
  25    7.8805990697495e-06
  26    -8.8541783054236e-06
  27    -0.00012784562360933
  28    -6.6467901865856e-05
  29    0.00010376343293779
  30    8.2667217830475e-05
  31    -0.00012280887937411
  32    0.00014783985195297
  33    9.5529459790917e-05
  34    -4.2129490148889e-06
  35    -4.3135882475496e-06
  36    8.8924768328918e-07
  37    -8.360858833526e-07
  38    -1.8351108813232e-06
  39    -2.7332203012989e-05
  40    0.00016177310986035
  41    0.00065870801504251
  42    0.00026029507288817
  43    -0.00020950209494076
  44    -0.00020115616311395
  45    0.00040247829109462
  46    -0.00035566512546696
  47    -8.315737271322e-05
  48    -1.3019767350549e-05
  49    -2.5818737609389e-05
  50    3.3306811087805e-05
  51    -1.6213408422902e-05
  52    -2.2411633765418e-05
  53    -7.2578342717057e-05
  54    -0.00071690581295534
  55    0.00017860550776724
  56    -0.00070335959094694
  57    1.9079025104294e-05
  58    0.00059149768247974
  59    0.00032773511207723
  60    1.1886230083422e-05
  61    -0.0003698815987545
  62    -9.503646312478e-06
  63    1.9364084323338e-06
  64    1.901172188724e-05
  65    8.6748184497208e-06
  66    -1.4591876481094e-05
  67    -5.0603939833132e-07
  68    -3.1146630687552e-05
  69    -0.00013613352139316
  70    -4.9014281701485e-05
  71    6.7649893175264e-05
  72    -4.4171134115503e-05
  73    0.00014560852755826
  74    2.0865127793846e-05
  75    -5.5174255803974e-05
  76    -8.7578294329811e-06
  77    4.8866803324846e-06
  78    -6.8643818679865e-06
  79    -4.7659219327477e-06
  80    -2.5896374652425e-06
  81    -0.0004013167889234
  82    -6.0981060903961e-05
  83    1.8672053075208e-06
  84    -1.3513945068108e-05
  85    6.0331848573176e-05
  86    -0.00063155314082252
  87    -0.00032680979527762
  88    -0.00083671348072858
  89    0.00013641339625885
  90    0.00075185346684167
  91    -0.00041371277246023
  92    0.00024788853785581
  93    0.00098550388252718
  94    -0.0005492005543929
  95    -4.8043309180747e-06
  96    3.2123749941613e-05
  97    2.4022982968278e-05
  98    4.0052631437789e-08
  99    -2.3989421862138e-05
 100    -0.00033793423833536
 101    -2.5426255389264e-05
 102    -6.3178872648393e-05
 103    -2.2725497232561e-05
 104    1.0202503140691e-05
 105    -2.2870002161595e-05
 106    4.8628646811652e-05
 107    -9.4753357956286e-06
 108    7.0865180402405e-06
 109    4.8540691362125e-06
 110    1.2505994309767e-05
 111    6.6131448955293e-05
 112    -5.4070288314463e-06
 113    -2.2579723854942e-06
 114    -1.3723494320999e-06
 115    0.00086600086559271
 116    -4.3097224406217e-06
 117    0.0001517200373726
 118    1.8294528873843e-05
 119    -4.2722268607939e-06
 120    -2.4835145547113e-05
 121    0.0001384148650571
 122    -0.0001205927425452
 123    -4.8499356501007e-05
 124    1.7527292541634e-06
 125    -8.7174001612715e-06
 126    4.0473330925051e-06
 127    3.8810628340967e-06
 128    -4.7116509248239e-06
 129    0.00024348336800395
 130    -0.00012106601502646
 131    -3.6125921061068e-05
 132    -1.9575368571296e-05
 133    4.7064476396267e-05
 134    0.00027932405034815
 135    -0.0001521807591387
 136    -4.1349213204905e-05
 137    -2.342772515639e-05
 138    2.716641095904e-05
 139    -0.040619185824778
 140    -0.00043426829020027
 141    0.0039154548856456
 142    0.00013047484585904
 143    4.3811601222533e-05
 144    -0.00012754694552679
 145    0.00087382401367858
 146    0.0011211533036519
 147    -0.0012116930582309
 148    -1.5600427371853e-05
 149    7.8567291801593e-05
 150    0.0001044234826218
 151    2.5072986666987e-05
 152    -7.6244199082516e-05
 153    -6.226064979458e-06
 154    4.2790914320693e-05
 155    -1.0238634353289e-06
 156    6.4857959595437e-07
 157    -1.6282948570383e-06
 158    -9.0259907688034e-06
 159    -1.0476944999093e-05
 160    -3.2254100100275e-06
 161    1.471622230146e-06
 162    1.1306664032929e-06
 163    -0.0012652153283023
 164    -1.9746649304184e-05
 165    6.9193618287489e-05
 166    -4.9568567435965e-06
 167    1.595626424871e-06
 168    -1.0346420722953e-06
 169    1.9543108675623e-05
 170    -5.2889942830963e-06
 171    1.6624324630772e-06
 172    -1.2653842749439e-06
 173    3.5617612584698e-07
 174    1.4572300229143e-06
 175    2.8959315423555e-06
 176    -1.7670402616804e-06
 177    -0.00010469509348829
 178    0.00019733863470404
 179    -5.5359097005501e-06
 180    3.7589321216559e-05
 181    -6.0536607874576e-05
 182       1.0004243856882
 183    0.0051293174984631
 184     -0.01223685925932
 185    1.8129281295402e-06
 186    0.00020034952268659
 187    -8.17196879203e-05
 188    0.00021002521688095
 189    0.0013974612725564
 190    -0.00069310048897907
 191    1.2408724691067e-06
 192    0.00031523171448938
 193    8.7917755725912e-05
 194    -6.3277295608929e-05
 195    1.3160935252194e-06
 196    -0.00011030223949783
 197    0.0001641858507135
 198    4.3095892017688e-05
 199    5.558510717229e-05
 200    -6.9026847580127e-06
 201    -6.6445631655734e-06
 202    -1.1252754823188e-05
 203    -1.6097047204034e-06
 204    -3.3747754489321e-07
 205    -6.9278098250823e-07
 206    -5.9028465179236e-06
 207    -2.0697065321377e-05
 208    -7.1207337976667e-07
 209    1.7174896000876e-06
 210    -9.6032061504626e-08
 211    0.00027131703993901
 212    5.7374889350918e-07
 213    -1.6531487851538e-06
 214    2.2136518964705e-06
 215    -2.6196335082138e-07
 216    -3.3684518944298e-06
 217    4.2791472704959e-05
 218    -2.3690950808492e-05
 219    1.7808366142067e-05
 220    -2.4426726759892e-07
 221    -7.1740987060247e-07
 222    1.5124700305521e-06
 223    3.9219091475513e-07
 224    -3.3481408951768e-07
 225     0.000204925210725
 226    0.0012000568927745
 227    0.00019645423336118
 228    0.00030257785230611
 229    0.00026415588247532
 230    0.00019866834745029
 231    0.0012239585978614
 232    -0.00030592822890163
 233    8.4547906135556e-05
 234    -0.00031704663891795
 235     0.051773202243728
 236    0.00019055596427641
 237     0.002224099066325
 238    -0.00011554686554411
 239    7.1843710775998e-05
 240    7.1533846512961e-05
 241    -0.00081998517977524
 242    0.00054355056304804
 243    0.00050551387621615
 244    5.4043020272963e-05
 245    0.00011551602155002
 246    -9.5801584520727e-05
 247    -4.6846235776537e-05
 248    0.00015881241754361
 249    -2.2679748483574e-06
 250    -6.9113696002301e-06
 251    -1.2597237450359e-06
 252    1.7820488345587e-06
 253    -5.3545316520309e-07
 254    -1.9306356613224e-06
 255    2.3976692352754e-06
 256    -1.4032985431645e-06
 257    9.5675475763408e-07
 258    -1.5914860711267e-06
 259    -4.839246862904e-05
 260    -5.1405913970822e-06
 261    3.4561582181897e-05
 262    -8.5126530208118e-07