[Molden Format]
made by pyscf v[2.0.1]
[Atoms] (AU)
O   1   8     0.00000000000000     0.00000000000000     7.16229833633744
H   2   1     0.00000000000000     0.00000000000000     5.33889651443647
H   3   1    -0.05031916615174     1.78353065140343     7.53817003280410
O   4   8     0.00000000000000     0.00000000000000     2.31533471513237
C   5   6     0.00000000000000     0.00000000000000     0.00000000000000
C   6   6     2.01118073026938    -1.40227222164369    -1.50774939176400
C   7   6    -2.01249334291722     1.41331050329955    -1.50315905028694
H   8   1     3.32037363730244    -2.26721897153159    -0.13599698591495
C   9   6     3.45899267434009     0.28739631745591    -3.37437943254505
H   10   1     1.07662969841332    -2.94725144642667    -2.56541439481080
H   11   1    -2.67503415753480     0.18421555839588    -3.06194479365997
H   12   1    -1.07974048864772     3.03851734677796    -2.43674295017013
C   13   6    -4.21607110578555     2.32938802552922     0.11994162256091
H   14   1     4.24440173074564     1.93368664142019    -2.34976285512790
H   15   1     2.15020713235517     1.04714335134846    -4.81494497423699
C   16   6     5.60746363007797    -1.12419643481196    -4.70268606082550
H   17   1    -3.46838323670267     3.50951302338067     1.66946842715333
H   18   1    -5.11873485366228     0.68575958301209     1.04047743976495
C   19   6    -6.18314754751344     3.80909592987882    -1.39656589068747
H   20   1     6.93011263717176    -1.87550812453645    -3.26656317360070
C   21   6     7.06356622236532     0.52877932406334    -6.57829775293605
H   22   1     4.82318879258361    -2.78573437948532    -5.70504560381835
H   23   1    -6.91582688743803     2.61304780074712    -2.95074552451969
H   24   1    -5.26532430573853     5.45420349051338    -2.31005832200284
C   25   6    -8.39941882261433     4.73263980500213     0.21800571437956
H   26   1     7.83338371486801     2.19084139882824    -5.57093109900697
H   27   1     5.73544244039420     1.27376866537418    -8.01071492370229
C   28   6     9.21124858443101    -0.89699110072176    -7.88926949186242
H   29   1    -7.66272760055236     5.92277078003992     1.77035591474408
H   30   1    -9.31497248082589     3.08753015622020     1.12614408368786
C   31   6   -10.35481709231879     6.21833079391143    -1.30905206253246
H   32   1    10.58815905329501    -1.61074586756696    -6.49512691622620
H   33   1    10.23506248045667     0.32468009384095    -9.23072870921204
H   34   1     8.47665842847139    -2.53598436989925    -8.94921964622535
H   35   1    -9.48948872868064     7.90013588951020    -2.18823918416067
H   36   1   -11.93332513000955     6.86460487874102    -0.11255798845995
H   37   1   -11.15126291841033     5.04495968327630    -2.83849898862534
[GTO]
1 0
 s    8 1.00
                 11720  0.00070964594651845
                  1759  0.0054672722921914
                 400.8   0.027823118610189
                 113.7    0.10474773971146
                 37.03    0.28292084635691
                 13.27    0.44849523869833
                 5.025    0.27081688521277
                 1.013    0.01545029160744
 s    8 1.00
                 11720  -0.00031444341168873
                  1759  -0.0024821376810179
                 400.8  -0.012316355381583
                 113.7  -0.050538917343672
                 37.03   -0.13938490331632
                 13.27   -0.32507749481778
                 5.025   -0.22984830758785
                 1.013     1.0953793467883
 s    1 1.00
                0.3023                   1
 p    3 1.00
                  17.7   0.062679166281506
                 3.854    0.33353656587936
                 1.046    0.74123964163973
 p    1 1.00
                0.2753                   1
 d    1 1.00
                 1.185                   1

2 0
 s    3 1.00
                 13.01   0.033498726389998
                 1.962    0.23480080117413
                0.4446     0.8136829578829
 s    1 1.00
                 0.122                   1
 p    1 1.00
                 0.727                   1

3 0
 s    3 1.00
                 13.01   0.033498726389998
                 1.962    0.23480080117413
                0.4446     0.8136829578829
 s    1 1.00
                 0.122                   1
 p    1 1.00
                 0.727                   1

4 0
 s    8 1.00
                 11720  0.00070964594651845
                  1759  0.0054672722921914
                 400.8   0.027823118610189
                 113.7    0.10474773971146
                 37.03    0.28292084635691
                 13.27    0.44849523869833
                 5.025    0.27081688521277
                 1.013    0.01545029160744
 s    8 1.00
                 11720  -0.00031444341168873
                  1759  -0.0024821376810179
                 400.8  -0.012316355381583
                 113.7  -0.050538917343672
                 37.03   -0.13938490331632
                 13.27   -0.32507749481778
                 5.025   -0.22984830758785
                 1.013     1.0953793467883
 s    1 1.00
                0.3023                   1
 p    3 1.00
                  17.7   0.062679166281506
                 3.854    0.33353656587936
                 1.046    0.74123964163973
 p    1 1.00
                0.2753                   1
 d    1 1.00
                 1.185                   1

5 0
 s    8 1.00
                  6665  0.00069158396281299
                  1000  0.0053257961529341
                   228   0.027060721042034
                 64.71    0.10165684614077
                 21.06     0.2745748236174
                 7.495    0.44829431892377
                 2.797    0.28490261071525
                0.5215   0.015194859206082
 s    8 1.00
                  6665  -0.00029326965268655
                  1000  -0.0023180354739745
                   228  -0.011499786038565
                 64.71  -0.046826727009787
                 21.06   -0.12846616875047
                 7.495   -0.30126627246289
                 2.797   -0.25563070233011
                0.5215      1.093793361012
 s    1 1.00
                0.1596                   1
 p    3 1.00
                 9.439   0.056979251590039
                 2.002    0.31320721150073
                0.5456    0.76037674173753
 p    1 1.00
                0.1517                   1
 d    1 1.00
                  0.55                   1

6 0
 s    8 1.00
                  6665  0.00069158396281299
                  1000  0.0053257961529341
                   228   0.027060721042034
                 64.71    0.10165684614077
                 21.06     0.2745748236174
                 7.495    0.44829431892377
                 2.797    0.28490261071525
                0.5215   0.015194859206082
 s    8 1.00
                  6665  -0.00029326965268655
                  1000  -0.0023180354739745
                   228  -0.011499786038565
                 64.71  -0.046826727009787
                 21.06   -0.12846616875047
                 7.495   -0.30126627246289
                 2.797   -0.25563070233011
                0.5215      1.093793361012
 s    1 1.00
                0.1596                   1
 p    3 1.00
                 9.439   0.056979251590039
                 2.002    0.31320721150073
                0.5456    0.76037674173753
 p    1 1.00
                0.1517                   1
 d    1 1.00
                  0.55                   1

7 0
 s    8 1.00
                  6665  0.00069158396281299
                  1000  0.0053257961529341
                   228   0.027060721042034
                 64.71    0.10165684614077
                 21.06     0.2745748236174
                 7.495    0.44829431892377
                 2.797    0.28490261071525
                0.5215   0.015194859206082
 s    8 1.00
                  6665  -0.00029326965268655
                  1000  -0.0023180354739745
                   228  -0.011499786038565
                 64.71  -0.046826727009787
                 21.06   -0.12846616875047
                 7.495   -0.30126627246289
                 2.797   -0.25563070233011
                0.5215      1.093793361012
 s    1 1.00
                0.1596                   1
 p    3 1.00
                 9.439   0.056979251590039
                 2.002    0.31320721150073
                0.5456    0.76037674173753
 p    1 1.00
                0.1517                   1
 d    1 1.00
                  0.55                   1

8 0
 s    3 1.00
                 13.01   0.033498726389998
                 1.962    0.23480080117413
                0.4446     0.8136829578829
 s    1 1.00
                 0.122                   1
 p    1 1.00
                 0.727                   1

9 0
 s    8 1.00
                  6665  0.00069158396281299
                  1000  0.0053257961529341
                   228   0.027060721042034
                 64.71    0.10165684614077
                 21.06     0.2745748236174
                 7.495    0.44829431892377
                 2.797    0.28490261071525
                0.5215   0.015194859206082
 s    8 1.00
                  6665  -0.00029326965268655
                  1000  -0.0023180354739745
                   228  -0.011499786038565
                 64.71  -0.046826727009787
                 21.06   -0.12846616875047
                 7.495   -0.30126627246289
                 2.797   -0.25563070233011
                0.5215      1.093793361012
 s    1 1.00
                0.1596                   1
 p    3 1.00
                 9.439   0.056979251590039
                 2.002    0.31320721150073
                0.5456    0.76037674173753
 p    1 1.00
                0.1517                   1
 d    1 1.00
                  0.55                   1

10 0
 s    3 1.00
                 13.01   0.033498726389998
                 1.962    0.23480080117413
                0.4446     0.8136829578829
 s    1 1.00
                 0.122                   1
 p    1 1.00
                 0.727                   1

11 0
 s    3 1.00
                 13.01   0.033498726389998
                 1.962    0.23480080117413
                0.4446     0.8136829578829
 s    1 1.00
                 0.122                   1
 p    1 1.00
                 0.727                   1

12 0
 s    3 1.00
                 13.01   0.033498726389998
                 1.962    0.23480080117413
                0.4446     0.8136829578829
 s    1 1.00
                 0.122                   1
 p    1 1.00
                 0.727                   1

13 0
 s    8 1.00
                  6665  0.00069158396281299
                  1000  0.0053257961529341
                   228   0.027060721042034
                 64.71    0.10165684614077
                 21.06     0.2745748236174
                 7.495    0.44829431892377
                 2.797    0.28490261071525
                0.5215   0.015194859206082
 s    8 1.00
                  6665  -0.00029326965268655
                  1000  -0.0023180354739745
                   228  -0.011499786038565
                 64.71  -0.046826727009787
                 21.06   -0.12846616875047
                 7.495   -0.30126627246289
                 2.797   -0.25563070233011
                0.5215      1.093793361012
 s    1 1.00
                0.1596                   1
 p    3 1.00
                 9.439   0.056979251590039
                 2.002    0.31320721150073
                0.5456    0.76037674173753
 p    1 1.00
                0.1517                   1
 d    1 1.00
                  0.55                   1

14 0
 s    3 1.00
                 13.01   0.033498726389998
                 1.962    0.23480080117413
                0.4446     0.8136829578829
 s    1 1.00
                 0.122                   1
 p    1 1.00
                 0.727                   1

15 0
 s    3 1.00
                 13.01   0.033498726389998
                 1.962    0.23480080117413
                0.4446     0.8136829578829
 s    1 1.00
                 0.122                   1
 p    1 1.00
                 0.727                   1

16 0
 s    8 1.00
                  6665  0.00069158396281299
                  1000  0.0053257961529341
                   228   0.027060721042034
                 64.71    0.10165684614077
                 21.06     0.2745748236174
                 7.495    0.44829431892377
                 2.797    0.28490261071525
                0.5215   0.015194859206082
 s    8 1.00
                  6665  -0.00029326965268655
                  1000  -0.0023180354739745
                   228  -0.011499786038565
                 64.71  -0.046826727009787
                 21.06   -0.12846616875047
                 7.495   -0.30126627246289
                 2.797   -0.25563070233011
                0.5215      1.093793361012
 s    1 1.00
                0.1596                   1
 p    3 1.00
                 9.439   0.056979251590039
                 2.002    0.31320721150073
                0.5456    0.76037674173753
 p    1 1.00
                0.1517                   1
 d    1 1.00
                  0.55                   1

17 0
 s    3 1.00
                 13.01   0.033498726389998
                 1.962    0.23480080117413
                0.4446     0.8136829578829
 s    1 1.00
                 0.122                   1
 p    1 1.00
                 0.727                   1

18 0
 s    3 1.00
                 13.01   0.033498726389998
                 1.962    0.23480080117413
                0.4446     0.8136829578829
 s    1 1.00
                 0.122                   1
 p    1 1.00
                 0.727                   1

19 0
 s    8 1.00
                  6665  0.00069158396281299
                  1000  0.0053257961529341
                   228   0.027060721042034
                 64.71    0.10165684614077
                 21.06     0.2745748236174
                 7.495    0.44829431892377
                 2.797    0.28490261071525
                0.5215   0.015194859206082
 s    8 1.00
                  6665  -0.00029326965268655
                  1000  -0.0023180354739745
                   228  -0.011499786038565
                 64.71  -0.046826727009787
                 21.06   -0.12846616875047
                 7.495   -0.30126627246289
                 2.797   -0.25563070233011
                0.5215      1.093793361012
 s    1 1.00
                0.1596                   1
 p    3 1.00
                 9.439   0.056979251590039
                 2.002    0.31320721150073
                0.5456    0.76037674173753
 p    1 1.00
                0.1517                   1
 d    1 1.00
                  0.55                   1

20 0
 s    3 1.00
                 13.01   0.033498726389998
                 1.962    0.23480080117413
                0.4446     0.8136829578829
 s    1 1.00
                 0.122                   1
 p    1 1.00
                 0.727                   1

21 0
 s    8 1.00
                  6665  0.00069158396281299
                  1000  0.0053257961529341
                   228   0.027060721042034
                 64.71    0.10165684614077
                 21.06     0.2745748236174
                 7.495    0.44829431892377
                 2.797    0.28490261071525
                0.5215   0.015194859206082
 s    8 1.00
                  6665  -0.00029326965268655
                  1000  -0.0023180354739745
                   228  -0.011499786038565
                 64.71  -0.046826727009787
                 21.06   -0.12846616875047
                 7.495   -0.30126627246289
                 2.797   -0.25563070233011
                0.5215      1.093793361012
 s    1 1.00
                0.1596                   1
 p    3 1.00
                 9.439   0.056979251590039
                 2.002    0.31320721150073
                0.5456    0.76037674173753
 p    1 1.00
                0.1517                   1
 d    1 1.00
                  0.55                   1

22 0
 s    3 1.00
                 13.01   0.033498726389998
                 1.962    0.23480080117413
                0.4446     0.8136829578829
 s    1 1.00
                 0.122                   1
 p    1 1.00
                 0.727                   1

23 0
 s    3 1.00
                 13.01   0.033498726389998
                 1.962    0.23480080117413
                0.4446     0.8136829578829
 s    1 1.00
                 0.122                   1
 p    1 1.00
                 0.727                   1

24 0
 s    3 1.00
                 13.01   0.033498726389998
                 1.962    0.23480080117413
                0.4446     0.8136829578829
 s    1 1.00
                 0.122                   1
 p    1 1.00
                 0.727                   1

25 0
 s    8 1.00
                  6665  0.00069158396281299
                  1000  0.0053257961529341
                   228   0.027060721042034
                 64.71    0.10165684614077
                 21.06     0.2745748236174
                 7.495    0.44829431892377
                 2.797    0.28490261071525
                0.5215   0.015194859206082
 s    8 1.00
                  6665  -0.00029326965268655
                  1000  -0.0023180354739745
                   228  -0.011499786038565
                 64.71  -0.046826727009787
                 21.06   -0.12846616875047
                 7.495   -0.30126627246289
                 2.797   -0.25563070233011
                0.5215      1.093793361012
 s    1 1.00
                0.1596                   1
 p    3 1.00
                 9.439   0.056979251590039
                 2.002    0.31320721150073
                0.5456    0.76037674173753
 p    1 1.00
                0.1517                   1
 d    1 1.00
                  0.55                   1

26 0
 s    3 1.00
                 13.01   0.033498726389998
                 1.962    0.23480080117413
                0.4446     0.8136829578829
 s    1 1.00
                 0.122                   1
 p    1 1.00
                 0.727                   1

27 0
 s    3 1.00
                 13.01   0.033498726389998
                 1.962    0.23480080117413
                0.4446     0.8136829578829
 s    1 1.00
                 0.122                   1
 p    1 1.00
                 0.727                   1

28 0
 s    8 1.00
                  6665  0.00069158396281299
                  1000  0.0053257961529341
                   228   0.027060721042034
                 64.71    0.10165684614077
                 21.06     0.2745748236174
                 7.495    0.44829431892377
                 2.797    0.28490261071525
                0.5215   0.015194859206082
 s    8 1.00
                  6665  -0.00029326965268655
                  1000  -0.0023180354739745
                   228  -0.011499786038565
                 64.71  -0.046826727009787
                 21.06   -0.12846616875047
                 7.495   -0.30126627246289
                 2.797   -0.25563070233011
                0.5215      1.093793361012
 s    1 1.00
                0.1596                   1
 p    3 1.00
                 9.439   0.056979251590039
                 2.002    0.31320721150073
                0.5456    0.76037674173753
 p    1 1.00
                0.1517                   1
 d    1 1.00
                  0.55                   1

29 0
 s    3 1.00
                 13.01   0.033498726389998
                 1.962    0.23480080117413
                0.4446     0.8136829578829
 s    1 1.00
                 0.122                   1
 p    1 1.00
                 0.727                   1

30 0
 s    3 1.00
                 13.01   0.033498726389998
                 1.962    0.23480080117413
                0.4446     0.8136829578829
 s    1 1.00
                 0.122                   1
 p    1 1.00
                 0.727                   1

31 0
 s    8 1.00
                  6665  0.00069158396281299
                  1000  0.0053257961529341
                   228   0.027060721042034
                 64.71    0.10165684614077
                 21.06     0.2745748236174
                 7.495    0.44829431892377
                 2.797    0.28490261071525
                0.5215   0.015194859206082
 s    8 1.00
                  6665  -0.00029326965268655
                  1000  -0.0023180354739745
                   228  -0.011499786038565
                 64.71  -0.046826727009787
                 21.06   -0.12846616875047
                 7.495   -0.30126627246289
                 2.797   -0.25563070233011
                0.5215      1.093793361012
 s    1 1.00
                0.1596                   1
 p    3 1.00
                 9.439   0.056979251590039
                 2.002    0.31320721150073
                0.5456    0.76037674173753
 p    1 1.00
                0.1517                   1
 d    1 1.00
                  0.55                   1

32 0
 s    3 1.00
                 13.01   0.033498726389998
                 1.962    0.23480080117413
                0.4446     0.8136829578829
 s    1 1.00
                 0.122                   1
 p    1 1.00
                 0.727                   1

33 0
 s    3 1.00
                 13.01   0.033498726389998
                 1.962    0.23480080117413
                0.4446     0.8136829578829
 s    1 1.00
                 0.122                   1
 p    1 1.00
                 0.727                   1

34 0
 s    3 1.00
                 13.01   0.033498726389998
                 1.962    0.23480080117413
                0.4446     0.8136829578829
 s    1 1.00
                 0.122                   1
 p    1 1.00
                 0.727                   1

35 0
 s    3 1.00
                 13.01   0.033498726389998
                 1.962    0.23480080117413
                0.4446     0.8136829578829
 s    1 1.00
                 0.122                   1
 p    1 1.00
                 0.727                   1

36 0
 s    3 1.00
                 13.01   0.033498726389998
                 1.962    0.23480080117413
                0.4446     0.8136829578829
 s    1 1.00
                 0.122                   1
 p    1 1.00
                 0.727                   1

37 0
 s    3 1.00
                 13.01   0.033498726389998
                 1.962    0.23480080117413
                0.4446     0.8136829578829
 s    1 1.00
                 0.122                   1
 p    1 1.00
                 0.727                   1

[5d]
[7f]
[9g]

[MO]
 Sym= A
 Ene=               0
 Spin= Alpha
 Occup=    1.00000
   1    -1.0974592353928e-06
   2    -5.1990315526777e-06
   3    2.7296078403575e-06
   4    1.7808264565236e-06
   5    -3.4991109868074e-06
   6    1.1585288719082e-05
   7    1.3742549560944e-07
   8    -3.4099787933452e-06
   9    5.5129848907817e-06
  10    6.5854991198117e-07
  11    4.4748286617692e-07
  12    -1.6758194857996e-07
  13    2.9466181062085e-07
  14    1.2641986191102e-08
  15    -2.8802177286419e-06
  16    -9.2190450801048e-06
  17    1.0412410708985e-07
  18    -1.1265458333426e-07
  19    -2.1891060006073e-06
  20    -2.9149209059171e-06
  21    8.4100019230324e-06
  22    3.0848597766389e-07
  23    -2.7724862511898e-07
  24    -2.2814735522121e-07
  25    8.0739515941333e-06
  26    -9.6014814410491e-06
  27    -0.00013133182341862
  28    -6.5123864918374e-05
  29    0.00010302435643804
  30    8.1426738470506e-05
  31    -0.00012350137479522
  32    0.00014916601242724
  33    0.00010233987995806
  34    -4.1422138910643e-06
  35    -4.5985159711326e-06
  36    1.3853676860467e-06
  37    -8.5198150530794e-07
  38    -1.8646154991674e-06
  39    -2.5816553628488e-05
  40    0.00016622418614046
  41    0.00066229065826716
  42    0.00026077097634768
  43    -0.00021290153580234
  44    -0.00020012867677552
  45    0.00040741864193735
  46    -0.00036151887258787
  47    -7.8702943452731e-05
  48    -1.2816456083162e-05
  49    -2.5010820253996e-05
  50    3.2755025843271e-05
  51    -1.6388858254289e-05
  52    -2.2505576232259e-05
  53    -7.2871732252794e-05
  54    -0.00072026554383142
  55    0.00016808293540699
  56    -0.0007018607521536
  57    1.5615018803806e-05
  58    0.00059122650872619
  59    0.00032769397312563
  60    9.2459487088751e-06
  61    -0.00037163456566896
  62    -9.3135139716118e-06
  63    1.2902835391359e-06
  64    1.9236980427706e-05
  65    9.5220098657987e-06
  66    -1.4721902073065e-05
  67    -5.526167369477e-07
  68    -3.0964751700301e-05
  69    -0.00012805084188539
  70    -4.7650105414269e-05
  71    6.7505785388055e-05
  72    -4.3946047599462e-05
  73    0.00014845436695704
  74    1.9180169387387e-05
  75    -5.2828654509647e-05
  76    -8.7215085820653e-06
  77    4.8485289276802e-06
  78    -6.9502619385646e-06
  79    -4.8681586662959e-06
  80    -2.5618851190147e-06
  81    -0.00040155989772153
  82    -5.9798023289277e-05
  83    2.144471142416e-06
  84    -1.3802834213886e-05
  85    6.0173375343751e-05
  86    -0.00063143941456792
  87    -0.00032088924533804
  88    -0.00083508119211918
  89    0.00014811780087334
  90    0.00074015007898567
  91    -0.00041936577601166
  92    0.0002515280299444
  93    0.00098084899105892
  94    -0.00054991719976057
  95    -5.2331127345025e-06
  96    3.1281478459084e-05
  97    2.4464222013084e-05
  98    1.9016223253958e-07
  99    -2.5182684007433e-05
 100    -0.00033843991492573
 101    -2.6023190706916e-05
 102    -6.3056925819761e-05
 103    -2.302672326586e-05
 104    1.0225429822419e-05
 105    -2.3435319035643e-05
 106    4.8383243109452e-05
 107    -9.4913640480036e-06
 108    6.9989179562747e-06
 109    4.9181714225881e-06
 110    1.3197891857968e-05
 111    6.6770347859039e-05
 112    -5.3821531010079e-06
 113    -2.2492348536888e-06
 114    -1.2575665714083e-06
 115    0.00088389871638778
 116    -4.3937217138112e-06
 117    0.00015049960054107
 118    1.7925971353556e-05
 119    -4.0100857841391e-06
 120    -2.416956575649e-05
 121    0.00013703423826904
 122    -0.00011944707552673
 123    -4.7384510005755e-05
 124    1.7468343126571e-06
 125    -8.6624554167598e-06
 126    4.0254665628458e-06
 127    3.830745284935e-06
 128    -4.6136307512563e-06
 129    0.00023963047592355
 130    -0.00012436947607838
 131    -3.5840783244261e-05
 132    -1.9709721283263e-05
 133    4.7211771255918e-05
 134    0.00027532760960356
 135    -0.00015515555940467
 136    -4.1407957985985e-05
 137    -2.3711214021777e-05
 138    2.6900408789449e-05
 139    -0.041435910083317
 140    -0.00042794181413954
 141    0.0039280425375894
 142    0.00011971210347911
 143    5.0389474198205e-05
 144    -0.00012062965289983
 145    0.00086265685845462
 146    0.0011256589077609
 147    -0.001203768526961
 148    -1.5952330976483e-05
 149    7.8687383595573e-05
 150    0.00010584148661596
 151    2.5636371855865e-05
 152    -7.7688779289936e-05
 153    -6.1045243912866e-06
 154    4.1678734732991e-05
 155    -1.0170453183497e-06
 156    6.2653049672417e-07
 157    -1.5780264403976e-06
 158    -8.9689675779078e-06
 159    -1.0402008647536e-05
 160    -3.2057280205768e-06
 161    1.4700290676747e-06
 162    1.1363472615709e-06
 163    -0.0013702940830544
 164    -2.0254912079597e-05
 165    7.0073528539178e-05
 166    -5.0238264660735e-06
 167    1.5953955097497e-06
 168    -9.9819752716708e-07
 169    2.0175655445962e-05
 170    -5.6284813633154e-06
 171    1.2783770752459e-06
 172    -1.2458688000407e-06
 173    3.742441351452e-07
 174    1.4325805957938e-06
 175    2.8908557995837e-06
 176    -1.7704569046875e-06
 177    -0.00010514137228827
 178    0.00019502863432884
 179    -5.6376695236749e-06
 180    3.7760304599965e-05
 181    -6.0982326101845e-05
 182       1.0005643882548
 183    0.0051297377579645
 184    -0.012243610647585
 185    -2.1617389188231e-06
 186    0.00019853258228424
 187    -7.846271889794e-05
 188    0.00020937074055669
 189    0.0013984110007839
 190    -0.00069276838133829
 191    1.2829380785606e-06
 192    0.00031405114672746
 193    8.7691127542821e-05
 194    -6.2831246873776e-05
 195    1.1013788141431e-06
 196    -0.00011070195480534
 197    0.00016202980219847
 198    4.3465270437657e-05
 199    5.6002141909046e-05
 200    -6.8443770136909e-06
 201    -6.5919323269433e-06
 202    -1.1297865443689e-05
 203    -1.6320583561937e-06
 204    -3.0070221928319e-07
 205    -6.3955220727434e-07
 206    -5.9023257383805e-06
 207    -2.0816726098251e-05
 208    -7.4961497617472e-07
 209    1.6976543967444e-06
 210    -5.5910789350266e-08
 211    0.00024146537027586
 212    3.0265058040105e-07
 213    -1.0995895802929e-06
 214    2.1463788807161e-06
 215    -2.4588801110688e-07
 216    -3.2928318582008e-06
 217    4.2390444574696e-05
 218    -2.3450690016197e-05
 219    1.7472059378981e-05
 220    -2.4638615228369e-07
 221    -7.2640345993314e-07
 222    1.5052397325426e-06
 223    4.0999402144601e-07
 224    -3.634358747047e-07
 225    0.00020585880267235
 226    0.0011990747515043
 227    0.00019613991552113
 228    0.0003023166666066
 229    0.00026376968081834
 230    0.00019919680928202
 231    0.0012230328540183
 232    -0.00030581282433329
 233    8.4746274363039e-05
 234    -0.00031690849793051
 235      0.04831384616495
 236    0.00017417537805617
 237    0.0022581368126816
 238    -0.00011721145876457
 239    7.2794604640712e-05
 240    7.2580572874445e-05
 241    -0.00082437476183098
 242    0.00054347850273638
 243    0.00050925387424582
 244    5.3656095568038e-05
 245    0.00011472819261999
 246    -9.4973576093157e-05
 247    -4.6453609756321e-05
 248    0.0001576023892879
 249    -2.2678243653621e-06
 250    -6.7415093112963e-06
 251    -1.2590718610075e-06
 252    1.759147171696e-06
 253    -5.1992048172098e-07
 254    -1.9344484797206e-06
 255    2.3652862202582e-06
 256    -1.3839603376405e-06
 257    9.5618972682746e-07
 258    -1.5655461805738e-06
 259    -4.3351631210288e-05
 260    -5.0606582088073e-06
 261    3.3982243543375e-05
 262    -8.4899738648377e-07