[Molden Format]
made by pyscf v[2.0.1]
[Atoms] (AU)
O   1   8     0.00000000000000     0.00000000000000     9.42996968581551
H   2   1     0.00000000000000     0.00000000000000     7.60656786391454
H   3   1    -0.05031916615174     1.78353065140343     9.80584138228218
O   4   8     0.00000000000000     0.00000000000000     2.31533471513237
C   5   6     0.00000000000000     0.00000000000000     0.00000000000000
C   6   6     2.01118073026938    -1.40227222164369    -1.50774939176400
C   7   6    -2.01249334291722     1.41331050329955    -1.50315905028694
H   8   1     3.32037363730244    -2.26721897153159    -0.13599698591495
C   9   6     3.45899267434009     0.28739631745591    -3.37437943254505
H   10   1     1.07662969841332    -2.94725144642667    -2.56541439481080
H   11   1    -2.67503415753480     0.18421555839588    -3.06194479365997
H   12   1    -1.07974048864772     3.03851734677796    -2.43674295017013
C   13   6    -4.21607110578555     2.32938802552922     0.11994162256091
H   14   1     4.24440173074564     1.93368664142019    -2.34976285512790
H   15   1     2.15020713235517     1.04714335134846    -4.81494497423699
C   16   6     5.60746363007797    -1.12419643481196    -4.70268606082550
H   17   1    -3.46838323670267     3.50951302338067     1.66946842715333
H   18   1    -5.11873485366228     0.68575958301209     1.04047743976495
C   19   6    -6.18314754751344     3.80909592987882    -1.39656589068747
H   20   1     6.93011263717176    -1.87550812453645    -3.26656317360070
C   21   6     7.06356622236532     0.52877932406334    -6.57829775293605
H   22   1     4.82318879258361    -2.78573437948532    -5.70504560381835
H   23   1    -6.91582688743803     2.61304780074712    -2.95074552451969
H   24   1    -5.26532430573853     5.45420349051338    -2.31005832200284
C   25   6    -8.39941882261433     4.73263980500213     0.21800571437956
H   26   1     7.83338371486801     2.19084139882824    -5.57093109900697
H   27   1     5.73544244039420     1.27376866537418    -8.01071492370229
C   28   6     9.21124858443101    -0.89699110072176    -7.88926949186242
H   29   1    -7.66272760055236     5.92277078003992     1.77035591474408
H   30   1    -9.31497248082589     3.08753015622020     1.12614408368786
C   31   6   -10.35481709231879     6.21833079391143    -1.30905206253246
H   32   1    10.58815905329501    -1.61074586756696    -6.49512691622620
H   33   1    10.23506248045667     0.32468009384095    -9.23072870921204
H   34   1     8.47665842847139    -2.53598436989925    -8.94921964622535
H   35   1    -9.48948872868064     7.90013588951020    -2.18823918416067
H   36   1   -11.93332513000955     6.86460487874102    -0.11255798845995
H   37   1   -11.15126291841033     5.04495968327630    -2.83849898862534
[GTO]
1 0
 s    8 1.00
                 11720  0.00070964594651845
                  1759  0.0054672722921914
                 400.8   0.027823118610189
                 113.7    0.10474773971146
                 37.03    0.28292084635691
                 13.27    0.44849523869833
                 5.025    0.27081688521277
                 1.013    0.01545029160744
 s    8 1.00
                 11720  -0.00031444341168873
                  1759  -0.0024821376810179
                 400.8  -0.012316355381583
                 113.7  -0.050538917343672
                 37.03   -0.13938490331632
                 13.27   -0.32507749481778
                 5.025   -0.22984830758785
                 1.013     1.0953793467883
 s    1 1.00
                0.3023                   1
 p    3 1.00
                  17.7   0.062679166281506
                 3.854    0.33353656587936
                 1.046    0.74123964163973
 p    1 1.00
                0.2753                   1
 d    1 1.00
                 1.185                   1

2 0
 s    3 1.00
                 13.01   0.033498726389998
                 1.962    0.23480080117413
                0.4446     0.8136829578829
 s    1 1.00
                 0.122                   1
 p    1 1.00
                 0.727                   1

3 0
 s    3 1.00
                 13.01   0.033498726389998
                 1.962    0.23480080117413
                0.4446     0.8136829578829
 s    1 1.00
                 0.122                   1
 p    1 1.00
                 0.727                   1

4 0
 s    8 1.00
                 11720  0.00070964594651845
                  1759  0.0054672722921914
                 400.8   0.027823118610189
                 113.7    0.10474773971146
                 37.03    0.28292084635691
                 13.27    0.44849523869833
                 5.025    0.27081688521277
                 1.013    0.01545029160744
 s    8 1.00
                 11720  -0.00031444341168873
                  1759  -0.0024821376810179
                 400.8  -0.012316355381583
                 113.7  -0.050538917343672
                 37.03   -0.13938490331632
                 13.27   -0.32507749481778
                 5.025   -0.22984830758785
                 1.013     1.0953793467883
 s    1 1.00
                0.3023                   1
 p    3 1.00
                  17.7   0.062679166281506
                 3.854    0.33353656587936
                 1.046    0.74123964163973
 p    1 1.00
                0.2753                   1
 d    1 1.00
                 1.185                   1

5 0
 s    8 1.00
                  6665  0.00069158396281299
                  1000  0.0053257961529341
                   228   0.027060721042034
                 64.71    0.10165684614077
                 21.06     0.2745748236174
                 7.495    0.44829431892377
                 2.797    0.28490261071525
                0.5215   0.015194859206082
 s    8 1.00
                  6665  -0.00029326965268655
                  1000  -0.0023180354739745
                   228  -0.011499786038565
                 64.71  -0.046826727009787
                 21.06   -0.12846616875047
                 7.495   -0.30126627246289
                 2.797   -0.25563070233011
                0.5215      1.093793361012
 s    1 1.00
                0.1596                   1
 p    3 1.00
                 9.439   0.056979251590039
                 2.002    0.31320721150073
                0.5456    0.76037674173753
 p    1 1.00
                0.1517                   1
 d    1 1.00
                  0.55                   1

6 0
 s    8 1.00
                  6665  0.00069158396281299
                  1000  0.0053257961529341
                   228   0.027060721042034
                 64.71    0.10165684614077
                 21.06     0.2745748236174
                 7.495    0.44829431892377
                 2.797    0.28490261071525
                0.5215   0.015194859206082
 s    8 1.00
                  6665  -0.00029326965268655
                  1000  -0.0023180354739745
                   228  -0.011499786038565
                 64.71  -0.046826727009787
                 21.06   -0.12846616875047
                 7.495   -0.30126627246289
                 2.797   -0.25563070233011
                0.5215      1.093793361012
 s    1 1.00
                0.1596                   1
 p    3 1.00
                 9.439   0.056979251590039
                 2.002    0.31320721150073
                0.5456    0.76037674173753
 p    1 1.00
                0.1517                   1
 d    1 1.00
                  0.55                   1

7 0
 s    8 1.00
                  6665  0.00069158396281299
                  1000  0.0053257961529341
                   228   0.027060721042034
                 64.71    0.10165684614077
                 21.06     0.2745748236174
                 7.495    0.44829431892377
                 2.797    0.28490261071525
                0.5215   0.015194859206082
 s    8 1.00
                  6665  -0.00029326965268655
                  1000  -0.0023180354739745
                   228  -0.011499786038565
                 64.71  -0.046826727009787
                 21.06   -0.12846616875047
                 7.495   -0.30126627246289
                 2.797   -0.25563070233011
                0.5215      1.093793361012
 s    1 1.00
                0.1596                   1
 p    3 1.00
                 9.439   0.056979251590039
                 2.002    0.31320721150073
                0.5456    0.76037674173753
 p    1 1.00
                0.1517                   1
 d    1 1.00
                  0.55                   1

8 0
 s    3 1.00
                 13.01   0.033498726389998
                 1.962    0.23480080117413
                0.4446     0.8136829578829
 s    1 1.00
                 0.122                   1
 p    1 1.00
                 0.727                   1

9 0
 s    8 1.00
                  6665  0.00069158396281299
                  1000  0.0053257961529341
                   228   0.027060721042034
                 64.71    0.10165684614077
                 21.06     0.2745748236174
                 7.495    0.44829431892377
                 2.797    0.28490261071525
                0.5215   0.015194859206082
 s    8 1.00
                  6665  -0.00029326965268655
                  1000  -0.0023180354739745
                   228  -0.011499786038565
                 64.71  -0.046826727009787
                 21.06   -0.12846616875047
                 7.495   -0.30126627246289
                 2.797   -0.25563070233011
                0.5215      1.093793361012
 s    1 1.00
                0.1596                   1
 p    3 1.00
                 9.439   0.056979251590039
                 2.002    0.31320721150073
                0.5456    0.76037674173753
 p    1 1.00
                0.1517                   1
 d    1 1.00
                  0.55                   1

10 0
 s    3 1.00
                 13.01   0.033498726389998
                 1.962    0.23480080117413
                0.4446     0.8136829578829
 s    1 1.00
                 0.122                   1
 p    1 1.00
                 0.727                   1

11 0
 s    3 1.00
                 13.01   0.033498726389998
                 1.962    0.23480080117413
                0.4446     0.8136829578829
 s    1 1.00
                 0.122                   1
 p    1 1.00
                 0.727                   1

12 0
 s    3 1.00
                 13.01   0.033498726389998
                 1.962    0.23480080117413
                0.4446     0.8136829578829
 s    1 1.00
                 0.122                   1
 p    1 1.00
                 0.727                   1

13 0
 s    8 1.00
                  6665  0.00069158396281299
                  1000  0.0053257961529341
                   228   0.027060721042034
                 64.71    0.10165684614077
                 21.06     0.2745748236174
                 7.495    0.44829431892377
                 2.797    0.28490261071525
                0.5215   0.015194859206082
 s    8 1.00
                  6665  -0.00029326965268655
                  1000  -0.0023180354739745
                   228  -0.011499786038565
                 64.71  -0.046826727009787
                 21.06   -0.12846616875047
                 7.495   -0.30126627246289
                 2.797   -0.25563070233011
                0.5215      1.093793361012
 s    1 1.00
                0.1596                   1
 p    3 1.00
                 9.439   0.056979251590039
                 2.002    0.31320721150073
                0.5456    0.76037674173753
 p    1 1.00
                0.1517                   1
 d    1 1.00
                  0.55                   1

14 0
 s    3 1.00
                 13.01   0.033498726389998
                 1.962    0.23480080117413
                0.4446     0.8136829578829
 s    1 1.00
                 0.122                   1
 p    1 1.00
                 0.727                   1

15 0
 s    3 1.00
                 13.01   0.033498726389998
                 1.962    0.23480080117413
                0.4446     0.8136829578829
 s    1 1.00
                 0.122                   1
 p    1 1.00
                 0.727                   1

16 0
 s    8 1.00
                  6665  0.00069158396281299
                  1000  0.0053257961529341
                   228   0.027060721042034
                 64.71    0.10165684614077
                 21.06     0.2745748236174
                 7.495    0.44829431892377
                 2.797    0.28490261071525
                0.5215   0.015194859206082
 s    8 1.00
                  6665  -0.00029326965268655
                  1000  -0.0023180354739745
                   228  -0.011499786038565
                 64.71  -0.046826727009787
                 21.06   -0.12846616875047
                 7.495   -0.30126627246289
                 2.797   -0.25563070233011
                0.5215      1.093793361012
 s    1 1.00
                0.1596                   1
 p    3 1.00
                 9.439   0.056979251590039
                 2.002    0.31320721150073
                0.5456    0.76037674173753
 p    1 1.00
                0.1517                   1
 d    1 1.00
                  0.55                   1

17 0
 s    3 1.00
                 13.01   0.033498726389998
                 1.962    0.23480080117413
                0.4446     0.8136829578829
 s    1 1.00
                 0.122                   1
 p    1 1.00
                 0.727                   1

18 0
 s    3 1.00
                 13.01   0.033498726389998
                 1.962    0.23480080117413
                0.4446     0.8136829578829
 s    1 1.00
                 0.122                   1
 p    1 1.00
                 0.727                   1

19 0
 s    8 1.00
                  6665  0.00069158396281299
                  1000  0.0053257961529341
                   228   0.027060721042034
                 64.71    0.10165684614077
                 21.06     0.2745748236174
                 7.495    0.44829431892377
                 2.797    0.28490261071525
                0.5215   0.015194859206082
 s    8 1.00
                  6665  -0.00029326965268655
                  1000  -0.0023180354739745
                   228  -0.011499786038565
                 64.71  -0.046826727009787
                 21.06   -0.12846616875047
                 7.495   -0.30126627246289
                 2.797   -0.25563070233011
                0.5215      1.093793361012
 s    1 1.00
                0.1596                   1
 p    3 1.00
                 9.439   0.056979251590039
                 2.002    0.31320721150073
                0.5456    0.76037674173753
 p    1 1.00
                0.1517                   1
 d    1 1.00
                  0.55                   1

20 0
 s    3 1.00
                 13.01   0.033498726389998
                 1.962    0.23480080117413
                0.4446     0.8136829578829
 s    1 1.00
                 0.122                   1
 p    1 1.00
                 0.727                   1

21 0
 s    8 1.00
                  6665  0.00069158396281299
                  1000  0.0053257961529341
                   228   0.027060721042034
                 64.71    0.10165684614077
                 21.06     0.2745748236174
                 7.495    0.44829431892377
                 2.797    0.28490261071525
                0.5215   0.015194859206082
 s    8 1.00
                  6665  -0.00029326965268655
                  1000  -0.0023180354739745
                   228  -0.011499786038565
                 64.71  -0.046826727009787
                 21.06   -0.12846616875047
                 7.495   -0.30126627246289
                 2.797   -0.25563070233011
                0.5215      1.093793361012
 s    1 1.00
                0.1596                   1
 p    3 1.00
                 9.439   0.056979251590039
                 2.002    0.31320721150073
                0.5456    0.76037674173753
 p    1 1.00
                0.1517                   1
 d    1 1.00
                  0.55                   1

22 0
 s    3 1.00
                 13.01   0.033498726389998
                 1.962    0.23480080117413
                0.4446     0.8136829578829
 s    1 1.00
                 0.122                   1
 p    1 1.00
                 0.727                   1

23 0
 s    3 1.00
                 13.01   0.033498726389998
                 1.962    0.23480080117413
                0.4446     0.8136829578829
 s    1 1.00
                 0.122                   1
 p    1 1.00
                 0.727                   1

24 0
 s    3 1.00
                 13.01   0.033498726389998
                 1.962    0.23480080117413
                0.4446     0.8136829578829
 s    1 1.00
                 0.122                   1
 p    1 1.00
                 0.727                   1

25 0
 s    8 1.00
                  6665  0.00069158396281299
                  1000  0.0053257961529341
                   228   0.027060721042034
                 64.71    0.10165684614077
                 21.06     0.2745748236174
                 7.495    0.44829431892377
                 2.797    0.28490261071525
                0.5215   0.015194859206082
 s    8 1.00
                  6665  -0.00029326965268655
                  1000  -0.0023180354739745
                   228  -0.011499786038565
                 64.71  -0.046826727009787
                 21.06   -0.12846616875047
                 7.495   -0.30126627246289
                 2.797   -0.25563070233011
                0.5215      1.093793361012
 s    1 1.00
                0.1596                   1
 p    3 1.00
                 9.439   0.056979251590039
                 2.002    0.31320721150073
                0.5456    0.76037674173753
 p    1 1.00
                0.1517                   1
 d    1 1.00
                  0.55                   1

26 0
 s    3 1.00
                 13.01   0.033498726389998
                 1.962    0.23480080117413
                0.4446     0.8136829578829
 s    1 1.00
                 0.122                   1
 p    1 1.00
                 0.727                   1

27 0
 s    3 1.00
                 13.01   0.033498726389998
                 1.962    0.23480080117413
                0.4446     0.8136829578829
 s    1 1.00
                 0.122                   1
 p    1 1.00
                 0.727                   1

28 0
 s    8 1.00
                  6665  0.00069158396281299
                  1000  0.0053257961529341
                   228   0.027060721042034
                 64.71    0.10165684614077
                 21.06     0.2745748236174
                 7.495    0.44829431892377
                 2.797    0.28490261071525
                0.5215   0.015194859206082
 s    8 1.00
                  6665  -0.00029326965268655
                  1000  -0.0023180354739745
                   228  -0.011499786038565
                 64.71  -0.046826727009787
                 21.06   -0.12846616875047
                 7.495   -0.30126627246289
                 2.797   -0.25563070233011
                0.5215      1.093793361012
 s    1 1.00
                0.1596                   1
 p    3 1.00
                 9.439   0.056979251590039
                 2.002    0.31320721150073
                0.5456    0.76037674173753
 p    1 1.00
                0.1517                   1
 d    1 1.00
                  0.55                   1

29 0
 s    3 1.00
                 13.01   0.033498726389998
                 1.962    0.23480080117413
                0.4446     0.8136829578829
 s    1 1.00
                 0.122                   1
 p    1 1.00
                 0.727                   1

30 0
 s    3 1.00
                 13.01   0.033498726389998
                 1.962    0.23480080117413
                0.4446     0.8136829578829
 s    1 1.00
                 0.122                   1
 p    1 1.00
                 0.727                   1

31 0
 s    8 1.00
                  6665  0.00069158396281299
                  1000  0.0053257961529341
                   228   0.027060721042034
                 64.71    0.10165684614077
                 21.06     0.2745748236174
                 7.495    0.44829431892377
                 2.797    0.28490261071525
                0.5215   0.015194859206082
 s    8 1.00
                  6665  -0.00029326965268655
                  1000  -0.0023180354739745
                   228  -0.011499786038565
                 64.71  -0.046826727009787
                 21.06   -0.12846616875047
                 7.495   -0.30126627246289
                 2.797   -0.25563070233011
                0.5215      1.093793361012
 s    1 1.00
                0.1596                   1
 p    3 1.00
                 9.439   0.056979251590039
                 2.002    0.31320721150073
                0.5456    0.76037674173753
 p    1 1.00
                0.1517                   1
 d    1 1.00
                  0.55                   1

32 0
 s    3 1.00
                 13.01   0.033498726389998
                 1.962    0.23480080117413
                0.4446     0.8136829578829
 s    1 1.00
                 0.122                   1
 p    1 1.00
                 0.727                   1

33 0
 s    3 1.00
                 13.01   0.033498726389998
                 1.962    0.23480080117413
                0.4446     0.8136829578829
 s    1 1.00
                 0.122                   1
 p    1 1.00
                 0.727                   1

34 0
 s    3 1.00
                 13.01   0.033498726389998
                 1.962    0.23480080117413
                0.4446     0.8136829578829
 s    1 1.00
                 0.122                   1
 p    1 1.00
                 0.727                   1

35 0
 s    3 1.00
                 13.01   0.033498726389998
                 1.962    0.23480080117413
                0.4446     0.8136829578829
 s    1 1.00
                 0.122                   1
 p    1 1.00
                 0.727                   1

36 0
 s    3 1.00
                 13.01   0.033498726389998
                 1.962    0.23480080117413
                0.4446     0.8136829578829
 s    1 1.00
                 0.122                   1
 p    1 1.00
                 0.727                   1

37 0
 s    3 1.00
                 13.01   0.033498726389998
                 1.962    0.23480080117413
                0.4446     0.8136829578829
 s    1 1.00
                 0.122                   1
 p    1 1.00
                 0.727                   1

[5d]
[7f]
[9g]

[MO]
 Sym= A
 Ene=               0
 Spin= Alpha
 Occup=    1.00000
   1    -6.5472559765249e-08
   2    -1.0384101763543e-06
   3    -1.0829535375904e-06
   4    6.8863838285437e-08
   5    -9.9456816883696e-08
   6    1.9793918019231e-06
   7    -2.7374302471013e-08
   8    -2.6939845627641e-07
   9    9.1971735871311e-07
  10    2.9683930088786e-07
  11    -1.5327706607607e-08
  12    3.1978153712195e-08
  13    1.764880424386e-08
  14    -7.3434816234694e-10
  15    -9.292169016674e-07
  16    3.6995337992636e-06
  17    -1.9867504322162e-07
  18    2.2793472273863e-07
  19    -1.1414758375765e-06
  20    -2.3351221699523e-07
  21    5.0763279672763e-07
  22    2.4075722342728e-08
  23    -2.1399283484627e-07
  24    1.2581338169223e-07
  25    7.6915595240339e-06
  26    -8.6359024104382e-06
  27    -0.00012479394468568
  28    -6.6965637812911e-05
  29    0.00010393424830299
  30    8.3500219788097e-05
  31    -0.00012271279837778
  32    0.00014736979480458
  33    9.3106275708119e-05
  34    -4.0863223390691e-06
  35    -4.2297178489097e-06
  36    7.3199515823089e-07
  37    -8.2979675596329e-07
  38    -1.8153500880623e-06
  39    -2.8110509612217e-05
  40    0.00015952152738535
  41    0.00065689933646229
  42    0.00026001061692753
  43    -0.00020797150548125
  44    -0.00020187683429251
  45    0.00040119437895684
  46    -0.00035378607025078
  47    -8.4816286321252e-05
  48    -1.3182027392619e-05
  49    -2.6200065643354e-05
  50    3.3543129836212e-05
  51    -1.6132266497998e-05
  52    -2.2365993825238e-05
  53    -7.2377160409256e-05
  54    -0.00071518264315073
  55    0.00018273199132977
  56    -0.00070401669123644
  57    2.0790644017867e-05
  58    0.00059157191360833
  59    0.00032791689366254
  60    1.3096532625743e-05
  61    -0.00036959476568279
  62    -9.6358433271223e-06
  63    2.2683103860698e-06
  64    1.8868235209381e-05
  65    8.290298690536e-06
  66    -1.4548539354427e-05
  67     -5.4220335359e-07
  68    -3.1265039164004e-05
  69    -0.0001387000275799
  70    -4.9647104435561e-05
  71    6.7714482075252e-05
  72    -4.4173469264462e-05
  73    0.00014476607236158
  74    2.1330665780873e-05
  75    -5.5839751438439e-05
  76    -8.7847819160161e-06
  77    4.9250218082324e-06
  78    -6.8411713515948e-06
  79    -4.7059341918864e-06
  80    -2.6317107923024e-06
  81    -0.00040119658019589
  82    -6.1309047986863e-05
  83    1.7272210467866e-06
  84    -1.3364606265802e-05
  85    6.0412805238284e-05
  86    -0.00063158966771593
  87    -0.00032963768037869
  88    -0.00083683867516201
  89    0.00013094775081264
  90    0.00075717177571729
  91    -0.00041099320061119
  92    0.00024648210229357
  93    0.00098749268577284
  94    -0.00054893064812291
  95    -4.5978047394352e-06
  96    3.2491590264967e-05
  97    2.381284224102e-05
  98    -1.8499481764354e-08
  99    -2.3441782877092e-05
 100    -0.00033770416938235
 101    -2.5264570497156e-05
 102    -6.3239112543317e-05
 103    -2.2576397951218e-05
 104    1.0206722899888e-05
 105    -2.2674131582376e-05
 106    4.8736114724501e-05
 107    -9.4849789098865e-06
 108    7.1445390070732e-06
 109    4.8193725217335e-06
 110    1.2142201555855e-05
 111    6.5885358049703e-05
 112    -5.4312095900904e-06
 113    -2.2686802044986e-06
 114    -1.4304404047542e-06
 115    0.00085439208969945
 116    -4.2486602824877e-06
 117    0.00015260237237564
 118    1.8535722748357e-05
 119    -4.4066259378898e-06
 120    -2.5140924600358e-05
 121    0.00013915174513388
 122    -0.00012098288395668
 123    -4.8896885357447e-05
 124    1.7592190000399e-06
 125    -8.7397337803829e-06
 126    4.0884488466378e-06
 127    3.9076931299537e-06
 128    -4.7641645354431e-06
 129    0.00024517526064576
 130    -0.00011964170823517
 131    -3.626306208538e-05
 132    -1.9508767233095e-05
 133    4.6998822805022e-05
 134    0.00028107793758375
 135    -0.00015084429555743
 136    -4.1329373238469e-05
 137    -2.3286741294511e-05
 138    2.7280509317713e-05
 139    -0.040244385262319
 140    -0.00043730624940357
 141    0.0039095363441357
 142    0.00013545863047869
 143    4.0750108871993e-05
 144    -0.00013074649446714
 145    0.00087957393137014
 146    0.0011189097133664
 147    -0.001215825066137
 148    -1.5431139173831e-05
 149    7.8477630547528e-05
 150    0.0001037289361273
 151    2.4807114872452e-05
 152    -7.5549759736025e-05
 153    -6.2501928443873e-06
 154    4.291973471728e-05
 155    -1.0083131985888e-06
 156    6.7728916218431e-07
 157    -1.6255973063878e-06
 158    -9.0307482115709e-06
 159    -1.0448258643689e-05
 160    -3.2244678698206e-06
 161    1.4823762346398e-06
 162    1.1155228179883e-06
 163    -0.0011959182042643
 164    -1.9443146228394e-05
 165    6.8535921184154e-05
 166    -4.9452700069191e-06
 167    1.6106593290764e-06
 168    -1.0685367345014e-06
 169    1.9392893674884e-05
 170    -5.2159222963274e-06
 171    1.7263529390629e-06
 172    -1.2820047735055e-06
 173    3.5157931104302e-07
 174    1.4665913442343e-06
 175    2.895122334011e-06
 176    -1.766831910447e-06
 177    -0.00010449711554211
 178    0.00019831893358532
 179    -5.5181334651887e-06
 180    3.7519592841958e-05
 181    -6.0300572614703e-05
 182       1.0003363355063
 183    0.0051290224004331
 184    -0.012233033465846
 185    3.8149184358654e-06
 186    0.0002011432107507
 187    -8.3350956148573e-05
 188    0.00021065621122778
 189    0.0013969511302213
 190    -0.00069349605550896
 191    1.2342617399797e-06
 192    0.00031581891372851
 193    8.8019507093779e-05
 194    -6.3487080701254e-05
 195    1.4414985520482e-06
 196    -0.00011012756806285
 197    0.00016510625293831
 198    4.2888002307332e-05
 199    5.5399883975319e-05
 200    -6.9057801091595e-06
 201    -6.6752479481144e-06
 202    -1.1185437487459e-05
 203    -1.6070675135377e-06
 204    -3.5615489930534e-07
 205    -7.1712214882477e-07
 206    -5.9139515303862e-06
 207    -2.0617499282753e-05
 208    -7.0011496410953e-07
 209    1.742559548394e-06
 210    -1.1535672695578e-07
 211    0.00028489228430332
 212    6.8887279469072e-07
 213    -1.7479510628956e-06
 214    2.248787799317e-06
 215    -2.7439122187366e-07
 216    -3.4046649919931e-06
 217    4.3069466144285e-05
 218    -2.3838580367358e-05
 219    1.7897573543664e-05
 220    -2.4422823523056e-07
 221    -7.1749185780009e-07
 222     1.51620517016e-06
 223    3.8433405896315e-07
 224    -3.2283947755355e-07
 225    0.00020446531117052
 226    0.0012005316690181
 227    0.0001966044316171
 228    0.00030266550772161
 229    0.0002643175469307
 230    0.00019839368787052
 231    0.0012244195150518
 232    -0.0003059551081137
 233    8.4432315797917e-05
 234    -0.00031709891430587
 235     0.053725704111743
 236    0.00019986456820159
 237    0.0022048886585254
 238    -0.0001147040281092
 239    7.1335623477325e-05
 240    7.1015254749134e-05
 241    -0.00081759149387736
 242    0.00054354414965302
 243    0.00050348272927713
 244    5.4244995742473e-05
 245    0.00011594640170628
 246    -9.6231006534366e-05
 247    -4.7057809476839e-05
 248    0.00015944723050614
 249    -2.2763401908675e-06
 250    -6.9236465533074e-06
 251    -1.259576830853e-06
 252    1.7867510474989e-06
 253    -5.4676504666777e-07
 254    -1.9251950011983e-06
 255    2.4062411783199e-06
 256    -1.4138340572665e-06
 257    9.571014037351e-07
 258    -1.603312381489e-06
 259    -5.0662224560675e-05
 260    -5.1939097274263e-06
 261    3.4857908652674e-05
 262    -8.5796074456364e-07