[Molden Format]
made by pyscf v[2.0.1]
[Atoms] (AU)
O   1   8     0.00000000000000     0.00000000000000    11.31969581038057
H   2   1     0.00000000000000     0.00000000000000     9.49629398847960
H   3   1    -0.05031916615174     1.78353065140343    11.69556750684724
O   4   8     0.00000000000000     0.00000000000000     2.31533471513237
C   5   6     0.00000000000000     0.00000000000000     0.00000000000000
C   6   6     2.01118073026938    -1.40227222164369    -1.50774939176400
C   7   6    -2.01249334291722     1.41331050329955    -1.50315905028694
H   8   1     3.32037363730244    -2.26721897153159    -0.13599698591495
C   9   6     3.45899267434009     0.28739631745591    -3.37437943254505
H   10   1     1.07662969841332    -2.94725144642667    -2.56541439481080
H   11   1    -2.67503415753480     0.18421555839588    -3.06194479365997
H   12   1    -1.07974048864772     3.03851734677796    -2.43674295017013
C   13   6    -4.21607110578555     2.32938802552922     0.11994162256091
H   14   1     4.24440173074564     1.93368664142019    -2.34976285512790
H   15   1     2.15020713235517     1.04714335134846    -4.81494497423699
C   16   6     5.60746363007797    -1.12419643481196    -4.70268606082550
H   17   1    -3.46838323670267     3.50951302338067     1.66946842715333
H   18   1    -5.11873485366228     0.68575958301209     1.04047743976495
C   19   6    -6.18314754751344     3.80909592987882    -1.39656589068747
H   20   1     6.93011263717176    -1.87550812453645    -3.26656317360070
C   21   6     7.06356622236532     0.52877932406334    -6.57829775293605
H   22   1     4.82318879258361    -2.78573437948532    -5.70504560381835
H   23   1    -6.91582688743803     2.61304780074712    -2.95074552451969
H   24   1    -5.26532430573853     5.45420349051338    -2.31005832200284
C   25   6    -8.39941882261433     4.73263980500213     0.21800571437956
H   26   1     7.83338371486801     2.19084139882824    -5.57093109900697
H   27   1     5.73544244039420     1.27376866537418    -8.01071492370229
C   28   6     9.21124858443101    -0.89699110072176    -7.88926949186242
H   29   1    -7.66272760055236     5.92277078003992     1.77035591474408
H   30   1    -9.31497248082589     3.08753015622020     1.12614408368786
C   31   6   -10.35481709231879     6.21833079391143    -1.30905206253246
H   32   1    10.58815905329501    -1.61074586756696    -6.49512691622620
H   33   1    10.23506248045667     0.32468009384095    -9.23072870921204
H   34   1     8.47665842847139    -2.53598436989925    -8.94921964622535
H   35   1    -9.48948872868064     7.90013588951020    -2.18823918416067
H   36   1   -11.93332513000955     6.86460487874102    -0.11255798845995
H   37   1   -11.15126291841033     5.04495968327630    -2.83849898862534
[GTO]
1 0
 s    8 1.00
                 11720  0.00070964594651845
                  1759  0.0054672722921914
                 400.8   0.027823118610189
                 113.7    0.10474773971146
                 37.03    0.28292084635691
                 13.27    0.44849523869833
                 5.025    0.27081688521277
                 1.013    0.01545029160744
 s    8 1.00
                 11720  -0.00031444341168873
                  1759  -0.0024821376810179
                 400.8  -0.012316355381583
                 113.7  -0.050538917343672
                 37.03   -0.13938490331632
                 13.27   -0.32507749481778
                 5.025   -0.22984830758785
                 1.013     1.0953793467883
 s    1 1.00
                0.3023                   1
 p    3 1.00
                  17.7   0.062679166281506
                 3.854    0.33353656587936
                 1.046    0.74123964163973
 p    1 1.00
                0.2753                   1
 d    1 1.00
                 1.185                   1

2 0
 s    3 1.00
                 13.01   0.033498726389998
                 1.962    0.23480080117413
                0.4446     0.8136829578829
 s    1 1.00
                 0.122                   1
 p    1 1.00
                 0.727                   1

3 0
 s    3 1.00
                 13.01   0.033498726389998
                 1.962    0.23480080117413
                0.4446     0.8136829578829
 s    1 1.00
                 0.122                   1
 p    1 1.00
                 0.727                   1

4 0
 s    8 1.00
                 11720  0.00070964594651845
                  1759  0.0054672722921914
                 400.8   0.027823118610189
                 113.7    0.10474773971146
                 37.03    0.28292084635691
                 13.27    0.44849523869833
                 5.025    0.27081688521277
                 1.013    0.01545029160744
 s    8 1.00
                 11720  -0.00031444341168873
                  1759  -0.0024821376810179
                 400.8  -0.012316355381583
                 113.7  -0.050538917343672
                 37.03   -0.13938490331632
                 13.27   -0.32507749481778
                 5.025   -0.22984830758785
                 1.013     1.0953793467883
 s    1 1.00
                0.3023                   1
 p    3 1.00
                  17.7   0.062679166281506
                 3.854    0.33353656587936
                 1.046    0.74123964163973
 p    1 1.00
                0.2753                   1
 d    1 1.00
                 1.185                   1

5 0
 s    8 1.00
                  6665  0.00069158396281299
                  1000  0.0053257961529341
                   228   0.027060721042034
                 64.71    0.10165684614077
                 21.06     0.2745748236174
                 7.495    0.44829431892377
                 2.797    0.28490261071525
                0.5215   0.015194859206082
 s    8 1.00
                  6665  -0.00029326965268655
                  1000  -0.0023180354739745
                   228  -0.011499786038565
                 64.71  -0.046826727009787
                 21.06   -0.12846616875047
                 7.495   -0.30126627246289
                 2.797   -0.25563070233011
                0.5215      1.093793361012
 s    1 1.00
                0.1596                   1
 p    3 1.00
                 9.439   0.056979251590039
                 2.002    0.31320721150073
                0.5456    0.76037674173753
 p    1 1.00
                0.1517                   1
 d    1 1.00
                  0.55                   1

6 0
 s    8 1.00
                  6665  0.00069158396281299
                  1000  0.0053257961529341
                   228   0.027060721042034
                 64.71    0.10165684614077
                 21.06     0.2745748236174
                 7.495    0.44829431892377
                 2.797    0.28490261071525
                0.5215   0.015194859206082
 s    8 1.00
                  6665  -0.00029326965268655
                  1000  -0.0023180354739745
                   228  -0.011499786038565
                 64.71  -0.046826727009787
                 21.06   -0.12846616875047
                 7.495   -0.30126627246289
                 2.797   -0.25563070233011
                0.5215      1.093793361012
 s    1 1.00
                0.1596                   1
 p    3 1.00
                 9.439   0.056979251590039
                 2.002    0.31320721150073
                0.5456    0.76037674173753
 p    1 1.00
                0.1517                   1
 d    1 1.00
                  0.55                   1

7 0
 s    8 1.00
                  6665  0.00069158396281299
                  1000  0.0053257961529341
                   228   0.027060721042034
                 64.71    0.10165684614077
                 21.06     0.2745748236174
                 7.495    0.44829431892377
                 2.797    0.28490261071525
                0.5215   0.015194859206082
 s    8 1.00
                  6665  -0.00029326965268655
                  1000  -0.0023180354739745
                   228  -0.011499786038565
                 64.71  -0.046826727009787
                 21.06   -0.12846616875047
                 7.495   -0.30126627246289
                 2.797   -0.25563070233011
                0.5215      1.093793361012
 s    1 1.00
                0.1596                   1
 p    3 1.00
                 9.439   0.056979251590039
                 2.002    0.31320721150073
                0.5456    0.76037674173753
 p    1 1.00
                0.1517                   1
 d    1 1.00
                  0.55                   1

8 0
 s    3 1.00
                 13.01   0.033498726389998
                 1.962    0.23480080117413
                0.4446     0.8136829578829
 s    1 1.00
                 0.122                   1
 p    1 1.00
                 0.727                   1

9 0
 s    8 1.00
                  6665  0.00069158396281299
                  1000  0.0053257961529341
                   228   0.027060721042034
                 64.71    0.10165684614077
                 21.06     0.2745748236174
                 7.495    0.44829431892377
                 2.797    0.28490261071525
                0.5215   0.015194859206082
 s    8 1.00
                  6665  -0.00029326965268655
                  1000  -0.0023180354739745
                   228  -0.011499786038565
                 64.71  -0.046826727009787
                 21.06   -0.12846616875047
                 7.495   -0.30126627246289
                 2.797   -0.25563070233011
                0.5215      1.093793361012
 s    1 1.00
                0.1596                   1
 p    3 1.00
                 9.439   0.056979251590039
                 2.002    0.31320721150073
                0.5456    0.76037674173753
 p    1 1.00
                0.1517                   1
 d    1 1.00
                  0.55                   1

10 0
 s    3 1.00
                 13.01   0.033498726389998
                 1.962    0.23480080117413
                0.4446     0.8136829578829
 s    1 1.00
                 0.122                   1
 p    1 1.00
                 0.727                   1

11 0
 s    3 1.00
                 13.01   0.033498726389998
                 1.962    0.23480080117413
                0.4446     0.8136829578829
 s    1 1.00
                 0.122                   1
 p    1 1.00
                 0.727                   1

12 0
 s    3 1.00
                 13.01   0.033498726389998
                 1.962    0.23480080117413
                0.4446     0.8136829578829
 s    1 1.00
                 0.122                   1
 p    1 1.00
                 0.727                   1

13 0
 s    8 1.00
                  6665  0.00069158396281299
                  1000  0.0053257961529341
                   228   0.027060721042034
                 64.71    0.10165684614077
                 21.06     0.2745748236174
                 7.495    0.44829431892377
                 2.797    0.28490261071525
                0.5215   0.015194859206082
 s    8 1.00
                  6665  -0.00029326965268655
                  1000  -0.0023180354739745
                   228  -0.011499786038565
                 64.71  -0.046826727009787
                 21.06   -0.12846616875047
                 7.495   -0.30126627246289
                 2.797   -0.25563070233011
                0.5215      1.093793361012
 s    1 1.00
                0.1596                   1
 p    3 1.00
                 9.439   0.056979251590039
                 2.002    0.31320721150073
                0.5456    0.76037674173753
 p    1 1.00
                0.1517                   1
 d    1 1.00
                  0.55                   1

14 0
 s    3 1.00
                 13.01   0.033498726389998
                 1.962    0.23480080117413
                0.4446     0.8136829578829
 s    1 1.00
                 0.122                   1
 p    1 1.00
                 0.727                   1

15 0
 s    3 1.00
                 13.01   0.033498726389998
                 1.962    0.23480080117413
                0.4446     0.8136829578829
 s    1 1.00
                 0.122                   1
 p    1 1.00
                 0.727                   1

16 0
 s    8 1.00
                  6665  0.00069158396281299
                  1000  0.0053257961529341
                   228   0.027060721042034
                 64.71    0.10165684614077
                 21.06     0.2745748236174
                 7.495    0.44829431892377
                 2.797    0.28490261071525
                0.5215   0.015194859206082
 s    8 1.00
                  6665  -0.00029326965268655
                  1000  -0.0023180354739745
                   228  -0.011499786038565
                 64.71  -0.046826727009787
                 21.06   -0.12846616875047
                 7.495   -0.30126627246289
                 2.797   -0.25563070233011
                0.5215      1.093793361012
 s    1 1.00
                0.1596                   1
 p    3 1.00
                 9.439   0.056979251590039
                 2.002    0.31320721150073
                0.5456    0.76037674173753
 p    1 1.00
                0.1517                   1
 d    1 1.00
                  0.55                   1

17 0
 s    3 1.00
                 13.01   0.033498726389998
                 1.962    0.23480080117413
                0.4446     0.8136829578829
 s    1 1.00
                 0.122                   1
 p    1 1.00
                 0.727                   1

18 0
 s    3 1.00
                 13.01   0.033498726389998
                 1.962    0.23480080117413
                0.4446     0.8136829578829
 s    1 1.00
                 0.122                   1
 p    1 1.00
                 0.727                   1

19 0
 s    8 1.00
                  6665  0.00069158396281299
                  1000  0.0053257961529341
                   228   0.027060721042034
                 64.71    0.10165684614077
                 21.06     0.2745748236174
                 7.495    0.44829431892377
                 2.797    0.28490261071525
                0.5215   0.015194859206082
 s    8 1.00
                  6665  -0.00029326965268655
                  1000  -0.0023180354739745
                   228  -0.011499786038565
                 64.71  -0.046826727009787
                 21.06   -0.12846616875047
                 7.495   -0.30126627246289
                 2.797   -0.25563070233011
                0.5215      1.093793361012
 s    1 1.00
                0.1596                   1
 p    3 1.00
                 9.439   0.056979251590039
                 2.002    0.31320721150073
                0.5456    0.76037674173753
 p    1 1.00
                0.1517                   1
 d    1 1.00
                  0.55                   1

20 0
 s    3 1.00
                 13.01   0.033498726389998
                 1.962    0.23480080117413
                0.4446     0.8136829578829
 s    1 1.00
                 0.122                   1
 p    1 1.00
                 0.727                   1

21 0
 s    8 1.00
                  6665  0.00069158396281299
                  1000  0.0053257961529341
                   228   0.027060721042034
                 64.71    0.10165684614077
                 21.06     0.2745748236174
                 7.495    0.44829431892377
                 2.797    0.28490261071525
                0.5215   0.015194859206082
 s    8 1.00
                  6665  -0.00029326965268655
                  1000  -0.0023180354739745
                   228  -0.011499786038565
                 64.71  -0.046826727009787
                 21.06   -0.12846616875047
                 7.495   -0.30126627246289
                 2.797   -0.25563070233011
                0.5215      1.093793361012
 s    1 1.00
                0.1596                   1
 p    3 1.00
                 9.439   0.056979251590039
                 2.002    0.31320721150073
                0.5456    0.76037674173753
 p    1 1.00
                0.1517                   1
 d    1 1.00
                  0.55                   1

22 0
 s    3 1.00
                 13.01   0.033498726389998
                 1.962    0.23480080117413
                0.4446     0.8136829578829
 s    1 1.00
                 0.122                   1
 p    1 1.00
                 0.727                   1

23 0
 s    3 1.00
                 13.01   0.033498726389998
                 1.962    0.23480080117413
                0.4446     0.8136829578829
 s    1 1.00
                 0.122                   1
 p    1 1.00
                 0.727                   1

24 0
 s    3 1.00
                 13.01   0.033498726389998
                 1.962    0.23480080117413
                0.4446     0.8136829578829
 s    1 1.00
                 0.122                   1
 p    1 1.00
                 0.727                   1

25 0
 s    8 1.00
                  6665  0.00069158396281299
                  1000  0.0053257961529341
                   228   0.027060721042034
                 64.71    0.10165684614077
                 21.06     0.2745748236174
                 7.495    0.44829431892377
                 2.797    0.28490261071525
                0.5215   0.015194859206082
 s    8 1.00
                  6665  -0.00029326965268655
                  1000  -0.0023180354739745
                   228  -0.011499786038565
                 64.71  -0.046826727009787
                 21.06   -0.12846616875047
                 7.495   -0.30126627246289
                 2.797   -0.25563070233011
                0.5215      1.093793361012
 s    1 1.00
                0.1596                   1
 p    3 1.00
                 9.439   0.056979251590039
                 2.002    0.31320721150073
                0.5456    0.76037674173753
 p    1 1.00
                0.1517                   1
 d    1 1.00
                  0.55                   1

26 0
 s    3 1.00
                 13.01   0.033498726389998
                 1.962    0.23480080117413
                0.4446     0.8136829578829
 s    1 1.00
                 0.122                   1
 p    1 1.00
                 0.727                   1

27 0
 s    3 1.00
                 13.01   0.033498726389998
                 1.962    0.23480080117413
                0.4446     0.8136829578829
 s    1 1.00
                 0.122                   1
 p    1 1.00
                 0.727                   1

28 0
 s    8 1.00
                  6665  0.00069158396281299
                  1000  0.0053257961529341
                   228   0.027060721042034
                 64.71    0.10165684614077
                 21.06     0.2745748236174
                 7.495    0.44829431892377
                 2.797    0.28490261071525
                0.5215   0.015194859206082
 s    8 1.00
                  6665  -0.00029326965268655
                  1000  -0.0023180354739745
                   228  -0.011499786038565
                 64.71  -0.046826727009787
                 21.06   -0.12846616875047
                 7.495   -0.30126627246289
                 2.797   -0.25563070233011
                0.5215      1.093793361012
 s    1 1.00
                0.1596                   1
 p    3 1.00
                 9.439   0.056979251590039
                 2.002    0.31320721150073
                0.5456    0.76037674173753
 p    1 1.00
                0.1517                   1
 d    1 1.00
                  0.55                   1

29 0
 s    3 1.00
                 13.01   0.033498726389998
                 1.962    0.23480080117413
                0.4446     0.8136829578829
 s    1 1.00
                 0.122                   1
 p    1 1.00
                 0.727                   1

30 0
 s    3 1.00
                 13.01   0.033498726389998
                 1.962    0.23480080117413
                0.4446     0.8136829578829
 s    1 1.00
                 0.122                   1
 p    1 1.00
                 0.727                   1

31 0
 s    8 1.00
                  6665  0.00069158396281299
                  1000  0.0053257961529341
                   228   0.027060721042034
                 64.71    0.10165684614077
                 21.06     0.2745748236174
                 7.495    0.44829431892377
                 2.797    0.28490261071525
                0.5215   0.015194859206082
 s    8 1.00
                  6665  -0.00029326965268655
                  1000  -0.0023180354739745
                   228  -0.011499786038565
                 64.71  -0.046826727009787
                 21.06   -0.12846616875047
                 7.495   -0.30126627246289
                 2.797   -0.25563070233011
                0.5215      1.093793361012
 s    1 1.00
                0.1596                   1
 p    3 1.00
                 9.439   0.056979251590039
                 2.002    0.31320721150073
                0.5456    0.76037674173753
 p    1 1.00
                0.1517                   1
 d    1 1.00
                  0.55                   1

32 0
 s    3 1.00
                 13.01   0.033498726389998
                 1.962    0.23480080117413
                0.4446     0.8136829578829
 s    1 1.00
                 0.122                   1
 p    1 1.00
                 0.727                   1

33 0
 s    3 1.00
                 13.01   0.033498726389998
                 1.962    0.23480080117413
                0.4446     0.8136829578829
 s    1 1.00
                 0.122                   1
 p    1 1.00
                 0.727                   1

34 0
 s    3 1.00
                 13.01   0.033498726389998
                 1.962    0.23480080117413
                0.4446     0.8136829578829
 s    1 1.00
                 0.122                   1
 p    1 1.00
                 0.727                   1

35 0
 s    3 1.00
                 13.01   0.033498726389998
                 1.962    0.23480080117413
                0.4446     0.8136829578829
 s    1 1.00
                 0.122                   1
 p    1 1.00
                 0.727                   1

36 0
 s    3 1.00
                 13.01   0.033498726389998
                 1.962    0.23480080117413
                0.4446     0.8136829578829
 s    1 1.00
                 0.122                   1
 p    1 1.00
                 0.727                   1

37 0
 s    3 1.00
                 13.01   0.033498726389998
                 1.962    0.23480080117413
                0.4446     0.8136829578829
 s    1 1.00
                 0.122                   1
 p    1 1.00
                 0.727                   1

[5d]
[7f]
[9g]

[MO]
 Sym= A
 Ene=               0
 Spin= Alpha
 Occup=    1.00000
   1    -6.3187637526089e-08
   2    8.6450504973206e-08
   3    8.9554658573448e-07
   4    4.3180209119591e-10
   5    -4.4742652978176e-08
   6    -3.4844472413066e-07
   7    8.0601667827287e-09
   8    -1.5946184683345e-07
   9    -7.1609262556718e-07
  10    -2.3095110752336e-08
  11    6.4652653941707e-10
  12    -2.8458465954191e-09
  13    -3.8605883536837e-09
  14    -8.9926626584934e-11
  15    3.3291307687964e-07
  16    -2.4382186860207e-06
  17    5.8736813537864e-09
  18    -3.9826157858578e-09
  19    5.4200509543755e-08
  20    -6.3433565546505e-08
  21    6.9623567291387e-07
  22    -1.70160807174e-09
  23    3.4138917597227e-08
  24    3.1701058396411e-09
  25    -7.5412504463331e-06
  26    8.4708398890924e-06
  27    0.00012241709684221
  28    6.7274330253287e-05
  29    -0.00010395075070321
  30    -8.4116730058709e-05
  31    0.00012271399629365
  32    -0.00014703168427604
  33    -9.1682617484289e-05
  34    3.9999463758933e-06
  35    4.1804069790768e-06
  36    -6.3649226669104e-07
  37    8.236922494263e-07
  38    1.8011809511493e-06
  39    2.8690423525316e-05
  40    -0.00015780260571403
  41    -0.00065579857643236
  42    -0.00025976995976471
  43    0.00020682441381387
  44    0.00020234312110638
  45    -0.00040068077146785
  46    0.00035274565296399
  47    8.6163220228547e-05
  48    1.3284380911093e-05
  49    2.6510505989617e-05
  50    -3.3720288595043e-05
  51    1.6060540310364e-05
  52    2.2355995974147e-05
  53    7.2185585316088e-05
  54    0.00071370450636947
  55    -0.00018550573481407
  56    0.00070443999577453
  57    -2.2230229091899e-05
  58    -0.00059151447521881
  59    -0.00032841807835814
  60    -1.3963628491883e-05
  61    0.00036972004049757
  62    9.7471413588787e-06
  63    -2.5469395188056e-06
  64    -1.8723399672682e-05
  65    -7.9769577897635e-06
  66    1.449291677923e-05
  67    6.0825617088449e-07
  68    3.1342534200589e-05
  69    0.00014028812355532
  70    5.0230325832019e-05
  71    -6.7800780484183e-05
  72    4.4087348276651e-05
  73    -0.0001441296644305
  74    -2.1651142020505e-05
  75    5.6117760552208e-05
  76    8.7940381730255e-06
  77    -4.9509773125439e-06
  78    6.8278227194469e-06
  79    4.6491386213421e-06
  80    2.6714094922675e-06
  81    0.00040107803997965
  82    6.1541214624384e-05
  83    -1.6131817530628e-06
  84    1.3233300091849e-05
  85    -6.0475994016148e-05
  86    0.00063159914117968
  87    0.00033202478444046
  88    0.00083635795231706
  89    -0.00012633862004693
  90    -0.0007614768370179
  91    0.00040859390745627
  92    -0.00024551028446049
  93    -0.00098898683475902
  94    0.00054873990845888
  95    4.4197363345222e-06
  96    -3.2788173547171e-05
  97    -2.3638083738206e-05
  98    5.6630773915041e-08
  99    2.3007555026216e-05
 100    0.00033751661302142
 101    2.5140468419982e-05
 102    6.3301647247363e-05
 103    2.2451266515837e-05
 104    -1.0230868932541e-05
 105    2.2555930216591e-05
 106    -4.8851254415761e-05
 107    9.5004534495589e-06
 108    -7.1843084514616e-06
 109    -4.8009247515526e-06
 110    -1.1842975989517e-05
 111    -6.5716103385727e-05
 112    5.4468796402771e-06
 113    2.2745482011692e-06
 114    1.469887144459e-06
 115    -0.00083816096488483
 116    4.1862325608025e-06
 117    -0.00015365108139391
 118    -1.8805499848462e-05
 119     4.53887122859e-06
 120    2.5419347323431e-05
 121    -0.00013980427349032
 122    0.00012120469158385
 123    4.8997988239427e-05
 124    -1.7695937910009e-06
 125    8.7657613531939e-06
 126    -4.1455063020784e-06
 127    -3.9225157624372e-06
 128    4.7910334769932e-06
 129    -0.00024650829455813
 130    0.00011856484739496
 131    3.6379484985678e-05
 132    1.9450508939523e-05
 133    -4.6950700335158e-05
 134    -0.00028244439014704
 135     0.000149745247292
 136    4.1325031707844e-05
 137    2.3169589315276e-05
 138    -2.7368728675368e-05
 139       0.0399390312413
 140    0.00043995425819145
 141    -0.0039045766815689
 142    -0.00013961314606241
 143    -3.8177948611848e-05
 144    0.00013340672287618
 145    -0.00088487484758484
 146    -0.0011169309452068
 147    0.0012196552550967
 148    1.5286782589561e-05
 149    -7.8381851295175e-05
 150    -0.00010311947114722
 151    -2.4583840762861e-05
 152    7.4953935334992e-05
 153    6.2743018987129e-06
 154    -4.2634622545854e-05
 155    9.921985501291e-07
 156    -7.1391290001599e-07
 157    1.6083377067821e-06
 158    9.0452430923718e-06
 159    1.0502755423206e-05
 160    3.2316258236486e-06
 161    -1.4951518968808e-06
 162    -1.0902213188107e-06
 163    0.0011108002444233
 164    1.9065091547896e-05
 165    -6.7707477299891e-05
 166     4.94453240717e-06
 167    -1.6309737733302e-06
 168    1.110764677644e-06
 169    -1.9343877897547e-05
 170    5.2304440854153e-06
 171    -1.7259323216471e-06
 172    1.3006320333954e-06
 173    -3.5341685402272e-07
 174    -1.4706512812585e-06
 175    -2.8919782354378e-06
 176    1.7706563566568e-06
 177    0.00010435402765968
 178    -0.00019905593757138
 179    5.5296626346982e-06
 180    -3.7468628629637e-05
 181    6.0077812017492e-05
 182      -1.0002431353027
 183    -0.0051286990255551
 184     0.012229272849566
 185    -5.5869436174331e-06
 186    -0.00020169204276117
 187    8.4814049920384e-05
 188    -0.0002114747682646
 189    -0.0013964719399158
 190    0.00069406228714234
 191    -1.2405861563307e-06
 192    -0.00031633841623129
 193    -8.8091823812294e-05
 194    6.3660242270373e-05
 195    -1.5608389463724e-06
 196    0.00010999386877904
 197    -0.00016581641113246
 198    -4.2685763488254e-05
 199    -5.5255314125841e-05
 200    6.8884854793977e-06
 201    6.6984315528667e-06
 202    1.1078318982495e-05
 203    1.6132467963297e-06
 204    3.7587951680913e-07
 205    7.4192207962893e-07
 206    5.9172117867268e-06
 207    2.0498357362398e-05
 208    6.8967875897576e-07
 209    -1.7769873339514e-06
 210    1.3223105765339e-07
 211    -0.00029347165998948
 212    -7.7111525368491e-07
 213    1.7095509915904e-06
 214    -2.2852915446938e-06
 215    2.9034825970163e-07
 216    3.4357312576663e-06
 217    -4.3336353611692e-05
 218    2.3959847936947e-05
 219    -1.7908601986778e-05
 220    2.4569963277784e-07
 221      7.1581492105e-07
 222    -1.5171467326887e-06
 223    -3.7748355522543e-07
 224    3.1195146311763e-07
 225    -0.00020409836201786
 226    -0.0012009508124336
 227    -0.00019672020136369
 228    -0.00030268584915397
 229    -0.00026442222143126
 230    -0.00019814817929893
 231    -0.0012248138711893
 232    0.00030595395675668
 233    -8.4318442136478e-05
 234    0.00031713006626888
 235    -0.055650362882456
 236    -0.00020908183165363
 237    -0.0021859425674571
 238    0.00011393631471887
 239    -7.0851010350263e-05
 240    -7.0550906030315e-05
 241    0.00081528006480213
 242    -0.00054349087960679
 243    -0.00050153523633806
 244    -5.4434107559945e-05
 245    -0.00011636393074021
 246    9.6627985337055e-05
 247    4.7261691144699e-05
 248    -0.00016004267473497
 249    2.2880510477574e-06
 250    6.8739272392177e-06
 251    1.2577841574847e-06
 252    -1.784583610176e-06
 253    5.5862058519175e-07
 254    1.9189393620328e-06
 255    -2.4308514850949e-06
 256    1.4183643092823e-06
 257    -9.5761893826427e-07
 258    1.613229004397e-06
 259    5.2399302771652e-05
 260    5.2491314388942e-06
 261    -3.5095327917725e-05
 262    8.7030220069163e-07