[Molden Format]
made by pyscf v[2.0.1]
[Atoms] (AU)
O   1   8     0.00000000000000     0.00000000000000     6.78435311142442
H   2   1     0.00000000000000     0.00000000000000     4.96095128952346
H   3   1    -0.05031916615174     1.78353065140343     7.16022480789109
O   4   8     0.00000000000000     0.00000000000000     2.31533471513237
C   5   6     0.00000000000000     0.00000000000000     0.00000000000000
C   6   6     2.01118073026938    -1.40227222164369    -1.50774939176400
C   7   6    -2.01249334291722     1.41331050329955    -1.50315905028694
H   8   1     3.32037363730244    -2.26721897153159    -0.13599698591495
C   9   6     3.45899267434009     0.28739631745591    -3.37437943254505
H   10   1     1.07662969841332    -2.94725144642667    -2.56541439481080
H   11   1    -2.67503415753480     0.18421555839588    -3.06194479365997
H   12   1    -1.07974048864772     3.03851734677796    -2.43674295017013
C   13   6    -4.21607110578555     2.32938802552922     0.11994162256091
H   14   1     4.24440173074564     1.93368664142019    -2.34976285512790
H   15   1     2.15020713235517     1.04714335134846    -4.81494497423699
C   16   6     5.60746363007797    -1.12419643481196    -4.70268606082550
H   17   1    -3.46838323670267     3.50951302338067     1.66946842715333
H   18   1    -5.11873485366228     0.68575958301209     1.04047743976495
C   19   6    -6.18314754751344     3.80909592987882    -1.39656589068747
H   20   1     6.93011263717176    -1.87550812453645    -3.26656317360070
C   21   6     7.06356622236532     0.52877932406334    -6.57829775293605
H   22   1     4.82318879258361    -2.78573437948532    -5.70504560381835
H   23   1    -6.91582688743803     2.61304780074712    -2.95074552451969
H   24   1    -5.26532430573853     5.45420349051338    -2.31005832200284
C   25   6    -8.39941882261433     4.73263980500213     0.21800571437956
H   26   1     7.83338371486801     2.19084139882824    -5.57093109900697
H   27   1     5.73544244039420     1.27376866537418    -8.01071492370229
C   28   6     9.21124858443101    -0.89699110072176    -7.88926949186242
H   29   1    -7.66272760055236     5.92277078003992     1.77035591474408
H   30   1    -9.31497248082589     3.08753015622020     1.12614408368786
C   31   6   -10.35481709231879     6.21833079391143    -1.30905206253246
H   32   1    10.58815905329501    -1.61074586756696    -6.49512691622620
H   33   1    10.23506248045667     0.32468009384095    -9.23072870921204
H   34   1     8.47665842847139    -2.53598436989925    -8.94921964622535
H   35   1    -9.48948872868064     7.90013588951020    -2.18823918416067
H   36   1   -11.93332513000955     6.86460487874102    -0.11255798845995
H   37   1   -11.15126291841033     5.04495968327630    -2.83849898862534
[GTO]
1 0
 s    8 1.00
                 11720  0.00070964594651845
                  1759  0.0054672722921914
                 400.8   0.027823118610189
                 113.7    0.10474773971146
                 37.03    0.28292084635691
                 13.27    0.44849523869833
                 5.025    0.27081688521277
                 1.013    0.01545029160744
 s    8 1.00
                 11720  -0.00031444341168873
                  1759  -0.0024821376810179
                 400.8  -0.012316355381583
                 113.7  -0.050538917343672
                 37.03   -0.13938490331632
                 13.27   -0.32507749481778
                 5.025   -0.22984830758785
                 1.013     1.0953793467883
 s    1 1.00
                0.3023                   1
 p    3 1.00
                  17.7   0.062679166281506
                 3.854    0.33353656587936
                 1.046    0.74123964163973
 p    1 1.00
                0.2753                   1
 d    1 1.00
                 1.185                   1

2 0
 s    3 1.00
                 13.01   0.033498726389998
                 1.962    0.23480080117413
                0.4446     0.8136829578829
 s    1 1.00
                 0.122                   1
 p    1 1.00
                 0.727                   1

3 0
 s    3 1.00
                 13.01   0.033498726389998
                 1.962    0.23480080117413
                0.4446     0.8136829578829
 s    1 1.00
                 0.122                   1
 p    1 1.00
                 0.727                   1

4 0
 s    8 1.00
                 11720  0.00070964594651845
                  1759  0.0054672722921914
                 400.8   0.027823118610189
                 113.7    0.10474773971146
                 37.03    0.28292084635691
                 13.27    0.44849523869833
                 5.025    0.27081688521277
                 1.013    0.01545029160744
 s    8 1.00
                 11720  -0.00031444341168873
                  1759  -0.0024821376810179
                 400.8  -0.012316355381583
                 113.7  -0.050538917343672
                 37.03   -0.13938490331632
                 13.27   -0.32507749481778
                 5.025   -0.22984830758785
                 1.013     1.0953793467883
 s    1 1.00
                0.3023                   1
 p    3 1.00
                  17.7   0.062679166281506
                 3.854    0.33353656587936
                 1.046    0.74123964163973
 p    1 1.00
                0.2753                   1
 d    1 1.00
                 1.185                   1

5 0
 s    8 1.00
                  6665  0.00069158396281299
                  1000  0.0053257961529341
                   228   0.027060721042034
                 64.71    0.10165684614077
                 21.06     0.2745748236174
                 7.495    0.44829431892377
                 2.797    0.28490261071525
                0.5215   0.015194859206082
 s    8 1.00
                  6665  -0.00029326965268655
                  1000  -0.0023180354739745
                   228  -0.011499786038565
                 64.71  -0.046826727009787
                 21.06   -0.12846616875047
                 7.495   -0.30126627246289
                 2.797   -0.25563070233011
                0.5215      1.093793361012
 s    1 1.00
                0.1596                   1
 p    3 1.00
                 9.439   0.056979251590039
                 2.002    0.31320721150073
                0.5456    0.76037674173753
 p    1 1.00
                0.1517                   1
 d    1 1.00
                  0.55                   1

6 0
 s    8 1.00
                  6665  0.00069158396281299
                  1000  0.0053257961529341
                   228   0.027060721042034
                 64.71    0.10165684614077
                 21.06     0.2745748236174
                 7.495    0.44829431892377
                 2.797    0.28490261071525
                0.5215   0.015194859206082
 s    8 1.00
                  6665  -0.00029326965268655
                  1000  -0.0023180354739745
                   228  -0.011499786038565
                 64.71  -0.046826727009787
                 21.06   -0.12846616875047
                 7.495   -0.30126627246289
                 2.797   -0.25563070233011
                0.5215      1.093793361012
 s    1 1.00
                0.1596                   1
 p    3 1.00
                 9.439   0.056979251590039
                 2.002    0.31320721150073
                0.5456    0.76037674173753
 p    1 1.00
                0.1517                   1
 d    1 1.00
                  0.55                   1

7 0
 s    8 1.00
                  6665  0.00069158396281299
                  1000  0.0053257961529341
                   228   0.027060721042034
                 64.71    0.10165684614077
                 21.06     0.2745748236174
                 7.495    0.44829431892377
                 2.797    0.28490261071525
                0.5215   0.015194859206082
 s    8 1.00
                  6665  -0.00029326965268655
                  1000  -0.0023180354739745
                   228  -0.011499786038565
                 64.71  -0.046826727009787
                 21.06   -0.12846616875047
                 7.495   -0.30126627246289
                 2.797   -0.25563070233011
                0.5215      1.093793361012
 s    1 1.00
                0.1596                   1
 p    3 1.00
                 9.439   0.056979251590039
                 2.002    0.31320721150073
                0.5456    0.76037674173753
 p    1 1.00
                0.1517                   1
 d    1 1.00
                  0.55                   1

8 0
 s    3 1.00
                 13.01   0.033498726389998
                 1.962    0.23480080117413
                0.4446     0.8136829578829
 s    1 1.00
                 0.122                   1
 p    1 1.00
                 0.727                   1

9 0
 s    8 1.00
                  6665  0.00069158396281299
                  1000  0.0053257961529341
                   228   0.027060721042034
                 64.71    0.10165684614077
                 21.06     0.2745748236174
                 7.495    0.44829431892377
                 2.797    0.28490261071525
                0.5215   0.015194859206082
 s    8 1.00
                  6665  -0.00029326965268655
                  1000  -0.0023180354739745
                   228  -0.011499786038565
                 64.71  -0.046826727009787
                 21.06   -0.12846616875047
                 7.495   -0.30126627246289
                 2.797   -0.25563070233011
                0.5215      1.093793361012
 s    1 1.00
                0.1596                   1
 p    3 1.00
                 9.439   0.056979251590039
                 2.002    0.31320721150073
                0.5456    0.76037674173753
 p    1 1.00
                0.1517                   1
 d    1 1.00
                  0.55                   1

10 0
 s    3 1.00
                 13.01   0.033498726389998
                 1.962    0.23480080117413
                0.4446     0.8136829578829
 s    1 1.00
                 0.122                   1
 p    1 1.00
                 0.727                   1

11 0
 s    3 1.00
                 13.01   0.033498726389998
                 1.962    0.23480080117413
                0.4446     0.8136829578829
 s    1 1.00
                 0.122                   1
 p    1 1.00
                 0.727                   1

12 0
 s    3 1.00
                 13.01   0.033498726389998
                 1.962    0.23480080117413
                0.4446     0.8136829578829
 s    1 1.00
                 0.122                   1
 p    1 1.00
                 0.727                   1

13 0
 s    8 1.00
                  6665  0.00069158396281299
                  1000  0.0053257961529341
                   228   0.027060721042034
                 64.71    0.10165684614077
                 21.06     0.2745748236174
                 7.495    0.44829431892377
                 2.797    0.28490261071525
                0.5215   0.015194859206082
 s    8 1.00
                  6665  -0.00029326965268655
                  1000  -0.0023180354739745
                   228  -0.011499786038565
                 64.71  -0.046826727009787
                 21.06   -0.12846616875047
                 7.495   -0.30126627246289
                 2.797   -0.25563070233011
                0.5215      1.093793361012
 s    1 1.00
                0.1596                   1
 p    3 1.00
                 9.439   0.056979251590039
                 2.002    0.31320721150073
                0.5456    0.76037674173753
 p    1 1.00
                0.1517                   1
 d    1 1.00
                  0.55                   1

14 0
 s    3 1.00
                 13.01   0.033498726389998
                 1.962    0.23480080117413
                0.4446     0.8136829578829
 s    1 1.00
                 0.122                   1
 p    1 1.00
                 0.727                   1

15 0
 s    3 1.00
                 13.01   0.033498726389998
                 1.962    0.23480080117413
                0.4446     0.8136829578829
 s    1 1.00
                 0.122                   1
 p    1 1.00
                 0.727                   1

16 0
 s    8 1.00
                  6665  0.00069158396281299
                  1000  0.0053257961529341
                   228   0.027060721042034
                 64.71    0.10165684614077
                 21.06     0.2745748236174
                 7.495    0.44829431892377
                 2.797    0.28490261071525
                0.5215   0.015194859206082
 s    8 1.00
                  6665  -0.00029326965268655
                  1000  -0.0023180354739745
                   228  -0.011499786038565
                 64.71  -0.046826727009787
                 21.06   -0.12846616875047
                 7.495   -0.30126627246289
                 2.797   -0.25563070233011
                0.5215      1.093793361012
 s    1 1.00
                0.1596                   1
 p    3 1.00
                 9.439   0.056979251590039
                 2.002    0.31320721150073
                0.5456    0.76037674173753
 p    1 1.00
                0.1517                   1
 d    1 1.00
                  0.55                   1

17 0
 s    3 1.00
                 13.01   0.033498726389998
                 1.962    0.23480080117413
                0.4446     0.8136829578829
 s    1 1.00
                 0.122                   1
 p    1 1.00
                 0.727                   1

18 0
 s    3 1.00
                 13.01   0.033498726389998
                 1.962    0.23480080117413
                0.4446     0.8136829578829
 s    1 1.00
                 0.122                   1
 p    1 1.00
                 0.727                   1

19 0
 s    8 1.00
                  6665  0.00069158396281299
                  1000  0.0053257961529341
                   228   0.027060721042034
                 64.71    0.10165684614077
                 21.06     0.2745748236174
                 7.495    0.44829431892377
                 2.797    0.28490261071525
                0.5215   0.015194859206082
 s    8 1.00
                  6665  -0.00029326965268655
                  1000  -0.0023180354739745
                   228  -0.011499786038565
                 64.71  -0.046826727009787
                 21.06   -0.12846616875047
                 7.495   -0.30126627246289
                 2.797   -0.25563070233011
                0.5215      1.093793361012
 s    1 1.00
                0.1596                   1
 p    3 1.00
                 9.439   0.056979251590039
                 2.002    0.31320721150073
                0.5456    0.76037674173753
 p    1 1.00
                0.1517                   1
 d    1 1.00
                  0.55                   1

20 0
 s    3 1.00
                 13.01   0.033498726389998
                 1.962    0.23480080117413
                0.4446     0.8136829578829
 s    1 1.00
                 0.122                   1
 p    1 1.00
                 0.727                   1

21 0
 s    8 1.00
                  6665  0.00069158396281299
                  1000  0.0053257961529341
                   228   0.027060721042034
                 64.71    0.10165684614077
                 21.06     0.2745748236174
                 7.495    0.44829431892377
                 2.797    0.28490261071525
                0.5215   0.015194859206082
 s    8 1.00
                  6665  -0.00029326965268655
                  1000  -0.0023180354739745
                   228  -0.011499786038565
                 64.71  -0.046826727009787
                 21.06   -0.12846616875047
                 7.495   -0.30126627246289
                 2.797   -0.25563070233011
                0.5215      1.093793361012
 s    1 1.00
                0.1596                   1
 p    3 1.00
                 9.439   0.056979251590039
                 2.002    0.31320721150073
                0.5456    0.76037674173753
 p    1 1.00
                0.1517                   1
 d    1 1.00
                  0.55                   1

22 0
 s    3 1.00
                 13.01   0.033498726389998
                 1.962    0.23480080117413
                0.4446     0.8136829578829
 s    1 1.00
                 0.122                   1
 p    1 1.00
                 0.727                   1

23 0
 s    3 1.00
                 13.01   0.033498726389998
                 1.962    0.23480080117413
                0.4446     0.8136829578829
 s    1 1.00
                 0.122                   1
 p    1 1.00
                 0.727                   1

24 0
 s    3 1.00
                 13.01   0.033498726389998
                 1.962    0.23480080117413
                0.4446     0.8136829578829
 s    1 1.00
                 0.122                   1
 p    1 1.00
                 0.727                   1

25 0
 s    8 1.00
                  6665  0.00069158396281299
                  1000  0.0053257961529341
                   228   0.027060721042034
                 64.71    0.10165684614077
                 21.06     0.2745748236174
                 7.495    0.44829431892377
                 2.797    0.28490261071525
                0.5215   0.015194859206082
 s    8 1.00
                  6665  -0.00029326965268655
                  1000  -0.0023180354739745
                   228  -0.011499786038565
                 64.71  -0.046826727009787
                 21.06   -0.12846616875047
                 7.495   -0.30126627246289
                 2.797   -0.25563070233011
                0.5215      1.093793361012
 s    1 1.00
                0.1596                   1
 p    3 1.00
                 9.439   0.056979251590039
                 2.002    0.31320721150073
                0.5456    0.76037674173753
 p    1 1.00
                0.1517                   1
 d    1 1.00
                  0.55                   1

26 0
 s    3 1.00
                 13.01   0.033498726389998
                 1.962    0.23480080117413
                0.4446     0.8136829578829
 s    1 1.00
                 0.122                   1
 p    1 1.00
                 0.727                   1

27 0
 s    3 1.00
                 13.01   0.033498726389998
                 1.962    0.23480080117413
                0.4446     0.8136829578829
 s    1 1.00
                 0.122                   1
 p    1 1.00
                 0.727                   1

28 0
 s    8 1.00
                  6665  0.00069158396281299
                  1000  0.0053257961529341
                   228   0.027060721042034
                 64.71    0.10165684614077
                 21.06     0.2745748236174
                 7.495    0.44829431892377
                 2.797    0.28490261071525
                0.5215   0.015194859206082
 s    8 1.00
                  6665  -0.00029326965268655
                  1000  -0.0023180354739745
                   228  -0.011499786038565
                 64.71  -0.046826727009787
                 21.06   -0.12846616875047
                 7.495   -0.30126627246289
                 2.797   -0.25563070233011
                0.5215      1.093793361012
 s    1 1.00
                0.1596                   1
 p    3 1.00
                 9.439   0.056979251590039
                 2.002    0.31320721150073
                0.5456    0.76037674173753
 p    1 1.00
                0.1517                   1
 d    1 1.00
                  0.55                   1

29 0
 s    3 1.00
                 13.01   0.033498726389998
                 1.962    0.23480080117413
                0.4446     0.8136829578829
 s    1 1.00
                 0.122                   1
 p    1 1.00
                 0.727                   1

30 0
 s    3 1.00
                 13.01   0.033498726389998
                 1.962    0.23480080117413
                0.4446     0.8136829578829
 s    1 1.00
                 0.122                   1
 p    1 1.00
                 0.727                   1

31 0
 s    8 1.00
                  6665  0.00069158396281299
                  1000  0.0053257961529341
                   228   0.027060721042034
                 64.71    0.10165684614077
                 21.06     0.2745748236174
                 7.495    0.44829431892377
                 2.797    0.28490261071525
                0.5215   0.015194859206082
 s    8 1.00
                  6665  -0.00029326965268655
                  1000  -0.0023180354739745
                   228  -0.011499786038565
                 64.71  -0.046826727009787
                 21.06   -0.12846616875047
                 7.495   -0.30126627246289
                 2.797   -0.25563070233011
                0.5215      1.093793361012
 s    1 1.00
                0.1596                   1
 p    3 1.00
                 9.439   0.056979251590039
                 2.002    0.31320721150073
                0.5456    0.76037674173753
 p    1 1.00
                0.1517                   1
 d    1 1.00
                  0.55                   1

32 0
 s    3 1.00
                 13.01   0.033498726389998
                 1.962    0.23480080117413
                0.4446     0.8136829578829
 s    1 1.00
                 0.122                   1
 p    1 1.00
                 0.727                   1

33 0
 s    3 1.00
                 13.01   0.033498726389998
                 1.962    0.23480080117413
                0.4446     0.8136829578829
 s    1 1.00
                 0.122                   1
 p    1 1.00
                 0.727                   1

34 0
 s    3 1.00
                 13.01   0.033498726389998
                 1.962    0.23480080117413
                0.4446     0.8136829578829
 s    1 1.00
                 0.122                   1
 p    1 1.00
                 0.727                   1

35 0
 s    3 1.00
                 13.01   0.033498726389998
                 1.962    0.23480080117413
                0.4446     0.8136829578829
 s    1 1.00
                 0.122                   1
 p    1 1.00
                 0.727                   1

36 0
 s    3 1.00
                 13.01   0.033498726389998
                 1.962    0.23480080117413
                0.4446     0.8136829578829
 s    1 1.00
                 0.122                   1
 p    1 1.00
                 0.727                   1

37 0
 s    3 1.00
                 13.01   0.033498726389998
                 1.962    0.23480080117413
                0.4446     0.8136829578829
 s    1 1.00
                 0.122                   1
 p    1 1.00
                 0.727                   1

[5d]
[7f]
[9g]

[MO]
 Sym= A
 Ene=               0
 Spin= Alpha
 Occup=    1.00000
   1    -9.9415221410873e-07
   2    -5.4434425695745e-06
   3    3.8409916791396e-06
   4    2.6107429208041e-06
   5    -5.0882767869982e-06
   6    1.4193570664102e-05
   7    7.680907205911e-07
   8    -5.2392972932788e-06
   9    8.2829038829503e-06
  10    1.0742512368808e-06
  11    6.945285683458e-07
  12    -3.1696726525663e-07
  13    4.8728796361023e-07
  14    3.6034436941902e-08
  15    -2.3962923478131e-06
  16    -1.5292338111685e-05
  17    6.6916528470763e-07
  18    -5.5988215654274e-07
  19    -5.2739317734226e-06
  20    -3.7376886350554e-06
  21    1.0145723039336e-05
  22    3.7802282507971e-07
  23    -3.2975353099015e-07
  24    -4.7550276815908e-07
  25    8.2713887313476e-06
  26    -9.9456430689823e-06
  27    -0.00013246918959382
  28    -6.4256120818351e-05
  29    0.00010257480330588
  30    8.1032596448218e-05
  31    -0.00012404313481581
  32    0.00015003707892769
  33    0.00010312341947743
  34    -4.163364222035e-06
  35    -4.870781625793e-06
  36    1.8092660221609e-06
  37    -8.6239011456629e-07
  38    -1.8748795515077e-06
  39    -2.5149574922116e-05
  40    0.00016838307605193
  41    0.00066060289006234
  42    0.00026101900607673
  43    -0.00021495450225473
  44    -0.00020013780548324
  45    0.00041128572714349
  46    -0.00036569476125535
  47    -7.5239217538627e-05
  48    -1.2856296104446e-05
  49    -2.4557341284248e-05
  50    3.2449514432963e-05
  51    -1.6548912705973e-05
  52    -2.2416883363121e-05
  53    -7.3038065034954e-05
  54    -0.00072222168102708
  55    0.00016200983484024
  56    -0.00070100973666414
  57    1.3623897239621e-05
  58    0.0005911044198032
  59    0.00032691586340379
  60    8.1141186142275e-06
  61    -0.00037295379928059
  62    -9.2725541452119e-06
  63    8.4024591001574e-07
  64    1.9397666870947e-05
  65    1.0067200377667e-05
  66    -1.4861402876388e-05
  67    -6.8956246279356e-07
  68    -3.0998845897645e-05
  69    -0.00012101542620646
  70    -4.6746194497697e-05
  71    6.7373231672465e-05
  72    -4.3722338955836e-05
  73    0.00015119734011262
  74    1.7360245387443e-05
  75    -5.0764921694133e-05
  76    -8.7756946322571e-06
  77    4.9177809558835e-06
  78    -7.0530490564374e-06
  79    -4.904429077384e-06
  80    -2.628992327691e-06
  81    -0.00040171432833843
  82    -5.8580619791222e-05
  83    2.2946593885334e-06
  84    -1.3962457522404e-05
  85    6.0060230454614e-05
  86    -0.00063132792175122
  87    -0.00031721174053795
  88    -0.00083376534999044
  89    0.00015549639020993
  90    0.00073268580613464
  91    -0.00042290165809713
  92    0.0002541341519318
  93    0.00097790596717881
  94    -0.00055031467369652
  95    -5.5002267089405e-06
  96    3.0736338735425e-05
  97    2.4740599439474e-05
  98    2.8429306154718e-07
  99    -2.5916887058913e-05
 100    -0.0003388132260141
 101    -2.6498148378676e-05
 102    -6.2960154292261e-05
 103    -2.3209546327961e-05
 104    1.024654655368e-05
 105    -2.3862531169413e-05
 106    4.8169436814294e-05
 107    -9.535311768916e-06
 108    6.9975376527305e-06
 109    4.9322225028787e-06
 110    1.3525050561401e-05
 111    6.7335355292276e-05
 112    -5.4052987492481e-06
 113    -2.2544951242625e-06
 114    -1.199235238674e-06
 115    0.00089276578181603
 116    -4.3984391172737e-06
 117    0.00014965562557316
 118    1.7732443323992e-05
 119    -3.8476332279462e-06
 120    -2.3722867427316e-05
 121    0.0001362956018682
 122    -0.0001186216088736
 123    -4.6553102426638e-05
 124    1.7352803258361e-06
 125    -8.6305969788829e-06
 126    4.0392279515002e-06
 127    3.8119679591328e-06
 128    -4.5638216352495e-06
 129    0.00023708642670043
 130    -0.00012652502887916
 131    -3.5663881731522e-05
 132    -1.978583529816e-05
 133    4.7300905070152e-05
 134    0.00027276745398679
 135    -0.00015716736008005
 136    -4.1437649731688e-05
 137    -2.3881968694023e-05
 138     2.67013382934e-05
 139    -0.041954036958523
 140    -0.00042407377618875
 141    0.0039361089856399
 142    0.00011290767544794
 143    5.455902546963e-05
 144    -0.0001162478940471
 145    0.00085578609492822
 146    0.0011282715094478
 147    -0.0011990570394463
 148    -1.6172702929421e-05
 149    7.8707680200886e-05
 150    0.00010670784379682
 151    2.5997728904688e-05
 152    -7.8586000429709e-05
 153    -5.9649949992317e-06
 154    4.0675420031396e-05
 155    -1.0015427005901e-06
 156    6.2862751424138e-07
 157    -1.5378932120431e-06
 158    -8.8894339327598e-06
 159    -1.0219058477961e-05
 160    -3.1742467351717e-06
 161    1.4809687673326e-06
 162    1.1301448081053e-06
 163    -0.0014298782917047
 164    -2.0612968058809e-05
 165    7.0655633698659e-05
 166    -5.0944286473938e-06
 167    1.6139253804489e-06
 168    -9.8057058661807e-07
 169    2.0995175694478e-05
 170    -6.0548818401479e-06
 171    9.0300389438949e-07
 172    -1.2490653052945e-06
 173    3.9687162063003e-07
 174    1.410851402318e-06
 175    2.8904637801147e-06
 176    -1.7850557468627e-06
 177    -0.00010542317796405
 178    0.00019351273000451
 179    -5.7210524424246e-06
 180    3.7886746358022e-05
 181    -6.1244682849838e-05
 182       1.0006301244809
 183    0.0051298864494642
 184    -0.012247034344752
 185    -4.5029459316054e-06
 186    0.00019739335503974
 187    -7.6538202533465e-05
 188    0.00020927737944929
 189    0.0013988842135219
 190    -0.0006926559834829
 191    1.3277163671021e-06
 192    0.00031334745579983
 193    8.7543300537157e-05
 194    -6.2558519491234e-05
 195    9.9806164101305e-07
 196    -0.00011100720601475
 197    0.00016055118925192
 198    4.3670855152537e-05
 199    5.6273102974519e-05
 200    -6.7893187498177e-06
 201    -6.5869297597752e-06
 202    -1.1278214749315e-05
 203    -1.6610091279823e-06
 204    -2.7037455961729e-07
 205    -5.9756956731337e-07
 206    -5.9367630993217e-06
 207    -2.0904483906199e-05
 208    -7.9220405322952e-07
 209    1.7026923736325e-06
 210    -2.799010405716e-08
 211    0.0002240428987278
 212    1.138884979783e-07
 213    -4.7540729616581e-07
 214    2.1091302824577e-06
 215    -2.4136158021413e-07
 216    -3.2468481733336e-06
 217    4.2274971466077e-05
 218    -2.3355911624575e-05
 219     1.71492360404e-05
 220    -2.4726791417603e-07
 221    -7.4263292888075e-07
 222    1.5048274156717e-06
 223    4.2345824836306e-07
 224    -3.849887164209e-07
 225    0.00020638520527123
 226    0.0011984415625649
 227    0.00019595480780443
 228    0.00030213831909831
 229    0.0002635166879533
 230    0.00019949084651831
 231    0.0012225519618332
 232    -0.0003057159683165
 233     8.48485779067e-05
 234    -0.00031681590840856
 235     0.046475175177745
 236    0.00016551891047767
 237    0.0022762681484539
 238    -0.00011819383670746
 239    7.3335109166593e-05
 240    7.3207776626133e-05
 241    -0.00082685083270679
 242    0.00054337876630512
 243    0.00051135277399027
 244    5.3431865544524e-05
 245    0.00011428989745615
 246    -9.4497009796336e-05
 247    -4.6229761766278e-05
 248    0.00015690686785335
 249    -2.279727751937e-06
 250    -6.5749258441248e-06
 251    -1.2599280371153e-06
 252    1.7410140123672e-06
 253    -5.1116599260694e-07
 254    -1.936331868796e-06
 255    2.3337909902176e-06
 256    -1.3762664111637e-06
 257    9.5584296696419e-07
 258    -1.5467492534323e-06
 259    -4.0417150113898e-05
 260    -5.0352638925641e-06
 261    3.3654988160048e-05
 262    -8.5552812573428e-07
 263    6.683491748492e-07