[Molden Format]
made by pyscf v[2.0.1]
[Atoms] (AU)
O   1   8     0.00000000000000     0.00000000000000     8.67407923598948
H   2   1     0.00000000000000     0.00000000000000     6.85067741408852
H   3   1    -0.05031916615174     1.78353065140343     9.04995093245615
O   4   8     0.00000000000000     0.00000000000000     2.31533471513237
C   5   6     0.00000000000000     0.00000000000000     0.00000000000000
C   6   6     2.01118073026938    -1.40227222164369    -1.50774939176400
C   7   6    -2.01249334291722     1.41331050329955    -1.50315905028694
H   8   1     3.32037363730244    -2.26721897153159    -0.13599698591495
C   9   6     3.45899267434009     0.28739631745591    -3.37437943254505
H   10   1     1.07662969841332    -2.94725144642667    -2.56541439481080
H   11   1    -2.67503415753480     0.18421555839588    -3.06194479365997
H   12   1    -1.07974048864772     3.03851734677796    -2.43674295017013
C   13   6    -4.21607110578555     2.32938802552922     0.11994162256091
H   14   1     4.24440173074564     1.93368664142019    -2.34976285512790
H   15   1     2.15020713235517     1.04714335134846    -4.81494497423699
C   16   6     5.60746363007797    -1.12419643481196    -4.70268606082550
H   17   1    -3.46838323670267     3.50951302338067     1.66946842715333
H   18   1    -5.11873485366228     0.68575958301209     1.04047743976495
C   19   6    -6.18314754751344     3.80909592987882    -1.39656589068747
H   20   1     6.93011263717176    -1.87550812453645    -3.26656317360070
C   21   6     7.06356622236532     0.52877932406334    -6.57829775293605
H   22   1     4.82318879258361    -2.78573437948532    -5.70504560381835
H   23   1    -6.91582688743803     2.61304780074712    -2.95074552451969
H   24   1    -5.26532430573853     5.45420349051338    -2.31005832200284
C   25   6    -8.39941882261433     4.73263980500213     0.21800571437956
H   26   1     7.83338371486801     2.19084139882824    -5.57093109900697
H   27   1     5.73544244039420     1.27376866537418    -8.01071492370229
C   28   6     9.21124858443101    -0.89699110072176    -7.88926949186242
H   29   1    -7.66272760055236     5.92277078003992     1.77035591474408
H   30   1    -9.31497248082589     3.08753015622020     1.12614408368786
C   31   6   -10.35481709231879     6.21833079391143    -1.30905206253246
H   32   1    10.58815905329501    -1.61074586756696    -6.49512691622620
H   33   1    10.23506248045667     0.32468009384095    -9.23072870921204
H   34   1     8.47665842847139    -2.53598436989925    -8.94921964622535
H   35   1    -9.48948872868064     7.90013588951020    -2.18823918416067
H   36   1   -11.93332513000955     6.86460487874102    -0.11255798845995
H   37   1   -11.15126291841033     5.04495968327630    -2.83849898862534
[GTO]
1 0
 s    8 1.00
                 11720  0.00070964594651845
                  1759  0.0054672722921914
                 400.8   0.027823118610189
                 113.7    0.10474773971146
                 37.03    0.28292084635691
                 13.27    0.44849523869833
                 5.025    0.27081688521277
                 1.013    0.01545029160744
 s    8 1.00
                 11720  -0.00031444341168873
                  1759  -0.0024821376810179
                 400.8  -0.012316355381583
                 113.7  -0.050538917343672
                 37.03   -0.13938490331632
                 13.27   -0.32507749481778
                 5.025   -0.22984830758785
                 1.013     1.0953793467883
 s    1 1.00
                0.3023                   1
 p    3 1.00
                  17.7   0.062679166281506
                 3.854    0.33353656587936
                 1.046    0.74123964163973
 p    1 1.00
                0.2753                   1
 d    1 1.00
                 1.185                   1

2 0
 s    3 1.00
                 13.01   0.033498726389998
                 1.962    0.23480080117413
                0.4446     0.8136829578829
 s    1 1.00
                 0.122                   1
 p    1 1.00
                 0.727                   1

3 0
 s    3 1.00
                 13.01   0.033498726389998
                 1.962    0.23480080117413
                0.4446     0.8136829578829
 s    1 1.00
                 0.122                   1
 p    1 1.00
                 0.727                   1

4 0
 s    8 1.00
                 11720  0.00070964594651845
                  1759  0.0054672722921914
                 400.8   0.027823118610189
                 113.7    0.10474773971146
                 37.03    0.28292084635691
                 13.27    0.44849523869833
                 5.025    0.27081688521277
                 1.013    0.01545029160744
 s    8 1.00
                 11720  -0.00031444341168873
                  1759  -0.0024821376810179
                 400.8  -0.012316355381583
                 113.7  -0.050538917343672
                 37.03   -0.13938490331632
                 13.27   -0.32507749481778
                 5.025   -0.22984830758785
                 1.013     1.0953793467883
 s    1 1.00
                0.3023                   1
 p    3 1.00
                  17.7   0.062679166281506
                 3.854    0.33353656587936
                 1.046    0.74123964163973
 p    1 1.00
                0.2753                   1
 d    1 1.00
                 1.185                   1

5 0
 s    8 1.00
                  6665  0.00069158396281299
                  1000  0.0053257961529341
                   228   0.027060721042034
                 64.71    0.10165684614077
                 21.06     0.2745748236174
                 7.495    0.44829431892377
                 2.797    0.28490261071525
                0.5215   0.015194859206082
 s    8 1.00
                  6665  -0.00029326965268655
                  1000  -0.0023180354739745
                   228  -0.011499786038565
                 64.71  -0.046826727009787
                 21.06   -0.12846616875047
                 7.495   -0.30126627246289
                 2.797   -0.25563070233011
                0.5215      1.093793361012
 s    1 1.00
                0.1596                   1
 p    3 1.00
                 9.439   0.056979251590039
                 2.002    0.31320721150073
                0.5456    0.76037674173753
 p    1 1.00
                0.1517                   1
 d    1 1.00
                  0.55                   1

6 0
 s    8 1.00
                  6665  0.00069158396281299
                  1000  0.0053257961529341
                   228   0.027060721042034
                 64.71    0.10165684614077
                 21.06     0.2745748236174
                 7.495    0.44829431892377
                 2.797    0.28490261071525
                0.5215   0.015194859206082
 s    8 1.00
                  6665  -0.00029326965268655
                  1000  -0.0023180354739745
                   228  -0.011499786038565
                 64.71  -0.046826727009787
                 21.06   -0.12846616875047
                 7.495   -0.30126627246289
                 2.797   -0.25563070233011
                0.5215      1.093793361012
 s    1 1.00
                0.1596                   1
 p    3 1.00
                 9.439   0.056979251590039
                 2.002    0.31320721150073
                0.5456    0.76037674173753
 p    1 1.00
                0.1517                   1
 d    1 1.00
                  0.55                   1

7 0
 s    8 1.00
                  6665  0.00069158396281299
                  1000  0.0053257961529341
                   228   0.027060721042034
                 64.71    0.10165684614077
                 21.06     0.2745748236174
                 7.495    0.44829431892377
                 2.797    0.28490261071525
                0.5215   0.015194859206082
 s    8 1.00
                  6665  -0.00029326965268655
                  1000  -0.0023180354739745
                   228  -0.011499786038565
                 64.71  -0.046826727009787
                 21.06   -0.12846616875047
                 7.495   -0.30126627246289
                 2.797   -0.25563070233011
                0.5215      1.093793361012
 s    1 1.00
                0.1596                   1
 p    3 1.00
                 9.439   0.056979251590039
                 2.002    0.31320721150073
                0.5456    0.76037674173753
 p    1 1.00
                0.1517                   1
 d    1 1.00
                  0.55                   1

8 0
 s    3 1.00
                 13.01   0.033498726389998
                 1.962    0.23480080117413
                0.4446     0.8136829578829
 s    1 1.00
                 0.122                   1
 p    1 1.00
                 0.727                   1

9 0
 s    8 1.00
                  6665  0.00069158396281299
                  1000  0.0053257961529341
                   228   0.027060721042034
                 64.71    0.10165684614077
                 21.06     0.2745748236174
                 7.495    0.44829431892377
                 2.797    0.28490261071525
                0.5215   0.015194859206082
 s    8 1.00
                  6665  -0.00029326965268655
                  1000  -0.0023180354739745
                   228  -0.011499786038565
                 64.71  -0.046826727009787
                 21.06   -0.12846616875047
                 7.495   -0.30126627246289
                 2.797   -0.25563070233011
                0.5215      1.093793361012
 s    1 1.00
                0.1596                   1
 p    3 1.00
                 9.439   0.056979251590039
                 2.002    0.31320721150073
                0.5456    0.76037674173753
 p    1 1.00
                0.1517                   1
 d    1 1.00
                  0.55                   1

10 0
 s    3 1.00
                 13.01   0.033498726389998
                 1.962    0.23480080117413
                0.4446     0.8136829578829
 s    1 1.00
                 0.122                   1
 p    1 1.00
                 0.727                   1

11 0
 s    3 1.00
                 13.01   0.033498726389998
                 1.962    0.23480080117413
                0.4446     0.8136829578829
 s    1 1.00
                 0.122                   1
 p    1 1.00
                 0.727                   1

12 0
 s    3 1.00
                 13.01   0.033498726389998
                 1.962    0.23480080117413
                0.4446     0.8136829578829
 s    1 1.00
                 0.122                   1
 p    1 1.00
                 0.727                   1

13 0
 s    8 1.00
                  6665  0.00069158396281299
                  1000  0.0053257961529341
                   228   0.027060721042034
                 64.71    0.10165684614077
                 21.06     0.2745748236174
                 7.495    0.44829431892377
                 2.797    0.28490261071525
                0.5215   0.015194859206082
 s    8 1.00
                  6665  -0.00029326965268655
                  1000  -0.0023180354739745
                   228  -0.011499786038565
                 64.71  -0.046826727009787
                 21.06   -0.12846616875047
                 7.495   -0.30126627246289
                 2.797   -0.25563070233011
                0.5215      1.093793361012
 s    1 1.00
                0.1596                   1
 p    3 1.00
                 9.439   0.056979251590039
                 2.002    0.31320721150073
                0.5456    0.76037674173753
 p    1 1.00
                0.1517                   1
 d    1 1.00
                  0.55                   1

14 0
 s    3 1.00
                 13.01   0.033498726389998
                 1.962    0.23480080117413
                0.4446     0.8136829578829
 s    1 1.00
                 0.122                   1
 p    1 1.00
                 0.727                   1

15 0
 s    3 1.00
                 13.01   0.033498726389998
                 1.962    0.23480080117413
                0.4446     0.8136829578829
 s    1 1.00
                 0.122                   1
 p    1 1.00
                 0.727                   1

16 0
 s    8 1.00
                  6665  0.00069158396281299
                  1000  0.0053257961529341
                   228   0.027060721042034
                 64.71    0.10165684614077
                 21.06     0.2745748236174
                 7.495    0.44829431892377
                 2.797    0.28490261071525
                0.5215   0.015194859206082
 s    8 1.00
                  6665  -0.00029326965268655
                  1000  -0.0023180354739745
                   228  -0.011499786038565
                 64.71  -0.046826727009787
                 21.06   -0.12846616875047
                 7.495   -0.30126627246289
                 2.797   -0.25563070233011
                0.5215      1.093793361012
 s    1 1.00
                0.1596                   1
 p    3 1.00
                 9.439   0.056979251590039
                 2.002    0.31320721150073
                0.5456    0.76037674173753
 p    1 1.00
                0.1517                   1
 d    1 1.00
                  0.55                   1

17 0
 s    3 1.00
                 13.01   0.033498726389998
                 1.962    0.23480080117413
                0.4446     0.8136829578829
 s    1 1.00
                 0.122                   1
 p    1 1.00
                 0.727                   1

18 0
 s    3 1.00
                 13.01   0.033498726389998
                 1.962    0.23480080117413
                0.4446     0.8136829578829
 s    1 1.00
                 0.122                   1
 p    1 1.00
                 0.727                   1

19 0
 s    8 1.00
                  6665  0.00069158396281299
                  1000  0.0053257961529341
                   228   0.027060721042034
                 64.71    0.10165684614077
                 21.06     0.2745748236174
                 7.495    0.44829431892377
                 2.797    0.28490261071525
                0.5215   0.015194859206082
 s    8 1.00
                  6665  -0.00029326965268655
                  1000  -0.0023180354739745
                   228  -0.011499786038565
                 64.71  -0.046826727009787
                 21.06   -0.12846616875047
                 7.495   -0.30126627246289
                 2.797   -0.25563070233011
                0.5215      1.093793361012
 s    1 1.00
                0.1596                   1
 p    3 1.00
                 9.439   0.056979251590039
                 2.002    0.31320721150073
                0.5456    0.76037674173753
 p    1 1.00
                0.1517                   1
 d    1 1.00
                  0.55                   1

20 0
 s    3 1.00
                 13.01   0.033498726389998
                 1.962    0.23480080117413
                0.4446     0.8136829578829
 s    1 1.00
                 0.122                   1
 p    1 1.00
                 0.727                   1

21 0
 s    8 1.00
                  6665  0.00069158396281299
                  1000  0.0053257961529341
                   228   0.027060721042034
                 64.71    0.10165684614077
                 21.06     0.2745748236174
                 7.495    0.44829431892377
                 2.797    0.28490261071525
                0.5215   0.015194859206082
 s    8 1.00
                  6665  -0.00029326965268655
                  1000  -0.0023180354739745
                   228  -0.011499786038565
                 64.71  -0.046826727009787
                 21.06   -0.12846616875047
                 7.495   -0.30126627246289
                 2.797   -0.25563070233011
                0.5215      1.093793361012
 s    1 1.00
                0.1596                   1
 p    3 1.00
                 9.439   0.056979251590039
                 2.002    0.31320721150073
                0.5456    0.76037674173753
 p    1 1.00
                0.1517                   1
 d    1 1.00
                  0.55                   1

22 0
 s    3 1.00
                 13.01   0.033498726389998
                 1.962    0.23480080117413
                0.4446     0.8136829578829
 s    1 1.00
                 0.122                   1
 p    1 1.00
                 0.727                   1

23 0
 s    3 1.00
                 13.01   0.033498726389998
                 1.962    0.23480080117413
                0.4446     0.8136829578829
 s    1 1.00
                 0.122                   1
 p    1 1.00
                 0.727                   1

24 0
 s    3 1.00
                 13.01   0.033498726389998
                 1.962    0.23480080117413
                0.4446     0.8136829578829
 s    1 1.00
                 0.122                   1
 p    1 1.00
                 0.727                   1

25 0
 s    8 1.00
                  6665  0.00069158396281299
                  1000  0.0053257961529341
                   228   0.027060721042034
                 64.71    0.10165684614077
                 21.06     0.2745748236174
                 7.495    0.44829431892377
                 2.797    0.28490261071525
                0.5215   0.015194859206082
 s    8 1.00
                  6665  -0.00029326965268655
                  1000  -0.0023180354739745
                   228  -0.011499786038565
                 64.71  -0.046826727009787
                 21.06   -0.12846616875047
                 7.495   -0.30126627246289
                 2.797   -0.25563070233011
                0.5215      1.093793361012
 s    1 1.00
                0.1596                   1
 p    3 1.00
                 9.439   0.056979251590039
                 2.002    0.31320721150073
                0.5456    0.76037674173753
 p    1 1.00
                0.1517                   1
 d    1 1.00
                  0.55                   1

26 0
 s    3 1.00
                 13.01   0.033498726389998
                 1.962    0.23480080117413
                0.4446     0.8136829578829
 s    1 1.00
                 0.122                   1
 p    1 1.00
                 0.727                   1

27 0
 s    3 1.00
                 13.01   0.033498726389998
                 1.962    0.23480080117413
                0.4446     0.8136829578829
 s    1 1.00
                 0.122                   1
 p    1 1.00
                 0.727                   1

28 0
 s    8 1.00
                  6665  0.00069158396281299
                  1000  0.0053257961529341
                   228   0.027060721042034
                 64.71    0.10165684614077
                 21.06     0.2745748236174
                 7.495    0.44829431892377
                 2.797    0.28490261071525
                0.5215   0.015194859206082
 s    8 1.00
                  6665  -0.00029326965268655
                  1000  -0.0023180354739745
                   228  -0.011499786038565
                 64.71  -0.046826727009787
                 21.06   -0.12846616875047
                 7.495   -0.30126627246289
                 2.797   -0.25563070233011
                0.5215      1.093793361012
 s    1 1.00
                0.1596                   1
 p    3 1.00
                 9.439   0.056979251590039
                 2.002    0.31320721150073
                0.5456    0.76037674173753
 p    1 1.00
                0.1517                   1
 d    1 1.00
                  0.55                   1

29 0
 s    3 1.00
                 13.01   0.033498726389998
                 1.962    0.23480080117413
                0.4446     0.8136829578829
 s    1 1.00
                 0.122                   1
 p    1 1.00
                 0.727                   1

30 0
 s    3 1.00
                 13.01   0.033498726389998
                 1.962    0.23480080117413
                0.4446     0.8136829578829
 s    1 1.00
                 0.122                   1
 p    1 1.00
                 0.727                   1

31 0
 s    8 1.00
                  6665  0.00069158396281299
                  1000  0.0053257961529341
                   228   0.027060721042034
                 64.71    0.10165684614077
                 21.06     0.2745748236174
                 7.495    0.44829431892377
                 2.797    0.28490261071525
                0.5215   0.015194859206082
 s    8 1.00
                  6665  -0.00029326965268655
                  1000  -0.0023180354739745
                   228  -0.011499786038565
                 64.71  -0.046826727009787
                 21.06   -0.12846616875047
                 7.495   -0.30126627246289
                 2.797   -0.25563070233011
                0.5215      1.093793361012
 s    1 1.00
                0.1596                   1
 p    3 1.00
                 9.439   0.056979251590039
                 2.002    0.31320721150073
                0.5456    0.76037674173753
 p    1 1.00
                0.1517                   1
 d    1 1.00
                  0.55                   1

32 0
 s    3 1.00
                 13.01   0.033498726389998
                 1.962    0.23480080117413
                0.4446     0.8136829578829
 s    1 1.00
                 0.122                   1
 p    1 1.00
                 0.727                   1

33 0
 s    3 1.00
                 13.01   0.033498726389998
                 1.962    0.23480080117413
                0.4446     0.8136829578829
 s    1 1.00
                 0.122                   1
 p    1 1.00
                 0.727                   1

34 0
 s    3 1.00
                 13.01   0.033498726389998
                 1.962    0.23480080117413
                0.4446     0.8136829578829
 s    1 1.00
                 0.122                   1
 p    1 1.00
                 0.727                   1

35 0
 s    3 1.00
                 13.01   0.033498726389998
                 1.962    0.23480080117413
                0.4446     0.8136829578829
 s    1 1.00
                 0.122                   1
 p    1 1.00
                 0.727                   1

36 0
 s    3 1.00
                 13.01   0.033498726389998
                 1.962    0.23480080117413
                0.4446     0.8136829578829
 s    1 1.00
                 0.122                   1
 p    1 1.00
                 0.727                   1

37 0
 s    3 1.00
                 13.01   0.033498726389998
                 1.962    0.23480080117413
                0.4446     0.8136829578829
 s    1 1.00
                 0.122                   1
 p    1 1.00
                 0.727                   1

[5d]
[7f]
[9g]

[MO]
 Sym= A
 Ene=               0
 Spin= Alpha
 Occup=    1.00000
   1    -3.4305125409525e-07
   2    -2.1391882680354e-06
   3    -9.0822971474779e-07
   4    2.5109831573656e-07
   5    -5.2044695464736e-07
   6    4.0126934343168e-06
   7    -6.0199196561595e-08
   8    -7.9291400499215e-07
   9    1.3861043819056e-06
  10    2.5275757247998e-07
  11    -9.6877032164221e-09
  12    6.5745854624785e-08
  13    3.1569779188942e-08
  14    -2.3566959614776e-09
  15    -9.8545162453221e-07
  16    2.6001899021835e-06
  17    -4.3185523153777e-07
  18    4.8509432594343e-07
  19    -8.3393595314843e-07
  20    -7.2112857916367e-07
  21    2.2600608300463e-06
  22    6.4034440429475e-08
  23    -2.5632162580019e-07
  24    2.1195028854625e-07
  25    7.8008780009071e-06
  26    -8.7849560847927e-06
  27    -0.00012656910617453
  28    -6.668373059918e-05
  29    0.00010385312480477
  30    8.2989842617674e-05
  31    -0.00012275015069591
  32    0.0001476351366819
  33    9.4394176850531e-05
  34    -4.1540168779819e-06
  35    -4.2760566223334e-06
  36    8.1960661794992e-07
  37    -8.3345882374625e-07
  38    -1.8272361506879e-06
  39    -2.7646156474809e-05
  40    0.0001608641670849
  41    0.00065779228099558
  42     0.000260183272492
  43    -0.00020886973664058
  44    -0.00020145549556037
  45    0.00040188064000072
  46    -0.00035483168959591
  47    -8.3864174311287e-05
  48    -1.3101909482027e-05
  49    -2.5974302943062e-05
  50    3.3406341530913e-05
  51    -1.6182451847876e-05
  52    -2.2386711680377e-05
  53    -7.250403901911e-05
  54    -0.00071622263680714
  55    0.00018038707051791
  56    -0.00070363641583892
  57    1.9765852701865e-05
  58    0.00059153885701893
  59    0.00032774439063644
  60    1.2410413683633e-05
  61    -0.00036971254776749
  62    -9.5558329234805e-06
  63    2.0658344220658e-06
  64    1.8958802742596e-05
  65    8.5189398817389e-06
  66    -1.4576422383742e-05
  67    -5.1940242513016e-07
  68    -3.1200875270145e-05
  69    -0.00013721168422097
  70    -4.9266246390216e-05
  71    6.7673269030431e-05
  72    -4.4182672167346e-05
  73    0.00014525994987519
  74    2.1060602455651e-05
  75    -5.5465797995006e-05
  76    -8.7703933999681e-06
  77    4.9041161992884e-06
  78    -6.8545858321718e-06
  79    -4.7421325969664e-06
  80    -2.6076831574117e-06
  81    -0.00040127007552527
  82    -6.1103699624103e-05
  83    1.809739437215e-06
  84    -1.3454117738532e-05
  85    6.0363047608675e-05
  86    -0.00063156845115636
  87    -0.00032794394118873
  88    -0.00083684640756642
  89    0.00013420983747056
  90    0.00075401640037579
  91    -0.0004126271180106
  92    0.00024730327500417
  93    0.00098633016038192
  94    -0.00054908653904519
  95    -4.721609158617e-06
  96    3.2275048544837e-05
  97    2.3938332730779e-05
  98    1.4253519151274e-08
  99    -2.3766140810593e-05
 100    -0.000337841842787
 101    -2.5353829180358e-05
 102    -6.3200792317748e-05
 103    -2.2666452123799e-05
 104    1.0202243715744e-05
 105    -2.2785640978066e-05
 106    4.8666100100908e-05
 107    -9.4791353459432e-06
 108    7.1103338016966e-06
 109    4.8382671798297e-06
 110    1.2357932211185e-05
 111    6.6028099494977e-05
 112    -5.417518069034e-06
 113    -2.2620126640664e-06
 114    -1.3968087726779e-06
 115    0.00086184757954881
 116    -4.2791458291232e-06
 117    0.00015196988180633
 118    1.8382646833367e-05
 119    -4.3235343421874e-06
 120    -2.4957871194482e-05
 121    0.00013871626852294
 122    -0.00012078535833819
 123    -4.8675734610601e-05
 124    1.7538262321969e-06
 125    -8.7275298417394e-06
 126    4.0604154426406e-06
 127    3.8926135336528e-06
 128    -4.7341841534398e-06
 129    0.00024417642426503
 130    -0.00012047711321141
 131    -3.6181203580914e-05
 132    -1.9548673750517e-05
 133    4.7037301319733e-05
 134    0.0002800457949202
 135    -0.00015163964124535
 136    -4.1340169254243e-05
 137    -2.3371294618583e-05
 138    2.7213120328979e-05
 139    -0.040467091197808
 140    -0.00043548473368461
 141    0.0039130720817215
 142    0.00013248941867921
 143    4.2576902016498e-05
 144    -0.00012884054825194
 145    0.00087607690027358
 146    0.0011202549137639
 147    -0.0012133106637193
 148    -1.553265132449e-05
 149    7.8533721958559e-05
 150    0.00010414676346302
 151    2.4966160463115e-05
 152    -7.5966223465844e-05
 153    -6.2364845560501e-06
 154    4.2918193567911e-05
 155    -1.0211115649303e-06
 156    6.5694615775685e-07
 157    -1.6333253728725e-06
 158    -9.0292981667034e-06
 159    -1.0453042691512e-05
 160    -3.2250336694925e-06
 161    1.4772259181487e-06
 162    1.1253669471397e-06
 163    -0.0012401270484367
 164    -1.9640392128529e-05
 165    6.8998660825172e-05
 166    -4.9506935241963e-06
 167    1.6001690432176e-06
 168    -1.0457191465664e-06
 169    1.9493569470199e-05
 170    -5.2613567287018e-06
 171    1.7063302882917e-06
 172    -1.2716738460155e-06
 173    3.5502623012978e-07
 174    1.4607237457578e-06
 175    2.8965786990196e-06
 176     -1.7675923326e-06
 177    -0.00010461314168385
 178    0.00019774167440519
 179    -5.525067200241e-06
 180    3.7560467067397e-05
 181    -6.0444400471411e-05
 182       1.0003911593108
 183    0.0051292073060503
 184     -0.01223537423886
 185    2.6071839361731e-06
 186    0.00020067935923631
 187    -8.2367138372301e-05
 188    0.00021024795933676
 189    0.0013972583400059
 190    -0.00069322952516509
 191    1.2370278215032e-06
 192    0.00031546513626336
 193    8.795951150629e-05
 194    -6.3362088604255e-05
 195    1.3646109226473e-06
 196    -0.00011023199624448
 197    0.0001645638698267
 198    4.3015700736307e-05
 199    5.5509301040406e-05
 200    -6.9066197939388e-06
 201    -6.6584788425275e-06
 202    -1.123009587202e-05
 203    -1.6086167580375e-06
 204    -3.4431837623035e-07
 205    -7.0254417894019e-07
 206    -5.9092605098674e-06
 207    -2.0671971976982e-05
 208    -7.0757782435032e-07
 209    1.7263672840852e-06
 210    -1.0396414868255e-07
 211    0.0002769278053733
 212    6.2019924351975e-07
 213    -1.6995370950489e-06
 214    2.227441426121e-06
 215    -2.6640821044877e-07
 216    -3.3829025494589e-06
 217    4.289522444428e-05
 218    -2.3748849489473e-05
 219    1.7853581559177e-05
 220    -2.4393658175947e-07
 221    -7.1703881147993e-07
 222    1.5141840911867e-06
 223    3.8887165305417e-07
 224    -3.2987124089061e-07
 225    0.00020473959624095
 226    0.0012002452076039
 227    0.00019651511658688
 228    0.00030261812373719
 229    0.00026422376037539
 230    0.00019855987024007
 231     0.001224145377302
 232    -0.00030594193395221
 233    8.4503509670194e-05
 234    -0.00031706918150256
 235     0.052526971364589
 236    0.00019414441192389
 237    0.0022166811884277
 238    -0.00011521358831318
 239    7.1645459284573e-05
 240     7.13277176822e-05
 241    -0.00081905591660905
 242    0.00054355166562245
 243    0.00050472311191452
 244    5.4122196382234e-05
 245    0.0001156832044365
 246    -9.597053968097e-05
 247    -4.6928571592615e-05
 248    0.00015906128113069
 249    -2.2705080154017e-06
 250    -6.9296609748665e-06
 251    -1.2597499738036e-06
 252    1.7852367012264e-06
 253    -5.391686636371e-07
 254    -1.9291191506919e-06
 255    2.3971162233388e-06
 256    -1.4078906745839e-06
 257    9.5662128512169e-07
 258    -1.5961730177381e-06
 259    -4.932529152566e-05
 260    -5.1615431514428e-06
 261    3.468024385403e-05
 262    -8.5375834967901e-07