[Molden Format]
made by pyscf v[2.0.1]
[Atoms] (AU)
O   1   8     0.00000000000000     0.00000000000000    11.31969581038057
H   2   1     0.00000000000000     0.00000000000000     9.49629398847960
H   3   1    -0.05031916615174     1.78353065140343    11.69556750684724
O   4   8     0.00000000000000     0.00000000000000     2.31533471513237
C   5   6     0.00000000000000     0.00000000000000     0.00000000000000
C   6   6     2.01118073026938    -1.40227222164369    -1.50774939176400
C   7   6    -2.01249334291722     1.41331050329955    -1.50315905028694
H   8   1     3.32037363730244    -2.26721897153159    -0.13599698591495
C   9   6     3.45899267434009     0.28739631745591    -3.37437943254505
H   10   1     1.07662969841332    -2.94725144642667    -2.56541439481080
H   11   1    -2.67503415753480     0.18421555839588    -3.06194479365997
H   12   1    -1.07974048864772     3.03851734677796    -2.43674295017013
C   13   6    -4.21607110578555     2.32938802552922     0.11994162256091
H   14   1     4.24440173074564     1.93368664142019    -2.34976285512790
H   15   1     2.15020713235517     1.04714335134846    -4.81494497423699
C   16   6     5.60746363007797    -1.12419643481196    -4.70268606082550
H   17   1    -3.46838323670267     3.50951302338067     1.66946842715333
H   18   1    -5.11873485366228     0.68575958301209     1.04047743976495
C   19   6    -6.18314754751344     3.80909592987882    -1.39656589068747
H   20   1     6.93011263717176    -1.87550812453645    -3.26656317360070
C   21   6     7.06356622236532     0.52877932406334    -6.57829775293605
H   22   1     4.82318879258361    -2.78573437948532    -5.70504560381835
H   23   1    -6.91582688743803     2.61304780074712    -2.95074552451969
H   24   1    -5.26532430573853     5.45420349051338    -2.31005832200284
C   25   6    -8.39941882261433     4.73263980500213     0.21800571437956
H   26   1     7.83338371486801     2.19084139882824    -5.57093109900697
H   27   1     5.73544244039420     1.27376866537418    -8.01071492370229
C   28   6     9.21124858443101    -0.89699110072176    -7.88926949186242
H   29   1    -7.66272760055236     5.92277078003992     1.77035591474408
H   30   1    -9.31497248082589     3.08753015622020     1.12614408368786
C   31   6   -10.35481709231879     6.21833079391143    -1.30905206253246
H   32   1    10.58815905329501    -1.61074586756696    -6.49512691622620
H   33   1    10.23506248045667     0.32468009384095    -9.23072870921204
H   34   1     8.47665842847139    -2.53598436989925    -8.94921964622535
H   35   1    -9.48948872868064     7.90013588951020    -2.18823918416067
H   36   1   -11.93332513000955     6.86460487874102    -0.11255798845995
H   37   1   -11.15126291841033     5.04495968327630    -2.83849898862534
[GTO]
1 0
 s    8 1.00
                 11720  0.00070964594651845
                  1759  0.0054672722921914
                 400.8   0.027823118610189
                 113.7    0.10474773971146
                 37.03    0.28292084635691
                 13.27    0.44849523869833
                 5.025    0.27081688521277
                 1.013    0.01545029160744
 s    8 1.00
                 11720  -0.00031444341168873
                  1759  -0.0024821376810179
                 400.8  -0.012316355381583
                 113.7  -0.050538917343672
                 37.03   -0.13938490331632
                 13.27   -0.32507749481778
                 5.025   -0.22984830758785
                 1.013     1.0953793467883
 s    1 1.00
                0.3023                   1
 p    3 1.00
                  17.7   0.062679166281506
                 3.854    0.33353656587936
                 1.046    0.74123964163973
 p    1 1.00
                0.2753                   1
 d    1 1.00
                 1.185                   1

2 0
 s    3 1.00
                 13.01   0.033498726389998
                 1.962    0.23480080117413
                0.4446     0.8136829578829
 s    1 1.00
                 0.122                   1
 p    1 1.00
                 0.727                   1

3 0
 s    3 1.00
                 13.01   0.033498726389998
                 1.962    0.23480080117413
                0.4446     0.8136829578829
 s    1 1.00
                 0.122                   1
 p    1 1.00
                 0.727                   1

4 0
 s    8 1.00
                 11720  0.00070964594651845
                  1759  0.0054672722921914
                 400.8   0.027823118610189
                 113.7    0.10474773971146
                 37.03    0.28292084635691
                 13.27    0.44849523869833
                 5.025    0.27081688521277
                 1.013    0.01545029160744
 s    8 1.00
                 11720  -0.00031444341168873
                  1759  -0.0024821376810179
                 400.8  -0.012316355381583
                 113.7  -0.050538917343672
                 37.03   -0.13938490331632
                 13.27   -0.32507749481778
                 5.025   -0.22984830758785
                 1.013     1.0953793467883
 s    1 1.00
                0.3023                   1
 p    3 1.00
                  17.7   0.062679166281506
                 3.854    0.33353656587936
                 1.046    0.74123964163973
 p    1 1.00
                0.2753                   1
 d    1 1.00
                 1.185                   1

5 0
 s    8 1.00
                  6665  0.00069158396281299
                  1000  0.0053257961529341
                   228   0.027060721042034
                 64.71    0.10165684614077
                 21.06     0.2745748236174
                 7.495    0.44829431892377
                 2.797    0.28490261071525
                0.5215   0.015194859206082
 s    8 1.00
                  6665  -0.00029326965268655
                  1000  -0.0023180354739745
                   228  -0.011499786038565
                 64.71  -0.046826727009787
                 21.06   -0.12846616875047
                 7.495   -0.30126627246289
                 2.797   -0.25563070233011
                0.5215      1.093793361012
 s    1 1.00
                0.1596                   1
 p    3 1.00
                 9.439   0.056979251590039
                 2.002    0.31320721150073
                0.5456    0.76037674173753
 p    1 1.00
                0.1517                   1
 d    1 1.00
                  0.55                   1

6 0
 s    8 1.00
                  6665  0.00069158396281299
                  1000  0.0053257961529341
                   228   0.027060721042034
                 64.71    0.10165684614077
                 21.06     0.2745748236174
                 7.495    0.44829431892377
                 2.797    0.28490261071525
                0.5215   0.015194859206082
 s    8 1.00
                  6665  -0.00029326965268655
                  1000  -0.0023180354739745
                   228  -0.011499786038565
                 64.71  -0.046826727009787
                 21.06   -0.12846616875047
                 7.495   -0.30126627246289
                 2.797   -0.25563070233011
                0.5215      1.093793361012
 s    1 1.00
                0.1596                   1
 p    3 1.00
                 9.439   0.056979251590039
                 2.002    0.31320721150073
                0.5456    0.76037674173753
 p    1 1.00
                0.1517                   1
 d    1 1.00
                  0.55                   1

7 0
 s    8 1.00
                  6665  0.00069158396281299
                  1000  0.0053257961529341
                   228   0.027060721042034
                 64.71    0.10165684614077
                 21.06     0.2745748236174
                 7.495    0.44829431892377
                 2.797    0.28490261071525
                0.5215   0.015194859206082
 s    8 1.00
                  6665  -0.00029326965268655
                  1000  -0.0023180354739745
                   228  -0.011499786038565
                 64.71  -0.046826727009787
                 21.06   -0.12846616875047
                 7.495   -0.30126627246289
                 2.797   -0.25563070233011
                0.5215      1.093793361012
 s    1 1.00
                0.1596                   1
 p    3 1.00
                 9.439   0.056979251590039
                 2.002    0.31320721150073
                0.5456    0.76037674173753
 p    1 1.00
                0.1517                   1
 d    1 1.00
                  0.55                   1

8 0
 s    3 1.00
                 13.01   0.033498726389998
                 1.962    0.23480080117413
                0.4446     0.8136829578829
 s    1 1.00
                 0.122                   1
 p    1 1.00
                 0.727                   1

9 0
 s    8 1.00
                  6665  0.00069158396281299
                  1000  0.0053257961529341
                   228   0.027060721042034
                 64.71    0.10165684614077
                 21.06     0.2745748236174
                 7.495    0.44829431892377
                 2.797    0.28490261071525
                0.5215   0.015194859206082
 s    8 1.00
                  6665  -0.00029326965268655
                  1000  -0.0023180354739745
                   228  -0.011499786038565
                 64.71  -0.046826727009787
                 21.06   -0.12846616875047
                 7.495   -0.30126627246289
                 2.797   -0.25563070233011
                0.5215      1.093793361012
 s    1 1.00
                0.1596                   1
 p    3 1.00
                 9.439   0.056979251590039
                 2.002    0.31320721150073
                0.5456    0.76037674173753
 p    1 1.00
                0.1517                   1
 d    1 1.00
                  0.55                   1

10 0
 s    3 1.00
                 13.01   0.033498726389998
                 1.962    0.23480080117413
                0.4446     0.8136829578829
 s    1 1.00
                 0.122                   1
 p    1 1.00
                 0.727                   1

11 0
 s    3 1.00
                 13.01   0.033498726389998
                 1.962    0.23480080117413
                0.4446     0.8136829578829
 s    1 1.00
                 0.122                   1
 p    1 1.00
                 0.727                   1

12 0
 s    3 1.00
                 13.01   0.033498726389998
                 1.962    0.23480080117413
                0.4446     0.8136829578829
 s    1 1.00
                 0.122                   1
 p    1 1.00
                 0.727                   1

13 0
 s    8 1.00
                  6665  0.00069158396281299
                  1000  0.0053257961529341
                   228   0.027060721042034
                 64.71    0.10165684614077
                 21.06     0.2745748236174
                 7.495    0.44829431892377
                 2.797    0.28490261071525
                0.5215   0.015194859206082
 s    8 1.00
                  6665  -0.00029326965268655
                  1000  -0.0023180354739745
                   228  -0.011499786038565
                 64.71  -0.046826727009787
                 21.06   -0.12846616875047
                 7.495   -0.30126627246289
                 2.797   -0.25563070233011
                0.5215      1.093793361012
 s    1 1.00
                0.1596                   1
 p    3 1.00
                 9.439   0.056979251590039
                 2.002    0.31320721150073
                0.5456    0.76037674173753
 p    1 1.00
                0.1517                   1
 d    1 1.00
                  0.55                   1

14 0
 s    3 1.00
                 13.01   0.033498726389998
                 1.962    0.23480080117413
                0.4446     0.8136829578829
 s    1 1.00
                 0.122                   1
 p    1 1.00
                 0.727                   1

15 0
 s    3 1.00
                 13.01   0.033498726389998
                 1.962    0.23480080117413
                0.4446     0.8136829578829
 s    1 1.00
                 0.122                   1
 p    1 1.00
                 0.727                   1

16 0
 s    8 1.00
                  6665  0.00069158396281299
                  1000  0.0053257961529341
                   228   0.027060721042034
                 64.71    0.10165684614077
                 21.06     0.2745748236174
                 7.495    0.44829431892377
                 2.797    0.28490261071525
                0.5215   0.015194859206082
 s    8 1.00
                  6665  -0.00029326965268655
                  1000  -0.0023180354739745
                   228  -0.011499786038565
                 64.71  -0.046826727009787
                 21.06   -0.12846616875047
                 7.495   -0.30126627246289
                 2.797   -0.25563070233011
                0.5215      1.093793361012
 s    1 1.00
                0.1596                   1
 p    3 1.00
                 9.439   0.056979251590039
                 2.002    0.31320721150073
                0.5456    0.76037674173753
 p    1 1.00
                0.1517                   1
 d    1 1.00
                  0.55                   1

17 0
 s    3 1.00
                 13.01   0.033498726389998
                 1.962    0.23480080117413
                0.4446     0.8136829578829
 s    1 1.00
                 0.122                   1
 p    1 1.00
                 0.727                   1

18 0
 s    3 1.00
                 13.01   0.033498726389998
                 1.962    0.23480080117413
                0.4446     0.8136829578829
 s    1 1.00
                 0.122                   1
 p    1 1.00
                 0.727                   1

19 0
 s    8 1.00
                  6665  0.00069158396281299
                  1000  0.0053257961529341
                   228   0.027060721042034
                 64.71    0.10165684614077
                 21.06     0.2745748236174
                 7.495    0.44829431892377
                 2.797    0.28490261071525
                0.5215   0.015194859206082
 s    8 1.00
                  6665  -0.00029326965268655
                  1000  -0.0023180354739745
                   228  -0.011499786038565
                 64.71  -0.046826727009787
                 21.06   -0.12846616875047
                 7.495   -0.30126627246289
                 2.797   -0.25563070233011
                0.5215      1.093793361012
 s    1 1.00
                0.1596                   1
 p    3 1.00
                 9.439   0.056979251590039
                 2.002    0.31320721150073
                0.5456    0.76037674173753
 p    1 1.00
                0.1517                   1
 d    1 1.00
                  0.55                   1

20 0
 s    3 1.00
                 13.01   0.033498726389998
                 1.962    0.23480080117413
                0.4446     0.8136829578829
 s    1 1.00
                 0.122                   1
 p    1 1.00
                 0.727                   1

21 0
 s    8 1.00
                  6665  0.00069158396281299
                  1000  0.0053257961529341
                   228   0.027060721042034
                 64.71    0.10165684614077
                 21.06     0.2745748236174
                 7.495    0.44829431892377
                 2.797    0.28490261071525
                0.5215   0.015194859206082
 s    8 1.00
                  6665  -0.00029326965268655
                  1000  -0.0023180354739745
                   228  -0.011499786038565
                 64.71  -0.046826727009787
                 21.06   -0.12846616875047
                 7.495   -0.30126627246289
                 2.797   -0.25563070233011
                0.5215      1.093793361012
 s    1 1.00
                0.1596                   1
 p    3 1.00
                 9.439   0.056979251590039
                 2.002    0.31320721150073
                0.5456    0.76037674173753
 p    1 1.00
                0.1517                   1
 d    1 1.00
                  0.55                   1

22 0
 s    3 1.00
                 13.01   0.033498726389998
                 1.962    0.23480080117413
                0.4446     0.8136829578829
 s    1 1.00
                 0.122                   1
 p    1 1.00
                 0.727                   1

23 0
 s    3 1.00
                 13.01   0.033498726389998
                 1.962    0.23480080117413
                0.4446     0.8136829578829
 s    1 1.00
                 0.122                   1
 p    1 1.00
                 0.727                   1

24 0
 s    3 1.00
                 13.01   0.033498726389998
                 1.962    0.23480080117413
                0.4446     0.8136829578829
 s    1 1.00
                 0.122                   1
 p    1 1.00
                 0.727                   1

25 0
 s    8 1.00
                  6665  0.00069158396281299
                  1000  0.0053257961529341
                   228   0.027060721042034
                 64.71    0.10165684614077
                 21.06     0.2745748236174
                 7.495    0.44829431892377
                 2.797    0.28490261071525
                0.5215   0.015194859206082
 s    8 1.00
                  6665  -0.00029326965268655
                  1000  -0.0023180354739745
                   228  -0.011499786038565
                 64.71  -0.046826727009787
                 21.06   -0.12846616875047
                 7.495   -0.30126627246289
                 2.797   -0.25563070233011
                0.5215      1.093793361012
 s    1 1.00
                0.1596                   1
 p    3 1.00
                 9.439   0.056979251590039
                 2.002    0.31320721150073
                0.5456    0.76037674173753
 p    1 1.00
                0.1517                   1
 d    1 1.00
                  0.55                   1

26 0
 s    3 1.00
                 13.01   0.033498726389998
                 1.962    0.23480080117413
                0.4446     0.8136829578829
 s    1 1.00
                 0.122                   1
 p    1 1.00
                 0.727                   1

27 0
 s    3 1.00
                 13.01   0.033498726389998
                 1.962    0.23480080117413
                0.4446     0.8136829578829
 s    1 1.00
                 0.122                   1
 p    1 1.00
                 0.727                   1

28 0
 s    8 1.00
                  6665  0.00069158396281299
                  1000  0.0053257961529341
                   228   0.027060721042034
                 64.71    0.10165684614077
                 21.06     0.2745748236174
                 7.495    0.44829431892377
                 2.797    0.28490261071525
                0.5215   0.015194859206082
 s    8 1.00
                  6665  -0.00029326965268655
                  1000  -0.0023180354739745
                   228  -0.011499786038565
                 64.71  -0.046826727009787
                 21.06   -0.12846616875047
                 7.495   -0.30126627246289
                 2.797   -0.25563070233011
                0.5215      1.093793361012
 s    1 1.00
                0.1596                   1
 p    3 1.00
                 9.439   0.056979251590039
                 2.002    0.31320721150073
                0.5456    0.76037674173753
 p    1 1.00
                0.1517                   1
 d    1 1.00
                  0.55                   1

29 0
 s    3 1.00
                 13.01   0.033498726389998
                 1.962    0.23480080117413
                0.4446     0.8136829578829
 s    1 1.00
                 0.122                   1
 p    1 1.00
                 0.727                   1

30 0
 s    3 1.00
                 13.01   0.033498726389998
                 1.962    0.23480080117413
                0.4446     0.8136829578829
 s    1 1.00
                 0.122                   1
 p    1 1.00
                 0.727                   1

31 0
 s    8 1.00
                  6665  0.00069158396281299
                  1000  0.0053257961529341
                   228   0.027060721042034
                 64.71    0.10165684614077
                 21.06     0.2745748236174
                 7.495    0.44829431892377
                 2.797    0.28490261071525
                0.5215   0.015194859206082
 s    8 1.00
                  6665  -0.00029326965268655
                  1000  -0.0023180354739745
                   228  -0.011499786038565
                 64.71  -0.046826727009787
                 21.06   -0.12846616875047
                 7.495   -0.30126627246289
                 2.797   -0.25563070233011
                0.5215      1.093793361012
 s    1 1.00
                0.1596                   1
 p    3 1.00
                 9.439   0.056979251590039
                 2.002    0.31320721150073
                0.5456    0.76037674173753
 p    1 1.00
                0.1517                   1
 d    1 1.00
                  0.55                   1

32 0
 s    3 1.00
                 13.01   0.033498726389998
                 1.962    0.23480080117413
                0.4446     0.8136829578829
 s    1 1.00
                 0.122                   1
 p    1 1.00
                 0.727                   1

33 0
 s    3 1.00
                 13.01   0.033498726389998
                 1.962    0.23480080117413
                0.4446     0.8136829578829
 s    1 1.00
                 0.122                   1
 p    1 1.00
                 0.727                   1

34 0
 s    3 1.00
                 13.01   0.033498726389998
                 1.962    0.23480080117413
                0.4446     0.8136829578829
 s    1 1.00
                 0.122                   1
 p    1 1.00
                 0.727                   1

35 0
 s    3 1.00
                 13.01   0.033498726389998
                 1.962    0.23480080117413
                0.4446     0.8136829578829
 s    1 1.00
                 0.122                   1
 p    1 1.00
                 0.727                   1

36 0
 s    3 1.00
                 13.01   0.033498726389998
                 1.962    0.23480080117413
                0.4446     0.8136829578829
 s    1 1.00
                 0.122                   1
 p    1 1.00
                 0.727                   1

37 0
 s    3 1.00
                 13.01   0.033498726389998
                 1.962    0.23480080117413
                0.4446     0.8136829578829
 s    1 1.00
                 0.122                   1
 p    1 1.00
                 0.727                   1

[5d]
[7f]
[9g]

[MO]
 Sym= A
 Ene=               0
 Spin= Alpha
 Occup=    1.00000
   1    -2.3151266947292e-05
   2    -1.1548503770775e-05
   3    4.6074703683273e-05
   4    -4.4637995806106e-08
   5    1.7395954835266e-06
   6    -4.1903351585648e-07
   7    3.020688870507e-07
   8    -1.0969520983453e-05
   9    -3.5207292981599e-05
  10    6.6799696503583e-06
  11    1.2004635747768e-08
  12    -5.1237114995028e-07
  13    5.1023084019789e-07
  14    2.8134815643252e-08
  15    -5.3553026604724e-06
  16    -6.9331006008918e-05
  17    -2.7892090348926e-08
  18    6.8637347938015e-07
  19    -2.1341176450536e-05
  20    -2.5049184889922e-06
  21    2.905819926258e-05
  22    1.0716114200409e-07
  23    -3.7152597590789e-06
  24    9.6996234438233e-07
  25       1.0013579468099
  26    0.0019432890592958
  27    -0.0067546978797349
  28    -4.5364779547456e-06
  29    7.3680831886118e-06
  30    -0.0016610465073981
  31    -3.9114230287687e-07
  32    -1.0771434744135e-06
  33    0.0018055889056118
  34    0.00013106408517333
  35    -3.0447057882602e-06
  36    1.3114048635601e-06
  37    6.7752578266132e-05
  38    -0.00017649177752128
  39    0.0002710168464599
  40    0.00036613555030322
  41    0.0013891307260813
  42    1.4952593695433e-05
  43    -1.0023329984534e-05
  44    -1.6128328716978e-05
  45    8.2472565200497e-05
  46    -6.3175991581877e-05
  47    0.0035264269649852
  48    -0.00054170938742266
  49    -8.6288045160144e-06
  50    2.4908056367169e-06
  51    2.842730188483e-05
  52    -0.0001066159196455
  53    -8.5099509001112e-05
  54    -0.00016634455801215
  55    0.0013654801703814
  56    7.8084432218544e-05
  57    -7.3915349490374e-06
  58    -3.6456386763397e-05
  59    -0.00042312688298501
  60    0.00047558807681925
  61    -0.00091821461087986
  62    -0.00011805715758502
  63    0.00015029469847721
  64    -0.00014283696175925
  65    5.5310190640238e-05
  66    -0.00013079419813215
  67    -4.0658501489035e-05
  68    -9.8856764242696e-05
  69    0.00051042349509859
  70    -6.0934065339846e-05
  71    3.981789508576e-05
  72    -6.2761698182641e-05
  73    0.00099724181211304
  74    -0.00076874922263138
  75    -0.00063250645015863
  76    -0.00014159842763289
  77    -0.00012060000465794
  78    8.9659662866898e-05
  79    5.9248106717563e-05
  80    -0.00015251518802488
  81    -6.5639190507597e-05
  82    0.00020583832708001
  83    6.5804866796023e-05
  84    -4.831905077408e-05
  85    4.9276286639274e-05
  86    2.4968127642708e-05
  87    4.8794821211119e-05
  88    -0.00060134221641415
  89    -1.6165150798531e-05
  90    -1.6972978827118e-05
  91    1.2442834478922e-05
  92    0.00025530964073202
  93    0.00062051108998786
  94    -1.9831021983336e-05
  95    1.792105504163e-05
  96    1.1071297599626e-05
  97    7.0442803688764e-06
  98    -2.0855612480156e-05
  99    -4.5158526908476e-05
 100    -3.6468052850466e-05
 101    -0.00015695152116864
 102    9.7840164238062e-06
 103    -9.6524925781373e-06
 104    7.3956324474623e-05
 105    -1.7525296263819e-05
 106    -0.00019964996126318
 107    -6.4571121719781e-05
 108    1.1755303152233e-05
 109    7.4349208724242e-05
 110    7.7309336150489e-05
 111    -5.7352256405886e-05
 112    -4.5780530084651e-05
 113    1.8143937344433e-05
 114    6.9322764259671e-05
 115    -5.0042029915857e-05
 116    -0.00010191767309852
 117    0.00083831669173743
 118    -2.6146570466749e-05
 119    -9.9876442934824e-06
 120    3.2997944749747e-05
 121    0.00029984197388434
 122    2.8414421433253e-05
 123    -0.00013143424080604
 124    -6.5758427389034e-06
 125    1.2641382867207e-05
 126    1.612167298896e-05
 127    -3.2114234958029e-05
 128    4.9716111922359e-05
 129    -1.8852810130934e-05
 130    -0.00031938221635299
 131    7.3955205854075e-06
 132    5.8405595064432e-06
 133    2.9102035387894e-05
 134    2.5896258620631e-05
 135    -0.00011879486416048
 136    -1.3417067308626e-05
 137    -2.3860693537425e-05
 138    -2.6462602115434e-05
 139    -2.1016349019455e-05
 140    -3.7984479361852e-05
 141    0.00028448263034712
 142    8.3456929388635e-06
 143    -2.1753328631537e-06
 144    -6.6057876879187e-06
 145    -0.0002289566261193
 146    5.0723129546957e-05
 147    6.4453509556145e-05
 148    -2.3457427543816e-06
 149    3.0673768288755e-06
 150    -3.3601633666756e-06
 151    1.1768415811123e-05
 152    -4.9606697781103e-06
 153    -9.7063489653603e-05
 154    -0.00011613425108034
 155    -2.5669538700107e-05
 156    3.0250152432895e-05
 157    2.0723540123765e-05
 158    -2.5851618232955e-05
 159    -9.002886655042e-05
 160    -5.9533680161405e-05
 161    -7.1064437134247e-06
 162    6.0024662812736e-06
 163    -2.6722712995796e-06
 164    -4.7097397543278e-06
 165    -0.00023147368032013
 166    -2.0858623176198e-05
 167    1.5428546512808e-05
 168    9.0633239318021e-06
 169    0.00023730627557081
 170    -0.00021415865300241
 171    -0.0001287318204289
 172    -3.0751617208909e-06
 173    9.9896031913689e-06
 174    -1.3594302304356e-05
 175    3.393665590574e-06
 176    -1.8561433553877e-05
 177    -1.5785461474078e-05
 178    8.2978668950214e-05
 179    -6.8059628057745e-07
 180    2.0443598176543e-06
 181    -5.0240433868507e-06
 182    1.4966701712754e-05
 183    2.5923691270224e-05
 184    -6.4241996659411e-05
 185    -5.9892465135722e-06
 186    3.9681125170086e-06
 187    6.328648003916e-06
 188    0.00012524818192284
 189    -0.00010198255233732
 190    -8.3154858890246e-05
 191    1.3696120029974e-06
 192    1.8503679385837e-06
 193    -7.7835177564426e-06
 194    -3.0088909922624e-06
 195    -4.8765257906764e-06
 196    -1.382068048421e-05
 197    -1.8404000687082e-05
 198    5.6529400624362e-06
 199     1.98423841812e-06
 200    -3.6363593369292e-06
 201    -1.3835454902921e-05
 202    3.5674860761648e-06
 203     -1.3011128434e-05
 204    1.014189607029e-05
 205    1.1890256178711e-05
 206    7.8003470950728e-06
 207    6.7626613890037e-05
 208    -1.6342334495533e-05
 209    3.9894279227972e-06
 210    1.5599838187198e-05
 211    -2.0766002665965e-05
 212    -3.5603944905229e-05
 213    0.00024932431136639
 214    9.9931878584424e-06
 215    -4.0155160156173e-06
 216    -1.1145625033287e-05
 217    0.00019856715375003
 218    -5.4823191478765e-05
 219    -7.8607242900651e-05
 220    -2.0507645849367e-06
 221    -1.7073111759267e-05
 222    5.778757531552e-06
 223    9.5108790375627e-06
 224    -1.9332654424738e-06
 225    2.4934454515431e-05
 226    5.3612503562614e-05
 227    -1.2223908174255e-05
 228    -1.830392628116e-06
 229    -9.6156566683875e-07
 230    9.520056529253e-06
 231    5.4389587578942e-05
 232    -3.9724485272505e-06
 233    6.269446629035e-06
 234    1.1957178341218e-05
 235     2.23858674902e-06
 236    2.5845206358958e-06
 237    -7.7090703818426e-05
 238    5.3752696810029e-06
 239    3.8658497652006e-06
 240    -6.8668950205028e-06
 241    3.6519728174419e-05
 242    -6.1433916026826e-05
 243    1.6170771127882e-05
 244    1.9302165949482e-06
 245    1.707662522328e-06
 246    -2.151267015105e-06
 247    1.3131218561093e-07
 248    1.119433631336e-06
 249    -2.3165593143341e-05
 250    1.234602053146e-05
 251    -4.3021952788328e-06
 252    -7.0443859837542e-07
 253    -1.7287527391738e-09
 254    -2.1027290439387e-05
 255    5.4270349795758e-05
 256    -2.8725215051797e-07
 257    3.9623155938034e-06
 258    -8.3102664662086e-07
 259    -1.2419729970151e-05
 260    -2.3384828593739e-05
 261    7.9497986642498e-05
 262    -6.7556077684913e-06