[Molden Format]
made by pyscf v[2.0.1]
[Atoms] (AU)
O   1   8     0.00000000000000     0.00000000000000     9.42996968581551
H   2   1     0.00000000000000     0.00000000000000     7.60656786391454
H   3   1    -0.05031916615174     1.78353065140343     9.80584138228218
O   4   8     0.00000000000000     0.00000000000000     2.31533471513237
C   5   6     0.00000000000000     0.00000000000000     0.00000000000000
C   6   6     2.01118073026938    -1.40227222164369    -1.50774939176400
C   7   6    -2.01249334291722     1.41331050329955    -1.50315905028694
H   8   1     3.32037363730244    -2.26721897153159    -0.13599698591495
C   9   6     3.45899267434009     0.28739631745591    -3.37437943254505
H   10   1     1.07662969841332    -2.94725144642667    -2.56541439481080
H   11   1    -2.67503415753480     0.18421555839588    -3.06194479365997
H   12   1    -1.07974048864772     3.03851734677796    -2.43674295017013
C   13   6    -4.21607110578555     2.32938802552922     0.11994162256091
H   14   1     4.24440173074564     1.93368664142019    -2.34976285512790
H   15   1     2.15020713235517     1.04714335134846    -4.81494497423699
C   16   6     5.60746363007797    -1.12419643481196    -4.70268606082550
H   17   1    -3.46838323670267     3.50951302338067     1.66946842715333
H   18   1    -5.11873485366228     0.68575958301209     1.04047743976495
C   19   6    -6.18314754751344     3.80909592987882    -1.39656589068747
H   20   1     6.93011263717176    -1.87550812453645    -3.26656317360070
C   21   6     7.06356622236532     0.52877932406334    -6.57829775293605
H   22   1     4.82318879258361    -2.78573437948532    -5.70504560381835
H   23   1    -6.91582688743803     2.61304780074712    -2.95074552451969
H   24   1    -5.26532430573853     5.45420349051338    -2.31005832200284
C   25   6    -8.39941882261433     4.73263980500213     0.21800571437956
H   26   1     7.83338371486801     2.19084139882824    -5.57093109900697
H   27   1     5.73544244039420     1.27376866537418    -8.01071492370229
C   28   6     9.21124858443101    -0.89699110072176    -7.88926949186242
H   29   1    -7.66272760055236     5.92277078003992     1.77035591474408
H   30   1    -9.31497248082589     3.08753015622020     1.12614408368786
C   31   6   -10.35481709231879     6.21833079391143    -1.30905206253246
H   32   1    10.58815905329501    -1.61074586756696    -6.49512691622620
H   33   1    10.23506248045667     0.32468009384095    -9.23072870921204
H   34   1     8.47665842847139    -2.53598436989925    -8.94921964622535
H   35   1    -9.48948872868064     7.90013588951020    -2.18823918416067
H   36   1   -11.93332513000955     6.86460487874102    -0.11255798845995
H   37   1   -11.15126291841033     5.04495968327630    -2.83849898862534
[GTO]
1 0
 s    8 1.00
                 11720  0.00070964594651845
                  1759  0.0054672722921914
                 400.8   0.027823118610189
                 113.7    0.10474773971146
                 37.03    0.28292084635691
                 13.27    0.44849523869833
                 5.025    0.27081688521277
                 1.013    0.01545029160744
 s    8 1.00
                 11720  -0.00031444341168873
                  1759  -0.0024821376810179
                 400.8  -0.012316355381583
                 113.7  -0.050538917343672
                 37.03   -0.13938490331632
                 13.27   -0.32507749481778
                 5.025   -0.22984830758785
                 1.013     1.0953793467883
 s    1 1.00
                0.3023                   1
 p    3 1.00
                  17.7   0.062679166281506
                 3.854    0.33353656587936
                 1.046    0.74123964163973
 p    1 1.00
                0.2753                   1
 d    1 1.00
                 1.185                   1

2 0
 s    3 1.00
                 13.01   0.033498726389998
                 1.962    0.23480080117413
                0.4446     0.8136829578829
 s    1 1.00
                 0.122                   1
 p    1 1.00
                 0.727                   1

3 0
 s    3 1.00
                 13.01   0.033498726389998
                 1.962    0.23480080117413
                0.4446     0.8136829578829
 s    1 1.00
                 0.122                   1
 p    1 1.00
                 0.727                   1

4 0
 s    8 1.00
                 11720  0.00070964594651845
                  1759  0.0054672722921914
                 400.8   0.027823118610189
                 113.7    0.10474773971146
                 37.03    0.28292084635691
                 13.27    0.44849523869833
                 5.025    0.27081688521277
                 1.013    0.01545029160744
 s    8 1.00
                 11720  -0.00031444341168873
                  1759  -0.0024821376810179
                 400.8  -0.012316355381583
                 113.7  -0.050538917343672
                 37.03   -0.13938490331632
                 13.27   -0.32507749481778
                 5.025   -0.22984830758785
                 1.013     1.0953793467883
 s    1 1.00
                0.3023                   1
 p    3 1.00
                  17.7   0.062679166281506
                 3.854    0.33353656587936
                 1.046    0.74123964163973
 p    1 1.00
                0.2753                   1
 d    1 1.00
                 1.185                   1

5 0
 s    8 1.00
                  6665  0.00069158396281299
                  1000  0.0053257961529341
                   228   0.027060721042034
                 64.71    0.10165684614077
                 21.06     0.2745748236174
                 7.495    0.44829431892377
                 2.797    0.28490261071525
                0.5215   0.015194859206082
 s    8 1.00
                  6665  -0.00029326965268655
                  1000  -0.0023180354739745
                   228  -0.011499786038565
                 64.71  -0.046826727009787
                 21.06   -0.12846616875047
                 7.495   -0.30126627246289
                 2.797   -0.25563070233011
                0.5215      1.093793361012
 s    1 1.00
                0.1596                   1
 p    3 1.00
                 9.439   0.056979251590039
                 2.002    0.31320721150073
                0.5456    0.76037674173753
 p    1 1.00
                0.1517                   1
 d    1 1.00
                  0.55                   1

6 0
 s    8 1.00
                  6665  0.00069158396281299
                  1000  0.0053257961529341
                   228   0.027060721042034
                 64.71    0.10165684614077
                 21.06     0.2745748236174
                 7.495    0.44829431892377
                 2.797    0.28490261071525
                0.5215   0.015194859206082
 s    8 1.00
                  6665  -0.00029326965268655
                  1000  -0.0023180354739745
                   228  -0.011499786038565
                 64.71  -0.046826727009787
                 21.06   -0.12846616875047
                 7.495   -0.30126627246289
                 2.797   -0.25563070233011
                0.5215      1.093793361012
 s    1 1.00
                0.1596                   1
 p    3 1.00
                 9.439   0.056979251590039
                 2.002    0.31320721150073
                0.5456    0.76037674173753
 p    1 1.00
                0.1517                   1
 d    1 1.00
                  0.55                   1

7 0
 s    8 1.00
                  6665  0.00069158396281299
                  1000  0.0053257961529341
                   228   0.027060721042034
                 64.71    0.10165684614077
                 21.06     0.2745748236174
                 7.495    0.44829431892377
                 2.797    0.28490261071525
                0.5215   0.015194859206082
 s    8 1.00
                  6665  -0.00029326965268655
                  1000  -0.0023180354739745
                   228  -0.011499786038565
                 64.71  -0.046826727009787
                 21.06   -0.12846616875047
                 7.495   -0.30126627246289
                 2.797   -0.25563070233011
                0.5215      1.093793361012
 s    1 1.00
                0.1596                   1
 p    3 1.00
                 9.439   0.056979251590039
                 2.002    0.31320721150073
                0.5456    0.76037674173753
 p    1 1.00
                0.1517                   1
 d    1 1.00
                  0.55                   1

8 0
 s    3 1.00
                 13.01   0.033498726389998
                 1.962    0.23480080117413
                0.4446     0.8136829578829
 s    1 1.00
                 0.122                   1
 p    1 1.00
                 0.727                   1

9 0
 s    8 1.00
                  6665  0.00069158396281299
                  1000  0.0053257961529341
                   228   0.027060721042034
                 64.71    0.10165684614077
                 21.06     0.2745748236174
                 7.495    0.44829431892377
                 2.797    0.28490261071525
                0.5215   0.015194859206082
 s    8 1.00
                  6665  -0.00029326965268655
                  1000  -0.0023180354739745
                   228  -0.011499786038565
                 64.71  -0.046826727009787
                 21.06   -0.12846616875047
                 7.495   -0.30126627246289
                 2.797   -0.25563070233011
                0.5215      1.093793361012
 s    1 1.00
                0.1596                   1
 p    3 1.00
                 9.439   0.056979251590039
                 2.002    0.31320721150073
                0.5456    0.76037674173753
 p    1 1.00
                0.1517                   1
 d    1 1.00
                  0.55                   1

10 0
 s    3 1.00
                 13.01   0.033498726389998
                 1.962    0.23480080117413
                0.4446     0.8136829578829
 s    1 1.00
                 0.122                   1
 p    1 1.00
                 0.727                   1

11 0
 s    3 1.00
                 13.01   0.033498726389998
                 1.962    0.23480080117413
                0.4446     0.8136829578829
 s    1 1.00
                 0.122                   1
 p    1 1.00
                 0.727                   1

12 0
 s    3 1.00
                 13.01   0.033498726389998
                 1.962    0.23480080117413
                0.4446     0.8136829578829
 s    1 1.00
                 0.122                   1
 p    1 1.00
                 0.727                   1

13 0
 s    8 1.00
                  6665  0.00069158396281299
                  1000  0.0053257961529341
                   228   0.027060721042034
                 64.71    0.10165684614077
                 21.06     0.2745748236174
                 7.495    0.44829431892377
                 2.797    0.28490261071525
                0.5215   0.015194859206082
 s    8 1.00
                  6665  -0.00029326965268655
                  1000  -0.0023180354739745
                   228  -0.011499786038565
                 64.71  -0.046826727009787
                 21.06   -0.12846616875047
                 7.495   -0.30126627246289
                 2.797   -0.25563070233011
                0.5215      1.093793361012
 s    1 1.00
                0.1596                   1
 p    3 1.00
                 9.439   0.056979251590039
                 2.002    0.31320721150073
                0.5456    0.76037674173753
 p    1 1.00
                0.1517                   1
 d    1 1.00
                  0.55                   1

14 0
 s    3 1.00
                 13.01   0.033498726389998
                 1.962    0.23480080117413
                0.4446     0.8136829578829
 s    1 1.00
                 0.122                   1
 p    1 1.00
                 0.727                   1

15 0
 s    3 1.00
                 13.01   0.033498726389998
                 1.962    0.23480080117413
                0.4446     0.8136829578829
 s    1 1.00
                 0.122                   1
 p    1 1.00
                 0.727                   1

16 0
 s    8 1.00
                  6665  0.00069158396281299
                  1000  0.0053257961529341
                   228   0.027060721042034
                 64.71    0.10165684614077
                 21.06     0.2745748236174
                 7.495    0.44829431892377
                 2.797    0.28490261071525
                0.5215   0.015194859206082
 s    8 1.00
                  6665  -0.00029326965268655
                  1000  -0.0023180354739745
                   228  -0.011499786038565
                 64.71  -0.046826727009787
                 21.06   -0.12846616875047
                 7.495   -0.30126627246289
                 2.797   -0.25563070233011
                0.5215      1.093793361012
 s    1 1.00
                0.1596                   1
 p    3 1.00
                 9.439   0.056979251590039
                 2.002    0.31320721150073
                0.5456    0.76037674173753
 p    1 1.00
                0.1517                   1
 d    1 1.00
                  0.55                   1

17 0
 s    3 1.00
                 13.01   0.033498726389998
                 1.962    0.23480080117413
                0.4446     0.8136829578829
 s    1 1.00
                 0.122                   1
 p    1 1.00
                 0.727                   1

18 0
 s    3 1.00
                 13.01   0.033498726389998
                 1.962    0.23480080117413
                0.4446     0.8136829578829
 s    1 1.00
                 0.122                   1
 p    1 1.00
                 0.727                   1

19 0
 s    8 1.00
                  6665  0.00069158396281299
                  1000  0.0053257961529341
                   228   0.027060721042034
                 64.71    0.10165684614077
                 21.06     0.2745748236174
                 7.495    0.44829431892377
                 2.797    0.28490261071525
                0.5215   0.015194859206082
 s    8 1.00
                  6665  -0.00029326965268655
                  1000  -0.0023180354739745
                   228  -0.011499786038565
                 64.71  -0.046826727009787
                 21.06   -0.12846616875047
                 7.495   -0.30126627246289
                 2.797   -0.25563070233011
                0.5215      1.093793361012
 s    1 1.00
                0.1596                   1
 p    3 1.00
                 9.439   0.056979251590039
                 2.002    0.31320721150073
                0.5456    0.76037674173753
 p    1 1.00
                0.1517                   1
 d    1 1.00
                  0.55                   1

20 0
 s    3 1.00
                 13.01   0.033498726389998
                 1.962    0.23480080117413
                0.4446     0.8136829578829
 s    1 1.00
                 0.122                   1
 p    1 1.00
                 0.727                   1

21 0
 s    8 1.00
                  6665  0.00069158396281299
                  1000  0.0053257961529341
                   228   0.027060721042034
                 64.71    0.10165684614077
                 21.06     0.2745748236174
                 7.495    0.44829431892377
                 2.797    0.28490261071525
                0.5215   0.015194859206082
 s    8 1.00
                  6665  -0.00029326965268655
                  1000  -0.0023180354739745
                   228  -0.011499786038565
                 64.71  -0.046826727009787
                 21.06   -0.12846616875047
                 7.495   -0.30126627246289
                 2.797   -0.25563070233011
                0.5215      1.093793361012
 s    1 1.00
                0.1596                   1
 p    3 1.00
                 9.439   0.056979251590039
                 2.002    0.31320721150073
                0.5456    0.76037674173753
 p    1 1.00
                0.1517                   1
 d    1 1.00
                  0.55                   1

22 0
 s    3 1.00
                 13.01   0.033498726389998
                 1.962    0.23480080117413
                0.4446     0.8136829578829
 s    1 1.00
                 0.122                   1
 p    1 1.00
                 0.727                   1

23 0
 s    3 1.00
                 13.01   0.033498726389998
                 1.962    0.23480080117413
                0.4446     0.8136829578829
 s    1 1.00
                 0.122                   1
 p    1 1.00
                 0.727                   1

24 0
 s    3 1.00
                 13.01   0.033498726389998
                 1.962    0.23480080117413
                0.4446     0.8136829578829
 s    1 1.00
                 0.122                   1
 p    1 1.00
                 0.727                   1

25 0
 s    8 1.00
                  6665  0.00069158396281299
                  1000  0.0053257961529341
                   228   0.027060721042034
                 64.71    0.10165684614077
                 21.06     0.2745748236174
                 7.495    0.44829431892377
                 2.797    0.28490261071525
                0.5215   0.015194859206082
 s    8 1.00
                  6665  -0.00029326965268655
                  1000  -0.0023180354739745
                   228  -0.011499786038565
                 64.71  -0.046826727009787
                 21.06   -0.12846616875047
                 7.495   -0.30126627246289
                 2.797   -0.25563070233011
                0.5215      1.093793361012
 s    1 1.00
                0.1596                   1
 p    3 1.00
                 9.439   0.056979251590039
                 2.002    0.31320721150073
                0.5456    0.76037674173753
 p    1 1.00
                0.1517                   1
 d    1 1.00
                  0.55                   1

26 0
 s    3 1.00
                 13.01   0.033498726389998
                 1.962    0.23480080117413
                0.4446     0.8136829578829
 s    1 1.00
                 0.122                   1
 p    1 1.00
                 0.727                   1

27 0
 s    3 1.00
                 13.01   0.033498726389998
                 1.962    0.23480080117413
                0.4446     0.8136829578829
 s    1 1.00
                 0.122                   1
 p    1 1.00
                 0.727                   1

28 0
 s    8 1.00
                  6665  0.00069158396281299
                  1000  0.0053257961529341
                   228   0.027060721042034
                 64.71    0.10165684614077
                 21.06     0.2745748236174
                 7.495    0.44829431892377
                 2.797    0.28490261071525
                0.5215   0.015194859206082
 s    8 1.00
                  6665  -0.00029326965268655
                  1000  -0.0023180354739745
                   228  -0.011499786038565
                 64.71  -0.046826727009787
                 21.06   -0.12846616875047
                 7.495   -0.30126627246289
                 2.797   -0.25563070233011
                0.5215      1.093793361012
 s    1 1.00
                0.1596                   1
 p    3 1.00
                 9.439   0.056979251590039
                 2.002    0.31320721150073
                0.5456    0.76037674173753
 p    1 1.00
                0.1517                   1
 d    1 1.00
                  0.55                   1

29 0
 s    3 1.00
                 13.01   0.033498726389998
                 1.962    0.23480080117413
                0.4446     0.8136829578829
 s    1 1.00
                 0.122                   1
 p    1 1.00
                 0.727                   1

30 0
 s    3 1.00
                 13.01   0.033498726389998
                 1.962    0.23480080117413
                0.4446     0.8136829578829
 s    1 1.00
                 0.122                   1
 p    1 1.00
                 0.727                   1

31 0
 s    8 1.00
                  6665  0.00069158396281299
                  1000  0.0053257961529341
                   228   0.027060721042034
                 64.71    0.10165684614077
                 21.06     0.2745748236174
                 7.495    0.44829431892377
                 2.797    0.28490261071525
                0.5215   0.015194859206082
 s    8 1.00
                  6665  -0.00029326965268655
                  1000  -0.0023180354739745
                   228  -0.011499786038565
                 64.71  -0.046826727009787
                 21.06   -0.12846616875047
                 7.495   -0.30126627246289
                 2.797   -0.25563070233011
                0.5215      1.093793361012
 s    1 1.00
                0.1596                   1
 p    3 1.00
                 9.439   0.056979251590039
                 2.002    0.31320721150073
                0.5456    0.76037674173753
 p    1 1.00
                0.1517                   1
 d    1 1.00
                  0.55                   1

32 0
 s    3 1.00
                 13.01   0.033498726389998
                 1.962    0.23480080117413
                0.4446     0.8136829578829
 s    1 1.00
                 0.122                   1
 p    1 1.00
                 0.727                   1

33 0
 s    3 1.00
                 13.01   0.033498726389998
                 1.962    0.23480080117413
                0.4446     0.8136829578829
 s    1 1.00
                 0.122                   1
 p    1 1.00
                 0.727                   1

34 0
 s    3 1.00
                 13.01   0.033498726389998
                 1.962    0.23480080117413
                0.4446     0.8136829578829
 s    1 1.00
                 0.122                   1
 p    1 1.00
                 0.727                   1

35 0
 s    3 1.00
                 13.01   0.033498726389998
                 1.962    0.23480080117413
                0.4446     0.8136829578829
 s    1 1.00
                 0.122                   1
 p    1 1.00
                 0.727                   1

36 0
 s    3 1.00
                 13.01   0.033498726389998
                 1.962    0.23480080117413
                0.4446     0.8136829578829
 s    1 1.00
                 0.122                   1
 p    1 1.00
                 0.727                   1

37 0
 s    3 1.00
                 13.01   0.033498726389998
                 1.962    0.23480080117413
                0.4446     0.8136829578829
 s    1 1.00
                 0.122                   1
 p    1 1.00
                 0.727                   1

[5d]
[7f]
[9g]

[MO]
 Sym= A
 Ene=               0
 Spin= Alpha
 Occup=    1.00000
   1    -6.0117103444671e-05
   2    -4.3189710898855e-05
   3    0.0001306692750996
   4    -8.1095954679967e-08
   5    5.4719659915971e-06
   6    8.0042991574097e-06
   7    5.8947055874634e-07
   8    -2.5171514013791e-05
   9    -8.5732309463751e-05
  10    1.1191921248125e-05
  11    -2.093302656953e-08
  12    -6.0137859245648e-07
  13    3.3720392379069e-07
  14    9.3014980392727e-09
  15    -1.6588345262487e-05
  16    -0.00019446747658025
  17    -1.9315215550108e-07
  18    1.7544002647785e-06
  19    -2.2314005210565e-05
  20    -8.0717560055563e-06
  21    6.9479160499916e-05
  22    1.7809554311208e-07
  23    -5.139751557992e-06
  24    2.370268466747e-06
  25       1.0013693621388
  26    0.0019677293176617
  27    -0.0068555756662752
  28    -4.9028020802939e-06
  29    9.1536908814829e-06
  30    -0.0016495660024406
  31    -3.1813457670214e-07
  32    -1.9182251192492e-06
  33    0.0018775418605328
  34    0.00011964178876346
  35    -2.9168724221765e-06
  36    1.4204358668083e-06
  37    6.7166030788609e-05
  38    -0.00017485991977046
  39    0.00028012787227999
  40    0.00038601799084908
  41    0.0014635210276769
  42    1.5617259065554e-05
  43    -1.0052462244629e-05
  44    4.5998464557945e-06
  45    8.1893066410434e-05
  46    -6.4491988508151e-05
  47    0.0036006281670907
  48    -0.00052283754104403
  49    -8.3650695850047e-06
  50    2.526747867403e-06
  51    2.9313607791389e-05
  52    -0.00010876805520351
  53    -8.479963518518e-05
  54    -0.00016577494288159
  55    0.0013775930465305
  56    7.8321337747353e-05
  57    -7.257736796349e-06
  58    -3.5353292911752e-05
  59    -0.00042482793205546
  60    0.00047909089080909
  61    -0.00094623640857916
  62    -0.00011691921660721
  63    0.00014996523235061
  64    -0.00014305241556263
  65    5.4704484661787e-05
  66    -0.00012875518939867
  67    -3.9544539315476e-05
  68    -9.6877380237328e-05
  69    0.00051487622085639
  70    -6.1659493163108e-05
  71    4.0567066176898e-05
  72    -6.2231458312045e-05
  73    0.0010070606929186
  74    -0.00077443923225207
  75    -0.00064728036179877
  76    -0.00014030031406658
  77    -0.00012100436946138
  78    8.9753723845372e-05
  79    5.8658427732305e-05
  80    -0.00015093346150489
  81    -6.2413843740495e-05
  82    0.00021067030397021
  83    6.6402986386359e-05
  84    -4.8795251413622e-05
  85    4.8286645708326e-05
  86    2.5057411693074e-05
  87    4.8900374400748e-05
  88    -0.00061302399408139
  89    -1.5988340406512e-05
  90    -1.704642249362e-05
  91    1.188930298422e-05
  92    0.00025866338110804
  93    0.00063512027686298
  94    -1.5663558863321e-05
  95    1.8435327173784e-05
  96    1.1312343867587e-05
  97    7.5838390722338e-06
  98    -2.0142599155837e-05
  99    -4.673984331812e-05
 100    -3.8742505813157e-05
 101    -0.00016093912974348
 102    8.1468354250026e-06
 103    -1.0174575637201e-05
 104    7.5548453601107e-05
 105    -1.849802064616e-05
 106    -0.00020318922799102
 107    -6.4187648902685e-05
 108    9.934726482557e-06
 109    7.5265346324178e-05
 110    7.7639453057188e-05
 111    -6.2026516641192e-05
 112    -4.4946163253529e-05
 113    1.9129664291561e-05
 114    7.0298980819571e-05
 115    -4.8977867194476e-05
 116    -9.9888522402582e-05
 117    0.00084500281494285
 118    -2.5070854457492e-05
 119    -1.0761310145705e-05
 120    3.2754215062352e-05
 121    0.00029010190777156
 122    3.2611668395205e-05
 123    -0.00014572044297104
 124    -6.4574841414468e-06
 125    1.1756713673688e-05
 126    1.5271104885188e-05
 127    -3.2026946525096e-05
 128    5.0050409817345e-05
 129    -1.9445807986508e-05
 130    -0.00032788415379996
 131    7.7373987890436e-06
 132    5.9289485829903e-06
 133    2.9379226917595e-05
 134     2.58240813172e-05
 135    -0.00011776024748069
 136    -1.3595741056045e-05
 137    -2.4565485400136e-05
 138    -2.6919368687926e-05
 139    -2.1500409267203e-05
 140    -3.8838421877313e-05
 141    0.00029493599791463
 142    8.2297196345395e-06
 143    -2.4220271723713e-06
 144    -6.5275113537642e-06
 145    -0.00023032277795087
 146    5.5100322468379e-05
 147    6.1922283845828e-05
 148    -2.4697333374136e-06
 149    3.1754213515804e-06
 150    -3.9187346076752e-06
 151    1.2194176291772e-05
 152    -4.8753145729396e-06
 153    -9.6867046728019e-05
 154    -0.00010441297354788
 155    -2.6326842423718e-05
 156    2.8857606767644e-05
 157    1.9607847449275e-05
 158    -2.5808012272568e-05
 159    -8.8348800510347e-05
 160    -5.9158915550004e-05
 161    -7.1630589469088e-06
 162    6.4973737640322e-06
 163    -1.6153878644193e-06
 164    -2.8471901466038e-06
 165    -0.00024742153872501
 166    -2.1149289692268e-05
 167    1.5460419365003e-05
 168    9.1996238964545e-06
 169    0.00023368562732551
 170    -0.0002102072164204
 171    -0.00013408402032254
 172    -2.7326222897524e-06
 173    9.9215950142129e-06
 174    -1.3459893505261e-05
 175    3.2983230053145e-06
 176    -1.8160369957079e-05
 177    -1.6071417161593e-05
 178    8.4840535193841e-05
 179    -9.3851049216581e-07
 180    1.8588402361166e-06
 181    -4.8868129078798e-06
 182    1.5542764529149e-05
 183    2.6899229831022e-05
 184    -7.1173309539852e-05
 185    -5.8786183942984e-06
 186    4.1517223628253e-06
 187    6.2377954457323e-06
 188    0.00012787976329561
 189    -0.00010179742360388
 190    -8.6777698134426e-05
 191    1.3333990763909e-06
 192    2.0343414024249e-06
 193    -7.733444654679e-06
 194    -2.9778550603194e-06
 195    -5.1785751254729e-06
 196    -1.351367611622e-05
 197    -1.8904016584848e-05
 198     5.66823354908e-06
 199    1.9562200669105e-06
 200    -3.4296445876417e-06
 201    -1.3430219798401e-05
 202    2.4452180437696e-06
 203    -1.3244562519432e-05
 204    9.9575079531833e-06
 205    1.184929109702e-05
 206    8.041761358877e-06
 207    6.7350908577065e-05
 208    -1.6174502519788e-05
 209    3.9361899550152e-06
 210    1.5763743838536e-05
 211    -2.1278803997278e-05
 212    -3.6332605377748e-05
 213    0.00025698255734584
 214    1.0466133249461e-05
 215    -4.0387643985661e-06
 216    -1.1188175520854e-05
 217    0.00019749744217214
 218    -5.4057217363011e-05
 219    -8.0020862372454e-05
 220    -2.0791157471125e-06
 221    -1.6949707268792e-05
 222    5.7922109627157e-06
 223    9.5759845508736e-06
 224    -2.0133807670055e-06
 225    2.5615855267753e-05
 226    5.4925427000253e-05
 227    -1.2415532756402e-05
 228    -1.9657679302566e-06
 229    -9.4455490887359e-07
 230    9.8124086711967e-06
 231    5.4315007762658e-05
 232    -4.0576404548915e-06
 233    6.3828389590269e-06
 234    1.2062502667392e-05
 235    2.2895751328089e-06
 236    2.7194837656486e-06
 237    -7.7682057259583e-05
 238    5.3921324039971e-06
 239    3.9880037911451e-06
 240    -6.9145989947593e-06
 241    3.7220200853078e-05
 242    -6.2132739256168e-05
 243    1.6439871921208e-05
 244    1.9851946121876e-06
 245    1.7564999971255e-06
 246    -2.1412010147522e-06
 247    1.2109361582624e-07
 248    1.1301531476605e-06
 249    -2.3006370317568e-05
 250    1.0211393689321e-05
 251    -4.1971087164066e-06
 252    -5.5940485887811e-07
 253    2.1538322583348e-07
 254    -2.1498753434022e-05
 255    5.4021201139176e-05
 256    -1.0522722104119e-07
 257    3.8578481747713e-06
 258    -7.663385105912e-07
 259    -1.2020624868861e-05
 260    -2.2691898598367e-05
 261    7.4899270159084e-05
 262    -6.8291488970078e-06