[Molden Format]
made by pyscf v[2.0.1]
[Atoms] (AU)
O   1   8     0.00000000000000     0.00000000000000     9.05202446090250
H   2   1     0.00000000000000     0.00000000000000     7.22862263900153
H   3   1    -0.05031916615174     1.78353065140343     9.42789615736916
O   4   8     0.00000000000000     0.00000000000000     2.31533471513237
C   5   6     0.00000000000000     0.00000000000000     0.00000000000000
C   6   6     2.01118073026938    -1.40227222164369    -1.50774939176400
C   7   6    -2.01249334291722     1.41331050329955    -1.50315905028694
H   8   1     3.32037363730244    -2.26721897153159    -0.13599698591495
C   9   6     3.45899267434009     0.28739631745591    -3.37437943254505
H   10   1     1.07662969841332    -2.94725144642667    -2.56541439481080
H   11   1    -2.67503415753480     0.18421555839588    -3.06194479365997
H   12   1    -1.07974048864772     3.03851734677796    -2.43674295017013
C   13   6    -4.21607110578555     2.32938802552922     0.11994162256091
H   14   1     4.24440173074564     1.93368664142019    -2.34976285512790
H   15   1     2.15020713235517     1.04714335134846    -4.81494497423699
C   16   6     5.60746363007797    -1.12419643481196    -4.70268606082550
H   17   1    -3.46838323670267     3.50951302338067     1.66946842715333
H   18   1    -5.11873485366228     0.68575958301209     1.04047743976495
C   19   6    -6.18314754751344     3.80909592987882    -1.39656589068747
H   20   1     6.93011263717176    -1.87550812453645    -3.26656317360070
C   21   6     7.06356622236532     0.52877932406334    -6.57829775293605
H   22   1     4.82318879258361    -2.78573437948532    -5.70504560381835
H   23   1    -6.91582688743803     2.61304780074712    -2.95074552451969
H   24   1    -5.26532430573853     5.45420349051338    -2.31005832200284
C   25   6    -8.39941882261433     4.73263980500213     0.21800571437956
H   26   1     7.83338371486801     2.19084139882824    -5.57093109900697
H   27   1     5.73544244039420     1.27376866537418    -8.01071492370229
C   28   6     9.21124858443101    -0.89699110072176    -7.88926949186242
H   29   1    -7.66272760055236     5.92277078003992     1.77035591474408
H   30   1    -9.31497248082589     3.08753015622020     1.12614408368786
C   31   6   -10.35481709231879     6.21833079391143    -1.30905206253246
H   32   1    10.58815905329501    -1.61074586756696    -6.49512691622620
H   33   1    10.23506248045667     0.32468009384095    -9.23072870921204
H   34   1     8.47665842847139    -2.53598436989925    -8.94921964622535
H   35   1    -9.48948872868064     7.90013588951020    -2.18823918416067
H   36   1   -11.93332513000955     6.86460487874102    -0.11255798845995
H   37   1   -11.15126291841033     5.04495968327630    -2.83849898862534
[GTO]
1 0
 s    8 1.00
                 11720  0.00070964594651845
                  1759  0.0054672722921914
                 400.8   0.027823118610189
                 113.7    0.10474773971146
                 37.03    0.28292084635691
                 13.27    0.44849523869833
                 5.025    0.27081688521277
                 1.013    0.01545029160744
 s    8 1.00
                 11720  -0.00031444341168873
                  1759  -0.0024821376810179
                 400.8  -0.012316355381583
                 113.7  -0.050538917343672
                 37.03   -0.13938490331632
                 13.27   -0.32507749481778
                 5.025   -0.22984830758785
                 1.013     1.0953793467883
 s    1 1.00
                0.3023                   1
 p    3 1.00
                  17.7   0.062679166281506
                 3.854    0.33353656587936
                 1.046    0.74123964163973
 p    1 1.00
                0.2753                   1
 d    1 1.00
                 1.185                   1

2 0
 s    3 1.00
                 13.01   0.033498726389998
                 1.962    0.23480080117413
                0.4446     0.8136829578829
 s    1 1.00
                 0.122                   1
 p    1 1.00
                 0.727                   1

3 0
 s    3 1.00
                 13.01   0.033498726389998
                 1.962    0.23480080117413
                0.4446     0.8136829578829
 s    1 1.00
                 0.122                   1
 p    1 1.00
                 0.727                   1

4 0
 s    8 1.00
                 11720  0.00070964594651845
                  1759  0.0054672722921914
                 400.8   0.027823118610189
                 113.7    0.10474773971146
                 37.03    0.28292084635691
                 13.27    0.44849523869833
                 5.025    0.27081688521277
                 1.013    0.01545029160744
 s    8 1.00
                 11720  -0.00031444341168873
                  1759  -0.0024821376810179
                 400.8  -0.012316355381583
                 113.7  -0.050538917343672
                 37.03   -0.13938490331632
                 13.27   -0.32507749481778
                 5.025   -0.22984830758785
                 1.013     1.0953793467883
 s    1 1.00
                0.3023                   1
 p    3 1.00
                  17.7   0.062679166281506
                 3.854    0.33353656587936
                 1.046    0.74123964163973
 p    1 1.00
                0.2753                   1
 d    1 1.00
                 1.185                   1

5 0
 s    8 1.00
                  6665  0.00069158396281299
                  1000  0.0053257961529341
                   228   0.027060721042034
                 64.71    0.10165684614077
                 21.06     0.2745748236174
                 7.495    0.44829431892377
                 2.797    0.28490261071525
                0.5215   0.015194859206082
 s    8 1.00
                  6665  -0.00029326965268655
                  1000  -0.0023180354739745
                   228  -0.011499786038565
                 64.71  -0.046826727009787
                 21.06   -0.12846616875047
                 7.495   -0.30126627246289
                 2.797   -0.25563070233011
                0.5215      1.093793361012
 s    1 1.00
                0.1596                   1
 p    3 1.00
                 9.439   0.056979251590039
                 2.002    0.31320721150073
                0.5456    0.76037674173753
 p    1 1.00
                0.1517                   1
 d    1 1.00
                  0.55                   1

6 0
 s    8 1.00
                  6665  0.00069158396281299
                  1000  0.0053257961529341
                   228   0.027060721042034
                 64.71    0.10165684614077
                 21.06     0.2745748236174
                 7.495    0.44829431892377
                 2.797    0.28490261071525
                0.5215   0.015194859206082
 s    8 1.00
                  6665  -0.00029326965268655
                  1000  -0.0023180354739745
                   228  -0.011499786038565
                 64.71  -0.046826727009787
                 21.06   -0.12846616875047
                 7.495   -0.30126627246289
                 2.797   -0.25563070233011
                0.5215      1.093793361012
 s    1 1.00
                0.1596                   1
 p    3 1.00
                 9.439   0.056979251590039
                 2.002    0.31320721150073
                0.5456    0.76037674173753
 p    1 1.00
                0.1517                   1
 d    1 1.00
                  0.55                   1

7 0
 s    8 1.00
                  6665  0.00069158396281299
                  1000  0.0053257961529341
                   228   0.027060721042034
                 64.71    0.10165684614077
                 21.06     0.2745748236174
                 7.495    0.44829431892377
                 2.797    0.28490261071525
                0.5215   0.015194859206082
 s    8 1.00
                  6665  -0.00029326965268655
                  1000  -0.0023180354739745
                   228  -0.011499786038565
                 64.71  -0.046826727009787
                 21.06   -0.12846616875047
                 7.495   -0.30126627246289
                 2.797   -0.25563070233011
                0.5215      1.093793361012
 s    1 1.00
                0.1596                   1
 p    3 1.00
                 9.439   0.056979251590039
                 2.002    0.31320721150073
                0.5456    0.76037674173753
 p    1 1.00
                0.1517                   1
 d    1 1.00
                  0.55                   1

8 0
 s    3 1.00
                 13.01   0.033498726389998
                 1.962    0.23480080117413
                0.4446     0.8136829578829
 s    1 1.00
                 0.122                   1
 p    1 1.00
                 0.727                   1

9 0
 s    8 1.00
                  6665  0.00069158396281299
                  1000  0.0053257961529341
                   228   0.027060721042034
                 64.71    0.10165684614077
                 21.06     0.2745748236174
                 7.495    0.44829431892377
                 2.797    0.28490261071525
                0.5215   0.015194859206082
 s    8 1.00
                  6665  -0.00029326965268655
                  1000  -0.0023180354739745
                   228  -0.011499786038565
                 64.71  -0.046826727009787
                 21.06   -0.12846616875047
                 7.495   -0.30126627246289
                 2.797   -0.25563070233011
                0.5215      1.093793361012
 s    1 1.00
                0.1596                   1
 p    3 1.00
                 9.439   0.056979251590039
                 2.002    0.31320721150073
                0.5456    0.76037674173753
 p    1 1.00
                0.1517                   1
 d    1 1.00
                  0.55                   1

10 0
 s    3 1.00
                 13.01   0.033498726389998
                 1.962    0.23480080117413
                0.4446     0.8136829578829
 s    1 1.00
                 0.122                   1
 p    1 1.00
                 0.727                   1

11 0
 s    3 1.00
                 13.01   0.033498726389998
                 1.962    0.23480080117413
                0.4446     0.8136829578829
 s    1 1.00
                 0.122                   1
 p    1 1.00
                 0.727                   1

12 0
 s    3 1.00
                 13.01   0.033498726389998
                 1.962    0.23480080117413
                0.4446     0.8136829578829
 s    1 1.00
                 0.122                   1
 p    1 1.00
                 0.727                   1

13 0
 s    8 1.00
                  6665  0.00069158396281299
                  1000  0.0053257961529341
                   228   0.027060721042034
                 64.71    0.10165684614077
                 21.06     0.2745748236174
                 7.495    0.44829431892377
                 2.797    0.28490261071525
                0.5215   0.015194859206082
 s    8 1.00
                  6665  -0.00029326965268655
                  1000  -0.0023180354739745
                   228  -0.011499786038565
                 64.71  -0.046826727009787
                 21.06   -0.12846616875047
                 7.495   -0.30126627246289
                 2.797   -0.25563070233011
                0.5215      1.093793361012
 s    1 1.00
                0.1596                   1
 p    3 1.00
                 9.439   0.056979251590039
                 2.002    0.31320721150073
                0.5456    0.76037674173753
 p    1 1.00
                0.1517                   1
 d    1 1.00
                  0.55                   1

14 0
 s    3 1.00
                 13.01   0.033498726389998
                 1.962    0.23480080117413
                0.4446     0.8136829578829
 s    1 1.00
                 0.122                   1
 p    1 1.00
                 0.727                   1

15 0
 s    3 1.00
                 13.01   0.033498726389998
                 1.962    0.23480080117413
                0.4446     0.8136829578829
 s    1 1.00
                 0.122                   1
 p    1 1.00
                 0.727                   1

16 0
 s    8 1.00
                  6665  0.00069158396281299
                  1000  0.0053257961529341
                   228   0.027060721042034
                 64.71    0.10165684614077
                 21.06     0.2745748236174
                 7.495    0.44829431892377
                 2.797    0.28490261071525
                0.5215   0.015194859206082
 s    8 1.00
                  6665  -0.00029326965268655
                  1000  -0.0023180354739745
                   228  -0.011499786038565
                 64.71  -0.046826727009787
                 21.06   -0.12846616875047
                 7.495   -0.30126627246289
                 2.797   -0.25563070233011
                0.5215      1.093793361012
 s    1 1.00
                0.1596                   1
 p    3 1.00
                 9.439   0.056979251590039
                 2.002    0.31320721150073
                0.5456    0.76037674173753
 p    1 1.00
                0.1517                   1
 d    1 1.00
                  0.55                   1

17 0
 s    3 1.00
                 13.01   0.033498726389998
                 1.962    0.23480080117413
                0.4446     0.8136829578829
 s    1 1.00
                 0.122                   1
 p    1 1.00
                 0.727                   1

18 0
 s    3 1.00
                 13.01   0.033498726389998
                 1.962    0.23480080117413
                0.4446     0.8136829578829
 s    1 1.00
                 0.122                   1
 p    1 1.00
                 0.727                   1

19 0
 s    8 1.00
                  6665  0.00069158396281299
                  1000  0.0053257961529341
                   228   0.027060721042034
                 64.71    0.10165684614077
                 21.06     0.2745748236174
                 7.495    0.44829431892377
                 2.797    0.28490261071525
                0.5215   0.015194859206082
 s    8 1.00
                  6665  -0.00029326965268655
                  1000  -0.0023180354739745
                   228  -0.011499786038565
                 64.71  -0.046826727009787
                 21.06   -0.12846616875047
                 7.495   -0.30126627246289
                 2.797   -0.25563070233011
                0.5215      1.093793361012
 s    1 1.00
                0.1596                   1
 p    3 1.00
                 9.439   0.056979251590039
                 2.002    0.31320721150073
                0.5456    0.76037674173753
 p    1 1.00
                0.1517                   1
 d    1 1.00
                  0.55                   1

20 0
 s    3 1.00
                 13.01   0.033498726389998
                 1.962    0.23480080117413
                0.4446     0.8136829578829
 s    1 1.00
                 0.122                   1
 p    1 1.00
                 0.727                   1

21 0
 s    8 1.00
                  6665  0.00069158396281299
                  1000  0.0053257961529341
                   228   0.027060721042034
                 64.71    0.10165684614077
                 21.06     0.2745748236174
                 7.495    0.44829431892377
                 2.797    0.28490261071525
                0.5215   0.015194859206082
 s    8 1.00
                  6665  -0.00029326965268655
                  1000  -0.0023180354739745
                   228  -0.011499786038565
                 64.71  -0.046826727009787
                 21.06   -0.12846616875047
                 7.495   -0.30126627246289
                 2.797   -0.25563070233011
                0.5215      1.093793361012
 s    1 1.00
                0.1596                   1
 p    3 1.00
                 9.439   0.056979251590039
                 2.002    0.31320721150073
                0.5456    0.76037674173753
 p    1 1.00
                0.1517                   1
 d    1 1.00
                  0.55                   1

22 0
 s    3 1.00
                 13.01   0.033498726389998
                 1.962    0.23480080117413
                0.4446     0.8136829578829
 s    1 1.00
                 0.122                   1
 p    1 1.00
                 0.727                   1

23 0
 s    3 1.00
                 13.01   0.033498726389998
                 1.962    0.23480080117413
                0.4446     0.8136829578829
 s    1 1.00
                 0.122                   1
 p    1 1.00
                 0.727                   1

24 0
 s    3 1.00
                 13.01   0.033498726389998
                 1.962    0.23480080117413
                0.4446     0.8136829578829
 s    1 1.00
                 0.122                   1
 p    1 1.00
                 0.727                   1

25 0
 s    8 1.00
                  6665  0.00069158396281299
                  1000  0.0053257961529341
                   228   0.027060721042034
                 64.71    0.10165684614077
                 21.06     0.2745748236174
                 7.495    0.44829431892377
                 2.797    0.28490261071525
                0.5215   0.015194859206082
 s    8 1.00
                  6665  -0.00029326965268655
                  1000  -0.0023180354739745
                   228  -0.011499786038565
                 64.71  -0.046826727009787
                 21.06   -0.12846616875047
                 7.495   -0.30126627246289
                 2.797   -0.25563070233011
                0.5215      1.093793361012
 s    1 1.00
                0.1596                   1
 p    3 1.00
                 9.439   0.056979251590039
                 2.002    0.31320721150073
                0.5456    0.76037674173753
 p    1 1.00
                0.1517                   1
 d    1 1.00
                  0.55                   1

26 0
 s    3 1.00
                 13.01   0.033498726389998
                 1.962    0.23480080117413
                0.4446     0.8136829578829
 s    1 1.00
                 0.122                   1
 p    1 1.00
                 0.727                   1

27 0
 s    3 1.00
                 13.01   0.033498726389998
                 1.962    0.23480080117413
                0.4446     0.8136829578829
 s    1 1.00
                 0.122                   1
 p    1 1.00
                 0.727                   1

28 0
 s    8 1.00
                  6665  0.00069158396281299
                  1000  0.0053257961529341
                   228   0.027060721042034
                 64.71    0.10165684614077
                 21.06     0.2745748236174
                 7.495    0.44829431892377
                 2.797    0.28490261071525
                0.5215   0.015194859206082
 s    8 1.00
                  6665  -0.00029326965268655
                  1000  -0.0023180354739745
                   228  -0.011499786038565
                 64.71  -0.046826727009787
                 21.06   -0.12846616875047
                 7.495   -0.30126627246289
                 2.797   -0.25563070233011
                0.5215      1.093793361012
 s    1 1.00
                0.1596                   1
 p    3 1.00
                 9.439   0.056979251590039
                 2.002    0.31320721150073
                0.5456    0.76037674173753
 p    1 1.00
                0.1517                   1
 d    1 1.00
                  0.55                   1

29 0
 s    3 1.00
                 13.01   0.033498726389998
                 1.962    0.23480080117413
                0.4446     0.8136829578829
 s    1 1.00
                 0.122                   1
 p    1 1.00
                 0.727                   1

30 0
 s    3 1.00
                 13.01   0.033498726389998
                 1.962    0.23480080117413
                0.4446     0.8136829578829
 s    1 1.00
                 0.122                   1
 p    1 1.00
                 0.727                   1

31 0
 s    8 1.00
                  6665  0.00069158396281299
                  1000  0.0053257961529341
                   228   0.027060721042034
                 64.71    0.10165684614077
                 21.06     0.2745748236174
                 7.495    0.44829431892377
                 2.797    0.28490261071525
                0.5215   0.015194859206082
 s    8 1.00
                  6665  -0.00029326965268655
                  1000  -0.0023180354739745
                   228  -0.011499786038565
                 64.71  -0.046826727009787
                 21.06   -0.12846616875047
                 7.495   -0.30126627246289
                 2.797   -0.25563070233011
                0.5215      1.093793361012
 s    1 1.00
                0.1596                   1
 p    3 1.00
                 9.439   0.056979251590039
                 2.002    0.31320721150073
                0.5456    0.76037674173753
 p    1 1.00
                0.1517                   1
 d    1 1.00
                  0.55                   1

32 0
 s    3 1.00
                 13.01   0.033498726389998
                 1.962    0.23480080117413
                0.4446     0.8136829578829
 s    1 1.00
                 0.122                   1
 p    1 1.00
                 0.727                   1

33 0
 s    3 1.00
                 13.01   0.033498726389998
                 1.962    0.23480080117413
                0.4446     0.8136829578829
 s    1 1.00
                 0.122                   1
 p    1 1.00
                 0.727                   1

34 0
 s    3 1.00
                 13.01   0.033498726389998
                 1.962    0.23480080117413
                0.4446     0.8136829578829
 s    1 1.00
                 0.122                   1
 p    1 1.00
                 0.727                   1

35 0
 s    3 1.00
                 13.01   0.033498726389998
                 1.962    0.23480080117413
                0.4446     0.8136829578829
 s    1 1.00
                 0.122                   1
 p    1 1.00
                 0.727                   1

36 0
 s    3 1.00
                 13.01   0.033498726389998
                 1.962    0.23480080117413
                0.4446     0.8136829578829
 s    1 1.00
                 0.122                   1
 p    1 1.00
                 0.727                   1

37 0
 s    3 1.00
                 13.01   0.033498726389998
                 1.962    0.23480080117413
                0.4446     0.8136829578829
 s    1 1.00
                 0.122                   1
 p    1 1.00
                 0.727                   1

[5d]
[7f]
[9g]

[MO]
 Sym= A
 Ene=               0
 Spin= Alpha
 Occup=    1.00000
   1    -6.6965244880973e-05
   2    -4.9373867715194e-05
   3    0.00013429159262908
   4    -4.7719795030889e-08
   5    5.8865620017628e-06
   6    1.2736913356156e-05
   7    5.3716122354302e-07
   8    -2.6026501053064e-05
   9    -8.2510396186596e-05
  10    7.7856012979314e-06
  11    -5.2722591848551e-08
  12    -2.1929732313863e-07
  13    3.7544848164364e-07
  14    6.1149724433317e-09
  15    -1.7390825774431e-05
  16    -0.00020845880153478
  17    -2.8484921985402e-07
  18     1.98961328471e-06
  19    -4.1781436418578e-06
  20    -7.4632504145603e-06
  21    7.0188531743725e-05
  22    1.6524701300493e-07
  23    -4.0261921975397e-06
  24    1.4630310930748e-06
  25        1.001373087269
  26    0.0019761975638634
  27    -0.0068883312725527
  28    -5.0123019013914e-06
  29    9.7494101566991e-06
  30    -0.0016458059763989
  31    -3.3416928572241e-07
  32    -2.2612410575688e-06
  33    0.0019043954038803
  34    0.00011612122626191
  35    -2.8800061483955e-06
  36    1.4555321979567e-06
  37    6.6941674823363e-05
  38    -0.00017425327461482
  39    0.00028345875177798
  40    0.00039311722431333
  41    0.0014886867934485
  42    1.5814990489272e-05
  43    -1.0062521454165e-05
  44    1.1576703487688e-05
  45    8.2354046188515e-05
  46    -6.5132617839484e-05
  47    0.0036274567512996
  48    -0.00051660368926817
  49    -8.3142765636364e-06
  50    2.5719106358501e-06
  51    2.9580759741609e-05
  52    -0.00010946644391184
  53    -8.4662306549646e-05
  54    -0.00016551856657859
  55    0.0013815071997977
  56    7.8424590505879e-05
  57    -7.2004217764708e-06
  58    -3.497564683558e-05
  59    -0.00042597839667287
  60    0.0004804343498816
  61    -0.00095629525664618
  62    -0.00011659148390085
  63    0.00014986958101247
  64    -0.00014313697289117
  65    5.4517067871184e-05
  66    -0.00012810867174318
  67    -3.9192565394383e-05
  68    -9.6249011349121e-05
  69    0.00051722566424052
  70    -6.1891360228176e-05
  71    4.0828503144142e-05
  72    -6.2039546405929e-05
  73     0.001010735988726
  74    -0.00077704255750644
  75    -0.00065241535156293
  76    -0.0001399595214731
  77    -0.00012112745354585
  78    8.9772316832686e-05
  79    5.8517194694631e-05
  80    -0.00015049340996336
  81    -6.128255196332e-05
  82    0.00021288388172922
  83    6.6603579883423e-05
  84    -4.8937954237621e-05
  85    4.7905858179389e-05
  86    2.5072262271558e-05
  87    4.8913410036347e-05
  88    -0.00061685790954005
  89    -1.5944136249584e-05
  90    -1.7083045096912e-05
  91    1.1706819977389e-05
  92    0.00025989792951748
  93    0.00064020972092108
  94    -1.4134124266231e-05
  95    1.8628645460369e-05
  96    1.1393356369048e-05
  97     7.74851099417e-06
  98    -1.9904791029585e-05
  99    -4.730078472587e-05
 100    -3.9530107027857e-05
 101    -0.00016243825394629
 102    7.6042038679762e-06
 103    -1.0363703011023e-05
 104    7.6124668223825e-05
 105    -1.8862104733834e-05
 106    -0.00020449418411172
 107    -6.4089004975899e-05
 108    9.3481978968117e-06
 109    7.5624293245835e-05
 110    7.7808648870395e-05
 111    -6.3446632366776e-05
 112    -4.4682564863874e-05
 113    1.9459549935697e-05
 114    7.067547697359e-05
 115    -4.8646822662355e-05
 116    -9.9264899768899e-05
 117    0.00084718050910752
 118    -2.4736114688196e-05
 119    -1.1017733373889e-05
 120    3.2643499137875e-05
 121    0.00028793146353093
 122    3.4104213408621e-05
 123    -0.0001492828926146
 124    -6.3881434890641e-06
 125    1.1445541595988e-05
 126    1.5119805132441e-05
 127    -3.2062414625189e-05
 128    5.0298155796136e-05
 129    -1.9672350071063e-05
 130    -0.0003308902314679
 131    7.8531298932022e-06
 132    5.9585268593573e-06
 133    2.9471771521851e-05
 134    2.5804886968869e-05
 135    -0.00011751607495311
 136    -1.3659046979043e-05
 137    -2.4801690024391e-05
 138    -2.7105914622593e-05
 139    -2.1676664198217e-05
 140    -3.9150828415224e-05
 141    0.00029853635384981
 142    8.1985567990908e-06
 143    -2.5073717898479e-06
 144    -6.5021273010006e-06
 145    -0.00023086503551235
 146    5.6505899550139e-05
 147    6.1104060110792e-05
 148    -2.5102723639768e-06
 149    3.2202183694784e-06
 150    -4.1166550347959e-06
 151     1.23449137616e-05
 152    -4.8493561477232e-06
 153    -9.7050860725612e-05
 154    -0.00010145621345715
 155    -2.6490026897373e-05
 156    2.8515608293695e-05
 157    1.9384953200755e-05
 158    -2.587082295068e-05
 159    -8.7671140350593e-05
 160    -5.9110835612399e-05
 161    -7.2034992543644e-06
 162    6.5914282681598e-06
 163    -1.34479077409e-06
 164    -2.359090451726e-06
 165    -0.00025154345606325
 166    -2.1231502119833e-05
 167    1.5477725361868e-05
 168    9.2801054996552e-06
 169    0.00023305243429443
 170    -0.00020968865615922
 171    -0.00013560380307191
 172    -2.651198591213e-06
 173    9.9347115164562e-06
 174    -1.3462084123887e-05
 175    3.2706522056297e-06
 176    -1.8110220682842e-05
 177    -1.6170047387834e-05
 178    8.5401446403507e-05
 179    -1.0106528027713e-06
 180    1.7973106834837e-06
 181    -4.8365712665399e-06
 182    1.5737369621131e-05
 183    2.7228378350714e-05
 184    -7.3508853945328e-05
 185    -5.839556900748e-06
 186    4.2143526809269e-06
 187    6.2061475596506e-06
 188    0.00012876143856868
 189    -0.00010177201675053
 190    -8.7944390822476e-05
 191    1.3244566250286e-06
 192    2.0940062855853e-06
 193    -7.7220791711304e-06
 194    -2.9685676730794e-06
 195    -5.2789973120092e-06
 196    -1.3426443900516e-05
 197    -1.9095914711358e-05
 198    5.6759185243165e-06
 199    1.9499455970961e-06
 200    -3.3648011143422e-06
 201    -1.3369862896397e-05
 202    2.0644803743263e-06
 203    -1.3326603165325e-05
 204    9.923909289958e-06
 205    1.184832430511e-05
 206    8.1299156650306e-06
 207    6.7426630479536e-05
 208    -1.6154168095971e-05
 209    3.9335573455209e-06
 210    1.5831960923247e-05
 211    -2.1437187664848e-05
 212    -3.65578143491e-05
 213    0.00025942152334185
 214    1.0626924092613e-05
 215    -4.0761775420503e-06
 216    -1.1202675249497e-05
 217    0.0001971928208585
 218    -5.3674015911383e-05
 219    -8.0574787950271e-05
 220    -2.0936221467591e-06
 221    -1.6924688383873e-05
 222    5.7896500737169e-06
 223    9.6048766005217e-06
 224    -2.0352851075229e-06
 225    2.5847356843994e-05
 226    5.5383428487721e-05
 227    -1.2481329940387e-05
 228    -2.0126895365009e-06
 229    -9.4231285002201e-07
 230    9.9113442364371e-06
 231    5.4351261039258e-05
 232    -4.0845172411627e-06
 233    6.4194316131894e-06
 234    1.2104912874991e-05
 235    2.3057799648286e-06
 236    2.7626585925423e-06
 237    -7.7876651473382e-05
 238    5.3957753344823e-06
 239    4.0304481040555e-06
 240    -6.932646940995e-06
 241    3.7444102950795e-05
 242    -6.2364944232264e-05
 243    1.6535806306999e-05
 244    2.0023007934877e-06
 245    1.7729937750361e-06
 246    -2.1375956430262e-06
 247    1.1813770738449e-07
 248    1.1308259708988e-06
 249    -2.2977127877561e-05
 250    9.6189297301393e-06
 251    -4.1585682594969e-06
 252    -5.3857519720765e-07
 253    2.8334888954317e-07
 254    -2.1610412284704e-05
 255    5.3997910006534e-05
 256    -4.4275421711665e-08
 257    3.8239770958449e-06
 258    -7.386121585747e-07
 259    -1.1919056754956e-05
 260    -2.2523092782758e-05
 261    7.3476026720285e-05
 262    -6.8754267243861e-06