[Molden Format]
made by pyscf v[2.0.1]
[Atoms] (AU)
O   1   8     0.00000000000000     0.00000000000000     8.29613401107647
H   2   1     0.00000000000000     0.00000000000000     6.47273218917551
H   3   1    -0.05031916615174     1.78353065140343     8.67200570754314
O   4   8     0.00000000000000     0.00000000000000     2.31533471513237
C   5   6     0.00000000000000     0.00000000000000     0.00000000000000
C   6   6     2.01118073026938    -1.40227222164369    -1.50774939176400
C   7   6    -2.01249334291722     1.41331050329955    -1.50315905028694
H   8   1     3.32037363730244    -2.26721897153159    -0.13599698591495
C   9   6     3.45899267434009     0.28739631745591    -3.37437943254505
H   10   1     1.07662969841332    -2.94725144642667    -2.56541439481080
H   11   1    -2.67503415753480     0.18421555839588    -3.06194479365997
H   12   1    -1.07974048864772     3.03851734677796    -2.43674295017013
C   13   6    -4.21607110578555     2.32938802552922     0.11994162256091
H   14   1     4.24440173074564     1.93368664142019    -2.34976285512790
H   15   1     2.15020713235517     1.04714335134846    -4.81494497423699
C   16   6     5.60746363007797    -1.12419643481196    -4.70268606082550
H   17   1    -3.46838323670267     3.50951302338067     1.66946842715333
H   18   1    -5.11873485366228     0.68575958301209     1.04047743976495
C   19   6    -6.18314754751344     3.80909592987882    -1.39656589068747
H   20   1     6.93011263717176    -1.87550812453645    -3.26656317360070
C   21   6     7.06356622236532     0.52877932406334    -6.57829775293605
H   22   1     4.82318879258361    -2.78573437948532    -5.70504560381835
H   23   1    -6.91582688743803     2.61304780074712    -2.95074552451969
H   24   1    -5.26532430573853     5.45420349051338    -2.31005832200284
C   25   6    -8.39941882261433     4.73263980500213     0.21800571437956
H   26   1     7.83338371486801     2.19084139882824    -5.57093109900697
H   27   1     5.73544244039420     1.27376866537418    -8.01071492370229
C   28   6     9.21124858443101    -0.89699110072176    -7.88926949186242
H   29   1    -7.66272760055236     5.92277078003992     1.77035591474408
H   30   1    -9.31497248082589     3.08753015622020     1.12614408368786
C   31   6   -10.35481709231879     6.21833079391143    -1.30905206253246
H   32   1    10.58815905329501    -1.61074586756696    -6.49512691622620
H   33   1    10.23506248045667     0.32468009384095    -9.23072870921204
H   34   1     8.47665842847139    -2.53598436989925    -8.94921964622535
H   35   1    -9.48948872868064     7.90013588951020    -2.18823918416067
H   36   1   -11.93332513000955     6.86460487874102    -0.11255798845995
H   37   1   -11.15126291841033     5.04495968327630    -2.83849898862534
[GTO]
1 0
 s    8 1.00
                 11720  0.00070964594651845
                  1759  0.0054672722921914
                 400.8   0.027823118610189
                 113.7    0.10474773971146
                 37.03    0.28292084635691
                 13.27    0.44849523869833
                 5.025    0.27081688521277
                 1.013    0.01545029160744
 s    8 1.00
                 11720  -0.00031444341168873
                  1759  -0.0024821376810179
                 400.8  -0.012316355381583
                 113.7  -0.050538917343672
                 37.03   -0.13938490331632
                 13.27   -0.32507749481778
                 5.025   -0.22984830758785
                 1.013     1.0953793467883
 s    1 1.00
                0.3023                   1
 p    3 1.00
                  17.7   0.062679166281506
                 3.854    0.33353656587936
                 1.046    0.74123964163973
 p    1 1.00
                0.2753                   1
 d    1 1.00
                 1.185                   1

2 0
 s    3 1.00
                 13.01   0.033498726389998
                 1.962    0.23480080117413
                0.4446     0.8136829578829
 s    1 1.00
                 0.122                   1
 p    1 1.00
                 0.727                   1

3 0
 s    3 1.00
                 13.01   0.033498726389998
                 1.962    0.23480080117413
                0.4446     0.8136829578829
 s    1 1.00
                 0.122                   1
 p    1 1.00
                 0.727                   1

4 0
 s    8 1.00
                 11720  0.00070964594651845
                  1759  0.0054672722921914
                 400.8   0.027823118610189
                 113.7    0.10474773971146
                 37.03    0.28292084635691
                 13.27    0.44849523869833
                 5.025    0.27081688521277
                 1.013    0.01545029160744
 s    8 1.00
                 11720  -0.00031444341168873
                  1759  -0.0024821376810179
                 400.8  -0.012316355381583
                 113.7  -0.050538917343672
                 37.03   -0.13938490331632
                 13.27   -0.32507749481778
                 5.025   -0.22984830758785
                 1.013     1.0953793467883
 s    1 1.00
                0.3023                   1
 p    3 1.00
                  17.7   0.062679166281506
                 3.854    0.33353656587936
                 1.046    0.74123964163973
 p    1 1.00
                0.2753                   1
 d    1 1.00
                 1.185                   1

5 0
 s    8 1.00
                  6665  0.00069158396281299
                  1000  0.0053257961529341
                   228   0.027060721042034
                 64.71    0.10165684614077
                 21.06     0.2745748236174
                 7.495    0.44829431892377
                 2.797    0.28490261071525
                0.5215   0.015194859206082
 s    8 1.00
                  6665  -0.00029326965268655
                  1000  -0.0023180354739745
                   228  -0.011499786038565
                 64.71  -0.046826727009787
                 21.06   -0.12846616875047
                 7.495   -0.30126627246289
                 2.797   -0.25563070233011
                0.5215      1.093793361012
 s    1 1.00
                0.1596                   1
 p    3 1.00
                 9.439   0.056979251590039
                 2.002    0.31320721150073
                0.5456    0.76037674173753
 p    1 1.00
                0.1517                   1
 d    1 1.00
                  0.55                   1

6 0
 s    8 1.00
                  6665  0.00069158396281299
                  1000  0.0053257961529341
                   228   0.027060721042034
                 64.71    0.10165684614077
                 21.06     0.2745748236174
                 7.495    0.44829431892377
                 2.797    0.28490261071525
                0.5215   0.015194859206082
 s    8 1.00
                  6665  -0.00029326965268655
                  1000  -0.0023180354739745
                   228  -0.011499786038565
                 64.71  -0.046826727009787
                 21.06   -0.12846616875047
                 7.495   -0.30126627246289
                 2.797   -0.25563070233011
                0.5215      1.093793361012
 s    1 1.00
                0.1596                   1
 p    3 1.00
                 9.439   0.056979251590039
                 2.002    0.31320721150073
                0.5456    0.76037674173753
 p    1 1.00
                0.1517                   1
 d    1 1.00
                  0.55                   1

7 0
 s    8 1.00
                  6665  0.00069158396281299
                  1000  0.0053257961529341
                   228   0.027060721042034
                 64.71    0.10165684614077
                 21.06     0.2745748236174
                 7.495    0.44829431892377
                 2.797    0.28490261071525
                0.5215   0.015194859206082
 s    8 1.00
                  6665  -0.00029326965268655
                  1000  -0.0023180354739745
                   228  -0.011499786038565
                 64.71  -0.046826727009787
                 21.06   -0.12846616875047
                 7.495   -0.30126627246289
                 2.797   -0.25563070233011
                0.5215      1.093793361012
 s    1 1.00
                0.1596                   1
 p    3 1.00
                 9.439   0.056979251590039
                 2.002    0.31320721150073
                0.5456    0.76037674173753
 p    1 1.00
                0.1517                   1
 d    1 1.00
                  0.55                   1

8 0
 s    3 1.00
                 13.01   0.033498726389998
                 1.962    0.23480080117413
                0.4446     0.8136829578829
 s    1 1.00
                 0.122                   1
 p    1 1.00
                 0.727                   1

9 0
 s    8 1.00
                  6665  0.00069158396281299
                  1000  0.0053257961529341
                   228   0.027060721042034
                 64.71    0.10165684614077
                 21.06     0.2745748236174
                 7.495    0.44829431892377
                 2.797    0.28490261071525
                0.5215   0.015194859206082
 s    8 1.00
                  6665  -0.00029326965268655
                  1000  -0.0023180354739745
                   228  -0.011499786038565
                 64.71  -0.046826727009787
                 21.06   -0.12846616875047
                 7.495   -0.30126627246289
                 2.797   -0.25563070233011
                0.5215      1.093793361012
 s    1 1.00
                0.1596                   1
 p    3 1.00
                 9.439   0.056979251590039
                 2.002    0.31320721150073
                0.5456    0.76037674173753
 p    1 1.00
                0.1517                   1
 d    1 1.00
                  0.55                   1

10 0
 s    3 1.00
                 13.01   0.033498726389998
                 1.962    0.23480080117413
                0.4446     0.8136829578829
 s    1 1.00
                 0.122                   1
 p    1 1.00
                 0.727                   1

11 0
 s    3 1.00
                 13.01   0.033498726389998
                 1.962    0.23480080117413
                0.4446     0.8136829578829
 s    1 1.00
                 0.122                   1
 p    1 1.00
                 0.727                   1

12 0
 s    3 1.00
                 13.01   0.033498726389998
                 1.962    0.23480080117413
                0.4446     0.8136829578829
 s    1 1.00
                 0.122                   1
 p    1 1.00
                 0.727                   1

13 0
 s    8 1.00
                  6665  0.00069158396281299
                  1000  0.0053257961529341
                   228   0.027060721042034
                 64.71    0.10165684614077
                 21.06     0.2745748236174
                 7.495    0.44829431892377
                 2.797    0.28490261071525
                0.5215   0.015194859206082
 s    8 1.00
                  6665  -0.00029326965268655
                  1000  -0.0023180354739745
                   228  -0.011499786038565
                 64.71  -0.046826727009787
                 21.06   -0.12846616875047
                 7.495   -0.30126627246289
                 2.797   -0.25563070233011
                0.5215      1.093793361012
 s    1 1.00
                0.1596                   1
 p    3 1.00
                 9.439   0.056979251590039
                 2.002    0.31320721150073
                0.5456    0.76037674173753
 p    1 1.00
                0.1517                   1
 d    1 1.00
                  0.55                   1

14 0
 s    3 1.00
                 13.01   0.033498726389998
                 1.962    0.23480080117413
                0.4446     0.8136829578829
 s    1 1.00
                 0.122                   1
 p    1 1.00
                 0.727                   1

15 0
 s    3 1.00
                 13.01   0.033498726389998
                 1.962    0.23480080117413
                0.4446     0.8136829578829
 s    1 1.00
                 0.122                   1
 p    1 1.00
                 0.727                   1

16 0
 s    8 1.00
                  6665  0.00069158396281299
                  1000  0.0053257961529341
                   228   0.027060721042034
                 64.71    0.10165684614077
                 21.06     0.2745748236174
                 7.495    0.44829431892377
                 2.797    0.28490261071525
                0.5215   0.015194859206082
 s    8 1.00
                  6665  -0.00029326965268655
                  1000  -0.0023180354739745
                   228  -0.011499786038565
                 64.71  -0.046826727009787
                 21.06   -0.12846616875047
                 7.495   -0.30126627246289
                 2.797   -0.25563070233011
                0.5215      1.093793361012
 s    1 1.00
                0.1596                   1
 p    3 1.00
                 9.439   0.056979251590039
                 2.002    0.31320721150073
                0.5456    0.76037674173753
 p    1 1.00
                0.1517                   1
 d    1 1.00
                  0.55                   1

17 0
 s    3 1.00
                 13.01   0.033498726389998
                 1.962    0.23480080117413
                0.4446     0.8136829578829
 s    1 1.00
                 0.122                   1
 p    1 1.00
                 0.727                   1

18 0
 s    3 1.00
                 13.01   0.033498726389998
                 1.962    0.23480080117413
                0.4446     0.8136829578829
 s    1 1.00
                 0.122                   1
 p    1 1.00
                 0.727                   1

19 0
 s    8 1.00
                  6665  0.00069158396281299
                  1000  0.0053257961529341
                   228   0.027060721042034
                 64.71    0.10165684614077
                 21.06     0.2745748236174
                 7.495    0.44829431892377
                 2.797    0.28490261071525
                0.5215   0.015194859206082
 s    8 1.00
                  6665  -0.00029326965268655
                  1000  -0.0023180354739745
                   228  -0.011499786038565
                 64.71  -0.046826727009787
                 21.06   -0.12846616875047
                 7.495   -0.30126627246289
                 2.797   -0.25563070233011
                0.5215      1.093793361012
 s    1 1.00
                0.1596                   1
 p    3 1.00
                 9.439   0.056979251590039
                 2.002    0.31320721150073
                0.5456    0.76037674173753
 p    1 1.00
                0.1517                   1
 d    1 1.00
                  0.55                   1

20 0
 s    3 1.00
                 13.01   0.033498726389998
                 1.962    0.23480080117413
                0.4446     0.8136829578829
 s    1 1.00
                 0.122                   1
 p    1 1.00
                 0.727                   1

21 0
 s    8 1.00
                  6665  0.00069158396281299
                  1000  0.0053257961529341
                   228   0.027060721042034
                 64.71    0.10165684614077
                 21.06     0.2745748236174
                 7.495    0.44829431892377
                 2.797    0.28490261071525
                0.5215   0.015194859206082
 s    8 1.00
                  6665  -0.00029326965268655
                  1000  -0.0023180354739745
                   228  -0.011499786038565
                 64.71  -0.046826727009787
                 21.06   -0.12846616875047
                 7.495   -0.30126627246289
                 2.797   -0.25563070233011
                0.5215      1.093793361012
 s    1 1.00
                0.1596                   1
 p    3 1.00
                 9.439   0.056979251590039
                 2.002    0.31320721150073
                0.5456    0.76037674173753
 p    1 1.00
                0.1517                   1
 d    1 1.00
                  0.55                   1

22 0
 s    3 1.00
                 13.01   0.033498726389998
                 1.962    0.23480080117413
                0.4446     0.8136829578829
 s    1 1.00
                 0.122                   1
 p    1 1.00
                 0.727                   1

23 0
 s    3 1.00
                 13.01   0.033498726389998
                 1.962    0.23480080117413
                0.4446     0.8136829578829
 s    1 1.00
                 0.122                   1
 p    1 1.00
                 0.727                   1

24 0
 s    3 1.00
                 13.01   0.033498726389998
                 1.962    0.23480080117413
                0.4446     0.8136829578829
 s    1 1.00
                 0.122                   1
 p    1 1.00
                 0.727                   1

25 0
 s    8 1.00
                  6665  0.00069158396281299
                  1000  0.0053257961529341
                   228   0.027060721042034
                 64.71    0.10165684614077
                 21.06     0.2745748236174
                 7.495    0.44829431892377
                 2.797    0.28490261071525
                0.5215   0.015194859206082
 s    8 1.00
                  6665  -0.00029326965268655
                  1000  -0.0023180354739745
                   228  -0.011499786038565
                 64.71  -0.046826727009787
                 21.06   -0.12846616875047
                 7.495   -0.30126627246289
                 2.797   -0.25563070233011
                0.5215      1.093793361012
 s    1 1.00
                0.1596                   1
 p    3 1.00
                 9.439   0.056979251590039
                 2.002    0.31320721150073
                0.5456    0.76037674173753
 p    1 1.00
                0.1517                   1
 d    1 1.00
                  0.55                   1

26 0
 s    3 1.00
                 13.01   0.033498726389998
                 1.962    0.23480080117413
                0.4446     0.8136829578829
 s    1 1.00
                 0.122                   1
 p    1 1.00
                 0.727                   1

27 0
 s    3 1.00
                 13.01   0.033498726389998
                 1.962    0.23480080117413
                0.4446     0.8136829578829
 s    1 1.00
                 0.122                   1
 p    1 1.00
                 0.727                   1

28 0
 s    8 1.00
                  6665  0.00069158396281299
                  1000  0.0053257961529341
                   228   0.027060721042034
                 64.71    0.10165684614077
                 21.06     0.2745748236174
                 7.495    0.44829431892377
                 2.797    0.28490261071525
                0.5215   0.015194859206082
 s    8 1.00
                  6665  -0.00029326965268655
                  1000  -0.0023180354739745
                   228  -0.011499786038565
                 64.71  -0.046826727009787
                 21.06   -0.12846616875047
                 7.495   -0.30126627246289
                 2.797   -0.25563070233011
                0.5215      1.093793361012
 s    1 1.00
                0.1596                   1
 p    3 1.00
                 9.439   0.056979251590039
                 2.002    0.31320721150073
                0.5456    0.76037674173753
 p    1 1.00
                0.1517                   1
 d    1 1.00
                  0.55                   1

29 0
 s    3 1.00
                 13.01   0.033498726389998
                 1.962    0.23480080117413
                0.4446     0.8136829578829
 s    1 1.00
                 0.122                   1
 p    1 1.00
                 0.727                   1

30 0
 s    3 1.00
                 13.01   0.033498726389998
                 1.962    0.23480080117413
                0.4446     0.8136829578829
 s    1 1.00
                 0.122                   1
 p    1 1.00
                 0.727                   1

31 0
 s    8 1.00
                  6665  0.00069158396281299
                  1000  0.0053257961529341
                   228   0.027060721042034
                 64.71    0.10165684614077
                 21.06     0.2745748236174
                 7.495    0.44829431892377
                 2.797    0.28490261071525
                0.5215   0.015194859206082
 s    8 1.00
                  6665  -0.00029326965268655
                  1000  -0.0023180354739745
                   228  -0.011499786038565
                 64.71  -0.046826727009787
                 21.06   -0.12846616875047
                 7.495   -0.30126627246289
                 2.797   -0.25563070233011
                0.5215      1.093793361012
 s    1 1.00
                0.1596                   1
 p    3 1.00
                 9.439   0.056979251590039
                 2.002    0.31320721150073
                0.5456    0.76037674173753
 p    1 1.00
                0.1517                   1
 d    1 1.00
                  0.55                   1

32 0
 s    3 1.00
                 13.01   0.033498726389998
                 1.962    0.23480080117413
                0.4446     0.8136829578829
 s    1 1.00
                 0.122                   1
 p    1 1.00
                 0.727                   1

33 0
 s    3 1.00
                 13.01   0.033498726389998
                 1.962    0.23480080117413
                0.4446     0.8136829578829
 s    1 1.00
                 0.122                   1
 p    1 1.00
                 0.727                   1

34 0
 s    3 1.00
                 13.01   0.033498726389998
                 1.962    0.23480080117413
                0.4446     0.8136829578829
 s    1 1.00
                 0.122                   1
 p    1 1.00
                 0.727                   1

35 0
 s    3 1.00
                 13.01   0.033498726389998
                 1.962    0.23480080117413
                0.4446     0.8136829578829
 s    1 1.00
                 0.122                   1
 p    1 1.00
                 0.727                   1

36 0
 s    3 1.00
                 13.01   0.033498726389998
                 1.962    0.23480080117413
                0.4446     0.8136829578829
 s    1 1.00
                 0.122                   1
 p    1 1.00
                 0.727                   1

37 0
 s    3 1.00
                 13.01   0.033498726389998
                 1.962    0.23480080117413
                0.4446     0.8136829578829
 s    1 1.00
                 0.122                   1
 p    1 1.00
                 0.727                   1

[5d]
[7f]
[9g]

[MO]
 Sym= A
 Ene=               0
 Spin= Alpha
 Occup=    1.00000
   1    -7.0189409410402e-05
   2    -5.1289441638441e-05
   3    0.00013383946360726
   4    1.238420956381e-07
   5    5.7256236142457e-06
   6    1.3642102223765e-05
   7    2.1434344273487e-07
   8    -2.5185265194789e-05
   9    -6.3899204093282e-05
  10    3.4912077106816e-06
  11    -1.5640012557422e-07
  12    1.0924406388149e-06
  13    8.7983824182741e-07
  14    1.736611330656e-08
  15    -3.5533087252533e-05
  16    -0.00022317186332014
  17    -5.9173110014007e-07
  18    2.5205443025334e-06
  19    2.3053783321447e-05
  20    -3.185592704977e-06
  21    6.1137366492065e-05
  22    1.4426144270529e-07
  23    -1.0087235901065e-06
  24    -2.6581020397506e-06
  25       1.0013822789787
  26    0.0019988610897331
  27    -0.0069639861028191
  28    -5.2745126271731e-06
  29    1.1372280977797e-05
  30    -0.0016355880915931
  31    -3.530680600147e-07
  32    -3.1789127980943e-06
  33    0.0019721491535409
  34    0.00010817353935057
  35    -2.796771916819e-06
  36    1.5165324085498e-06
  37    6.6238907852296e-05
  38    -0.00017240384187122
  39    0.00029132745822305
  40    0.00040985181329624
  41    0.0015526796845698
  42    1.6249123167871e-05
  43    -1.0100404060683e-05
  44    2.8395646994365e-05
  45    8.3518449340492e-05
  46    -6.6386145827904e-05
  47    0.0036922015305566
  48    -0.00050166093288045
  49    -8.2100168765419e-06
  50    2.672843030356e-06
  51    3.024175598876e-05
  52    -0.00011127411602333
  53    -8.4242784551107e-05
  54    -0.0001647621917032
  55    0.0013893501548176
  56    7.8719722272417e-05
  57    -7.0962727466006e-06
  58    -3.4180588253258e-05
  59    -0.00042839816921739
  60    0.00048320095584573
  61    -0.00097979978774401
  62    -0.00011582211305988
  63    0.00014977068479186
  64    -0.00014340508382694
  65    5.4098702954926e-05
  66    -0.0001266289053629
  67    -3.8242843116648e-05
  68    -9.4590507514029e-05
  69    0.00052043150211183
  70    -6.2459286718296e-05
  71    4.1497580729037e-05
  72    -6.1674694313779e-05
  73    0.0010193652221792
  74    -0.00078351820040337
  75    -0.00066545824869049
  76    -0.00013920069053072
  77    -0.00012145076658323
  78    8.9806050305021e-05
  79    5.8225857916431e-05
  80    -0.00014947529788262
  81    -5.8774195459052e-05
  82    0.0002182227430459
  83    6.7112284681073e-05
  84    -4.9281161778558e-05
  85    4.7027964662558e-05
  86    2.5031080340108e-05
  87    4.8822226357729e-05
  88    -0.00062458577637026
  89    -1.585169826773e-05
  90    -1.717581039004e-05
  91    1.1345373058353e-05
  92    0.00026261993795207
  93    0.00065160830039989
  94    -1.0996442227182e-05
  95    1.9087081579501e-05
  96    1.1542177007649e-05
  97    8.0943469445026e-06
  98    -1.9305539903759e-05
  99    -4.8662290000097e-05
 100    -4.120501783529e-05
 101    -0.00016596563259443
 102    6.3041816389295e-06
 103    -1.0763916994393e-05
 104    7.7470504927713e-05
 105    -1.9612635046398e-05
 106    -0.0002074295549129
 107    -6.3838397513054e-05
 108    7.9934949069852e-06
 109    7.6580396797948e-05
 110    7.838535641293e-05
 111    -6.6537952149891e-05
 112    -4.4065954275371e-05
 113    2.0212591340527e-05
 114    7.1616663870516e-05
 115    -4.8232480502364e-05
 116    -9.8449289784589e-05
 117    0.00085585455067727
 118    -2.4010573215822e-05
 119    -1.1602287150459e-05
 120    3.2382379377199e-05
 121    0.00028448256477771
 122    3.8022890533612e-05
 123    -0.00015636180928011
 124    -6.1303058854681e-06
 125    1.074746173767e-05
 126    1.496021934772e-05
 127    -3.223119116062e-05
 128    5.1038442734104e-05
 129    -2.0087652848486e-05
 130    -0.00033780690223418
 131    8.1191580877134e-06
 132    6.0065671330859e-06
 133    2.9685346884774e-05
 134    2.563295618808e-05
 135    -0.00011718884274454
 136    -1.383702951898e-05
 137    -2.5315194405438e-05
 138    -2.7521441412063e-05
 139    -2.2039127701051e-05
 140    -3.9799287938241e-05
 141    0.0003062482537808
 142    8.1246012629897e-06
 143    -2.7304354214405e-06
 144    -6.4621901964402e-06
 145    -0.00023152935522095
 146    5.9700815570573e-05
 147    5.9230974986827e-05
 148    -2.5852741996083e-06
 149    3.358465019253e-06
 150    -4.5966284944063e-06
 151    1.2675526211125e-05
 152    -4.7638335427761e-06
 153    -9.7846112407197e-05
 154    -9.6908946787192e-05
 155    -2.6697696370883e-05
 156    2.7953349955917e-05
 157    1.9246983430025e-05
 158    -2.6126452838308e-05
 159    -8.6437531969528e-05
 160    -5.9122985678839e-05
 161    -7.4127774105448e-06
 162    6.7892269388074e-06
 163    -7.1366434792702e-07
 164    -1.2216715590197e-06
 165    -0.0002611318504477
 166    -2.140558860801e-05
 167    1.5540847708543e-05
 168    9.4644073960857e-06
 169    0.00023153748267456
 170    -0.00020909564839449
 171    -0.00013907540933818
 172    -2.4778836767723e-06
 173    9.9667812400675e-06
 174    -1.3504247117763e-05
 175    3.1808289403091e-06
 176    -1.8045623693375e-05
 177    -1.6428274265194e-05
 178    8.6540487855588e-05
 179    -1.1881132667217e-06
 180    1.6421975044006e-06
 181    -4.7027434308845e-06
 182    1.6185530066612e-05
 183    2.7986795574545e-05
 184    -7.8907516430885e-05
 185    -5.7394912250675e-06
 186    4.361299051327e-06
 187    6.1362921961406e-06
 188    0.00013067677176155
 189    -0.00010178906154155
 190    -9.0752272057886e-05
 191    1.2925449145907e-06
 192    2.2254207996094e-06
 193    -7.6915825157775e-06
 194    -2.9419635041091e-06
 195    -5.5054414268366e-06
 196    -1.3139753302554e-05
 197    -1.9459405408226e-05
 198    5.6816472101684e-06
 199    1.9419452194984e-06
 200    -3.220649391671e-06
 201    -1.3246221583441e-05
 202    1.1640619461651e-06
 203    -1.3484611258656e-05
 204    9.8639663904331e-06
 205    1.1866935971383e-05
 206    8.4229390331835e-06
 207    6.7900944637559e-05
 208    -1.6125697417108e-05
 209    3.9269519258074e-06
 210    1.6011229518296e-05
 211    -2.1767846533538e-05
 212    -3.7027266905246e-05
 213    0.00026463142505026
 214    1.0959446240829e-05
 215    -4.1710856313819e-06
 216    -1.1269380728942e-05
 217    0.00019685951911508
 218    -5.2794606002021e-05
 219    -8.2017332789567e-05
 220    -2.1354376728415e-06
 221    -1.6918860325685e-05
 222    5.7809160375813e-06
 223    9.6911449048966e-06
 224    -2.0864633413943e-06
 225    2.6404041742987e-05
 226    5.6534189476578e-05
 227    -1.2632413770134e-05
 228    -2.1287039031828e-06
 229    -9.3709965605642e-07
 230    1.0119220050804e-05
 231    5.4416286862747e-05
 232    -4.1458753954312e-06
 233    6.5052435311481e-06
 234    1.2213357979797e-05
 235    2.3571997633939e-06
 236    2.8904531991205e-06
 237    -7.8401884980941e-05
 238    5.3952762607923e-06
 239    4.1198867361231e-06
 240    -6.9693208306711e-06
 241    3.8064370757089e-05
 242    -6.2842505511409e-05
 243    1.671883134663e-05
 244    2.0432617002135e-06
 245    1.8159743680029e-06
 246    -2.1224835851805e-06
 247    1.0017252328784e-07
 248    1.1346952675537e-06
 249    -2.2969457266711e-05
 250    8.6613614662204e-06
 251    -4.0773031104136e-06
 252    -5.4360038920858e-07
 253    4.0472658070196e-07
 254    -2.1829687836736e-05
 255    5.4169451115811e-05
 256    9.5051660811552e-08
 257    3.766994935437e-06
 258    -6.7851074322073e-07
 259    -1.1702566166198e-05
 260    -2.2156670087873e-05
 261    7.0538076954325e-05
 262    -6.9609385228013e-06