[Molden Format]
made by pyscf v[2.0.1]
[Atoms] (AU)
O   1   8     0.00000000000000     0.00000000000000    10.94175058546756
H   2   1     0.00000000000000     0.00000000000000     9.11834876356659
H   3   1    -0.05031916615174     1.78353065140343    11.31762228193423
O   4   8     0.00000000000000     0.00000000000000     2.31533471513237
C   5   6     0.00000000000000     0.00000000000000     0.00000000000000
C   6   6     2.01118073026938    -1.40227222164369    -1.50774939176400
C   7   6    -2.01249334291722     1.41331050329955    -1.50315905028694
H   8   1     3.32037363730244    -2.26721897153159    -0.13599698591495
C   9   6     3.45899267434009     0.28739631745591    -3.37437943254505
H   10   1     1.07662969841332    -2.94725144642667    -2.56541439481080
H   11   1    -2.67503415753480     0.18421555839588    -3.06194479365997
H   12   1    -1.07974048864772     3.03851734677796    -2.43674295017013
C   13   6    -4.21607110578555     2.32938802552922     0.11994162256091
H   14   1     4.24440173074564     1.93368664142019    -2.34976285512790
H   15   1     2.15020713235517     1.04714335134846    -4.81494497423699
C   16   6     5.60746363007797    -1.12419643481196    -4.70268606082550
H   17   1    -3.46838323670267     3.50951302338067     1.66946842715333
H   18   1    -5.11873485366228     0.68575958301209     1.04047743976495
C   19   6    -6.18314754751344     3.80909592987882    -1.39656589068747
H   20   1     6.93011263717176    -1.87550812453645    -3.26656317360070
C   21   6     7.06356622236532     0.52877932406334    -6.57829775293605
H   22   1     4.82318879258361    -2.78573437948532    -5.70504560381835
H   23   1    -6.91582688743803     2.61304780074712    -2.95074552451969
H   24   1    -5.26532430573853     5.45420349051338    -2.31005832200284
C   25   6    -8.39941882261433     4.73263980500213     0.21800571437956
H   26   1     7.83338371486801     2.19084139882824    -5.57093109900697
H   27   1     5.73544244039420     1.27376866537418    -8.01071492370229
C   28   6     9.21124858443101    -0.89699110072176    -7.88926949186242
H   29   1    -7.66272760055236     5.92277078003992     1.77035591474408
H   30   1    -9.31497248082589     3.08753015622020     1.12614408368786
C   31   6   -10.35481709231879     6.21833079391143    -1.30905206253246
H   32   1    10.58815905329501    -1.61074586756696    -6.49512691622620
H   33   1    10.23506248045667     0.32468009384095    -9.23072870921204
H   34   1     8.47665842847139    -2.53598436989925    -8.94921964622535
H   35   1    -9.48948872868064     7.90013588951020    -2.18823918416067
H   36   1   -11.93332513000955     6.86460487874102    -0.11255798845995
H   37   1   -11.15126291841033     5.04495968327630    -2.83849898862534
[GTO]
1 0
 s    8 1.00
                 11720  0.00070964594651845
                  1759  0.0054672722921914
                 400.8   0.027823118610189
                 113.7    0.10474773971146
                 37.03    0.28292084635691
                 13.27    0.44849523869833
                 5.025    0.27081688521277
                 1.013    0.01545029160744
 s    8 1.00
                 11720  -0.00031444341168873
                  1759  -0.0024821376810179
                 400.8  -0.012316355381583
                 113.7  -0.050538917343672
                 37.03   -0.13938490331632
                 13.27   -0.32507749481778
                 5.025   -0.22984830758785
                 1.013     1.0953793467883
 s    1 1.00
                0.3023                   1
 p    3 1.00
                  17.7   0.062679166281506
                 3.854    0.33353656587936
                 1.046    0.74123964163973
 p    1 1.00
                0.2753                   1
 d    1 1.00
                 1.185                   1

2 0
 s    3 1.00
                 13.01   0.033498726389998
                 1.962    0.23480080117413
                0.4446     0.8136829578829
 s    1 1.00
                 0.122                   1
 p    1 1.00
                 0.727                   1

3 0
 s    3 1.00
                 13.01   0.033498726389998
                 1.962    0.23480080117413
                0.4446     0.8136829578829
 s    1 1.00
                 0.122                   1
 p    1 1.00
                 0.727                   1

4 0
 s    8 1.00
                 11720  0.00070964594651845
                  1759  0.0054672722921914
                 400.8   0.027823118610189
                 113.7    0.10474773971146
                 37.03    0.28292084635691
                 13.27    0.44849523869833
                 5.025    0.27081688521277
                 1.013    0.01545029160744
 s    8 1.00
                 11720  -0.00031444341168873
                  1759  -0.0024821376810179
                 400.8  -0.012316355381583
                 113.7  -0.050538917343672
                 37.03   -0.13938490331632
                 13.27   -0.32507749481778
                 5.025   -0.22984830758785
                 1.013     1.0953793467883
 s    1 1.00
                0.3023                   1
 p    3 1.00
                  17.7   0.062679166281506
                 3.854    0.33353656587936
                 1.046    0.74123964163973
 p    1 1.00
                0.2753                   1
 d    1 1.00
                 1.185                   1

5 0
 s    8 1.00
                  6665  0.00069158396281299
                  1000  0.0053257961529341
                   228   0.027060721042034
                 64.71    0.10165684614077
                 21.06     0.2745748236174
                 7.495    0.44829431892377
                 2.797    0.28490261071525
                0.5215   0.015194859206082
 s    8 1.00
                  6665  -0.00029326965268655
                  1000  -0.0023180354739745
                   228  -0.011499786038565
                 64.71  -0.046826727009787
                 21.06   -0.12846616875047
                 7.495   -0.30126627246289
                 2.797   -0.25563070233011
                0.5215      1.093793361012
 s    1 1.00
                0.1596                   1
 p    3 1.00
                 9.439   0.056979251590039
                 2.002    0.31320721150073
                0.5456    0.76037674173753
 p    1 1.00
                0.1517                   1
 d    1 1.00
                  0.55                   1

6 0
 s    8 1.00
                  6665  0.00069158396281299
                  1000  0.0053257961529341
                   228   0.027060721042034
                 64.71    0.10165684614077
                 21.06     0.2745748236174
                 7.495    0.44829431892377
                 2.797    0.28490261071525
                0.5215   0.015194859206082
 s    8 1.00
                  6665  -0.00029326965268655
                  1000  -0.0023180354739745
                   228  -0.011499786038565
                 64.71  -0.046826727009787
                 21.06   -0.12846616875047
                 7.495   -0.30126627246289
                 2.797   -0.25563070233011
                0.5215      1.093793361012
 s    1 1.00
                0.1596                   1
 p    3 1.00
                 9.439   0.056979251590039
                 2.002    0.31320721150073
                0.5456    0.76037674173753
 p    1 1.00
                0.1517                   1
 d    1 1.00
                  0.55                   1

7 0
 s    8 1.00
                  6665  0.00069158396281299
                  1000  0.0053257961529341
                   228   0.027060721042034
                 64.71    0.10165684614077
                 21.06     0.2745748236174
                 7.495    0.44829431892377
                 2.797    0.28490261071525
                0.5215   0.015194859206082
 s    8 1.00
                  6665  -0.00029326965268655
                  1000  -0.0023180354739745
                   228  -0.011499786038565
                 64.71  -0.046826727009787
                 21.06   -0.12846616875047
                 7.495   -0.30126627246289
                 2.797   -0.25563070233011
                0.5215      1.093793361012
 s    1 1.00
                0.1596                   1
 p    3 1.00
                 9.439   0.056979251590039
                 2.002    0.31320721150073
                0.5456    0.76037674173753
 p    1 1.00
                0.1517                   1
 d    1 1.00
                  0.55                   1

8 0
 s    3 1.00
                 13.01   0.033498726389998
                 1.962    0.23480080117413
                0.4446     0.8136829578829
 s    1 1.00
                 0.122                   1
 p    1 1.00
                 0.727                   1

9 0
 s    8 1.00
                  6665  0.00069158396281299
                  1000  0.0053257961529341
                   228   0.027060721042034
                 64.71    0.10165684614077
                 21.06     0.2745748236174
                 7.495    0.44829431892377
                 2.797    0.28490261071525
                0.5215   0.015194859206082
 s    8 1.00
                  6665  -0.00029326965268655
                  1000  -0.0023180354739745
                   228  -0.011499786038565
                 64.71  -0.046826727009787
                 21.06   -0.12846616875047
                 7.495   -0.30126627246289
                 2.797   -0.25563070233011
                0.5215      1.093793361012
 s    1 1.00
                0.1596                   1
 p    3 1.00
                 9.439   0.056979251590039
                 2.002    0.31320721150073
                0.5456    0.76037674173753
 p    1 1.00
                0.1517                   1
 d    1 1.00
                  0.55                   1

10 0
 s    3 1.00
                 13.01   0.033498726389998
                 1.962    0.23480080117413
                0.4446     0.8136829578829
 s    1 1.00
                 0.122                   1
 p    1 1.00
                 0.727                   1

11 0
 s    3 1.00
                 13.01   0.033498726389998
                 1.962    0.23480080117413
                0.4446     0.8136829578829
 s    1 1.00
                 0.122                   1
 p    1 1.00
                 0.727                   1

12 0
 s    3 1.00
                 13.01   0.033498726389998
                 1.962    0.23480080117413
                0.4446     0.8136829578829
 s    1 1.00
                 0.122                   1
 p    1 1.00
                 0.727                   1

13 0
 s    8 1.00
                  6665  0.00069158396281299
                  1000  0.0053257961529341
                   228   0.027060721042034
                 64.71    0.10165684614077
                 21.06     0.2745748236174
                 7.495    0.44829431892377
                 2.797    0.28490261071525
                0.5215   0.015194859206082
 s    8 1.00
                  6665  -0.00029326965268655
                  1000  -0.0023180354739745
                   228  -0.011499786038565
                 64.71  -0.046826727009787
                 21.06   -0.12846616875047
                 7.495   -0.30126627246289
                 2.797   -0.25563070233011
                0.5215      1.093793361012
 s    1 1.00
                0.1596                   1
 p    3 1.00
                 9.439   0.056979251590039
                 2.002    0.31320721150073
                0.5456    0.76037674173753
 p    1 1.00
                0.1517                   1
 d    1 1.00
                  0.55                   1

14 0
 s    3 1.00
                 13.01   0.033498726389998
                 1.962    0.23480080117413
                0.4446     0.8136829578829
 s    1 1.00
                 0.122                   1
 p    1 1.00
                 0.727                   1

15 0
 s    3 1.00
                 13.01   0.033498726389998
                 1.962    0.23480080117413
                0.4446     0.8136829578829
 s    1 1.00
                 0.122                   1
 p    1 1.00
                 0.727                   1

16 0
 s    8 1.00
                  6665  0.00069158396281299
                  1000  0.0053257961529341
                   228   0.027060721042034
                 64.71    0.10165684614077
                 21.06     0.2745748236174
                 7.495    0.44829431892377
                 2.797    0.28490261071525
                0.5215   0.015194859206082
 s    8 1.00
                  6665  -0.00029326965268655
                  1000  -0.0023180354739745
                   228  -0.011499786038565
                 64.71  -0.046826727009787
                 21.06   -0.12846616875047
                 7.495   -0.30126627246289
                 2.797   -0.25563070233011
                0.5215      1.093793361012
 s    1 1.00
                0.1596                   1
 p    3 1.00
                 9.439   0.056979251590039
                 2.002    0.31320721150073
                0.5456    0.76037674173753
 p    1 1.00
                0.1517                   1
 d    1 1.00
                  0.55                   1

17 0
 s    3 1.00
                 13.01   0.033498726389998
                 1.962    0.23480080117413
                0.4446     0.8136829578829
 s    1 1.00
                 0.122                   1
 p    1 1.00
                 0.727                   1

18 0
 s    3 1.00
                 13.01   0.033498726389998
                 1.962    0.23480080117413
                0.4446     0.8136829578829
 s    1 1.00
                 0.122                   1
 p    1 1.00
                 0.727                   1

19 0
 s    8 1.00
                  6665  0.00069158396281299
                  1000  0.0053257961529341
                   228   0.027060721042034
                 64.71    0.10165684614077
                 21.06     0.2745748236174
                 7.495    0.44829431892377
                 2.797    0.28490261071525
                0.5215   0.015194859206082
 s    8 1.00
                  6665  -0.00029326965268655
                  1000  -0.0023180354739745
                   228  -0.011499786038565
                 64.71  -0.046826727009787
                 21.06   -0.12846616875047
                 7.495   -0.30126627246289
                 2.797   -0.25563070233011
                0.5215      1.093793361012
 s    1 1.00
                0.1596                   1
 p    3 1.00
                 9.439   0.056979251590039
                 2.002    0.31320721150073
                0.5456    0.76037674173753
 p    1 1.00
                0.1517                   1
 d    1 1.00
                  0.55                   1

20 0
 s    3 1.00
                 13.01   0.033498726389998
                 1.962    0.23480080117413
                0.4446     0.8136829578829
 s    1 1.00
                 0.122                   1
 p    1 1.00
                 0.727                   1

21 0
 s    8 1.00
                  6665  0.00069158396281299
                  1000  0.0053257961529341
                   228   0.027060721042034
                 64.71    0.10165684614077
                 21.06     0.2745748236174
                 7.495    0.44829431892377
                 2.797    0.28490261071525
                0.5215   0.015194859206082
 s    8 1.00
                  6665  -0.00029326965268655
                  1000  -0.0023180354739745
                   228  -0.011499786038565
                 64.71  -0.046826727009787
                 21.06   -0.12846616875047
                 7.495   -0.30126627246289
                 2.797   -0.25563070233011
                0.5215      1.093793361012
 s    1 1.00
                0.1596                   1
 p    3 1.00
                 9.439   0.056979251590039
                 2.002    0.31320721150073
                0.5456    0.76037674173753
 p    1 1.00
                0.1517                   1
 d    1 1.00
                  0.55                   1

22 0
 s    3 1.00
                 13.01   0.033498726389998
                 1.962    0.23480080117413
                0.4446     0.8136829578829
 s    1 1.00
                 0.122                   1
 p    1 1.00
                 0.727                   1

23 0
 s    3 1.00
                 13.01   0.033498726389998
                 1.962    0.23480080117413
                0.4446     0.8136829578829
 s    1 1.00
                 0.122                   1
 p    1 1.00
                 0.727                   1

24 0
 s    3 1.00
                 13.01   0.033498726389998
                 1.962    0.23480080117413
                0.4446     0.8136829578829
 s    1 1.00
                 0.122                   1
 p    1 1.00
                 0.727                   1

25 0
 s    8 1.00
                  6665  0.00069158396281299
                  1000  0.0053257961529341
                   228   0.027060721042034
                 64.71    0.10165684614077
                 21.06     0.2745748236174
                 7.495    0.44829431892377
                 2.797    0.28490261071525
                0.5215   0.015194859206082
 s    8 1.00
                  6665  -0.00029326965268655
                  1000  -0.0023180354739745
                   228  -0.011499786038565
                 64.71  -0.046826727009787
                 21.06   -0.12846616875047
                 7.495   -0.30126627246289
                 2.797   -0.25563070233011
                0.5215      1.093793361012
 s    1 1.00
                0.1596                   1
 p    3 1.00
                 9.439   0.056979251590039
                 2.002    0.31320721150073
                0.5456    0.76037674173753
 p    1 1.00
                0.1517                   1
 d    1 1.00
                  0.55                   1

26 0
 s    3 1.00
                 13.01   0.033498726389998
                 1.962    0.23480080117413
                0.4446     0.8136829578829
 s    1 1.00
                 0.122                   1
 p    1 1.00
                 0.727                   1

27 0
 s    3 1.00
                 13.01   0.033498726389998
                 1.962    0.23480080117413
                0.4446     0.8136829578829
 s    1 1.00
                 0.122                   1
 p    1 1.00
                 0.727                   1

28 0
 s    8 1.00
                  6665  0.00069158396281299
                  1000  0.0053257961529341
                   228   0.027060721042034
                 64.71    0.10165684614077
                 21.06     0.2745748236174
                 7.495    0.44829431892377
                 2.797    0.28490261071525
                0.5215   0.015194859206082
 s    8 1.00
                  6665  -0.00029326965268655
                  1000  -0.0023180354739745
                   228  -0.011499786038565
                 64.71  -0.046826727009787
                 21.06   -0.12846616875047
                 7.495   -0.30126627246289
                 2.797   -0.25563070233011
                0.5215      1.093793361012
 s    1 1.00
                0.1596                   1
 p    3 1.00
                 9.439   0.056979251590039
                 2.002    0.31320721150073
                0.5456    0.76037674173753
 p    1 1.00
                0.1517                   1
 d    1 1.00
                  0.55                   1

29 0
 s    3 1.00
                 13.01   0.033498726389998
                 1.962    0.23480080117413
                0.4446     0.8136829578829
 s    1 1.00
                 0.122                   1
 p    1 1.00
                 0.727                   1

30 0
 s    3 1.00
                 13.01   0.033498726389998
                 1.962    0.23480080117413
                0.4446     0.8136829578829
 s    1 1.00
                 0.122                   1
 p    1 1.00
                 0.727                   1

31 0
 s    8 1.00
                  6665  0.00069158396281299
                  1000  0.0053257961529341
                   228   0.027060721042034
                 64.71    0.10165684614077
                 21.06     0.2745748236174
                 7.495    0.44829431892377
                 2.797    0.28490261071525
                0.5215   0.015194859206082
 s    8 1.00
                  6665  -0.00029326965268655
                  1000  -0.0023180354739745
                   228  -0.011499786038565
                 64.71  -0.046826727009787
                 21.06   -0.12846616875047
                 7.495   -0.30126627246289
                 2.797   -0.25563070233011
                0.5215      1.093793361012
 s    1 1.00
                0.1596                   1
 p    3 1.00
                 9.439   0.056979251590039
                 2.002    0.31320721150073
                0.5456    0.76037674173753
 p    1 1.00
                0.1517                   1
 d    1 1.00
                  0.55                   1

32 0
 s    3 1.00
                 13.01   0.033498726389998
                 1.962    0.23480080117413
                0.4446     0.8136829578829
 s    1 1.00
                 0.122                   1
 p    1 1.00
                 0.727                   1

33 0
 s    3 1.00
                 13.01   0.033498726389998
                 1.962    0.23480080117413
                0.4446     0.8136829578829
 s    1 1.00
                 0.122                   1
 p    1 1.00
                 0.727                   1

34 0
 s    3 1.00
                 13.01   0.033498726389998
                 1.962    0.23480080117413
                0.4446     0.8136829578829
 s    1 1.00
                 0.122                   1
 p    1 1.00
                 0.727                   1

35 0
 s    3 1.00
                 13.01   0.033498726389998
                 1.962    0.23480080117413
                0.4446     0.8136829578829
 s    1 1.00
                 0.122                   1
 p    1 1.00
                 0.727                   1

36 0
 s    3 1.00
                 13.01   0.033498726389998
                 1.962    0.23480080117413
                0.4446     0.8136829578829
 s    1 1.00
                 0.122                   1
 p    1 1.00
                 0.727                   1

37 0
 s    3 1.00
                 13.01   0.033498726389998
                 1.962    0.23480080117413
                0.4446     0.8136829578829
 s    1 1.00
                 0.122                   1
 p    1 1.00
                 0.727                   1

[5d]
[7f]
[9g]

[MO]
 Sym= A
 Ene=               0
 Spin= Alpha
 Occup=    1.00000
   1    -2.8749915114678e-05
   2    -1.6002755640679e-05
   3    6.2551323653806e-05
   4    -5.8706329336692e-08
   5    2.3724257292251e-06
   6    -3.2965134760368e-07
   7    3.8541412492585e-07
   8    -1.414245110403e-05
   9    -4.6788899904422e-05
  10    8.7667151996621e-06
  11    1.3556407797015e-08
  12    -6.4163536901031e-07
  13    5.6926074998889e-07
  14    3.0918744815578e-08
  15    -7.6365174401936e-06
  16    -9.2554084027263e-05
  17    -4.1036064768858e-08
  18    8.8552473814405e-07
  19    -2.7480468782219e-05
  20    -3.5635085336163e-06
  21    3.7927302212661e-05
  22    1.3329155936615e-07
  23    -4.5751580929401e-06
  24    1.3625771225069e-06
  25       1.0013591163989
  26    0.0019458166263409
  27    -0.0067646369505422
  28    -4.5928012431885e-06
  29    7.6214802638578e-06
  30    -0.0016592537941384
  31    -3.5560630327392e-07
  32    -1.1802620001164e-06
  33    0.0018114213809368
  34    0.00012982592674241
  35    -3.0268930067879e-06
  36    1.3232772883742e-06
  37    6.7674181754631e-05
  38    -0.0001762763270821
  39    0.00027177070735171
  40    0.00036786023814149
  41    0.0013959471314974
  42    1.5026752647636e-05
  43    -1.0026400170671e-05
  44    -1.4161617746119e-05
  45    8.2173981310591e-05
  46    -6.3174542089467e-05
  47    0.0035332953852565
  48    -0.0005397139986405
  49    -8.5850769117721e-06
  50    2.478636602332e-06
  51    2.8508968175236e-05
  52    -0.0001068013022308
  53    -8.5074451264417e-05
  54    -0.00016629172415248
  55    0.0013668405617876
  56    7.8082841500128e-05
  57    -7.369940057641e-06
  58    -3.6336178605797e-05
  59    -0.00042325494085832
  60    0.00047592319107032
  61    -0.00092071749566705
  62    -0.00011793185792694
  63    0.00015022998762295
  64    -0.00014283088033236
  65    5.5246748989193e-05
  66    -0.00013058013112144
  67    -4.0530765343049e-05
  68    -9.8627843961645e-05
  69    0.00051060348194013
  70    -6.0995085832846e-05
  71    3.988508932241e-05
  72    -6.270246821352e-05
  73    0.00099816462481919
  74    -0.00076921415460146
  75    -0.00063392096517624
  76    -0.00014144644133619
  77    -0.00012061841224253
  78    8.9654553138566e-05
  79    5.9171511541597e-05
  80    -0.00015232890498515
  81    -6.5319049355063e-05
  82    0.00020616700994781
  83    6.586335128182e-05
  84    -4.8368146522382e-05
  85    4.9180081874735e-05
  86    2.4976504195751e-05
  87    4.8802919891761e-05
  88    -0.00060248686720966
  89    -1.614427206305e-05
  90    -1.6976104469279e-05
  91    1.2384040035866e-05
  92    0.0002555741315658
  93    0.00062190178005642
  94    -1.9418627607397e-05
  95    1.7964891302538e-05
  96    1.1093620631132e-05
  97    7.1015619618818e-06
  98    -2.0779831351964e-05
  99    -4.5303177908935e-05
 100    -3.6694547430117e-05
 101    -0.00015728975555812
 102    9.6191179093644e-06
 103    -9.6981358054748e-06
 104    7.4099411088619e-05
 105    -1.7613216396339e-05
 106    -0.00019996510070053
 107    -6.452209553521e-05
 108    1.1571891954612e-05
 109    7.4428909538074e-05
 110    7.7330875488033e-05
 111    -5.7811492496769e-05
 112    -4.5692923205624e-05
 113    1.8239816270391e-05
 114    6.9409512923259e-05
 115    -4.9947022030286e-05
 116    -0.00010173115185509
 117     0.000839198222087
 118    -2.6029016501559e-05
 119    -1.0067814921434e-05
 120    3.2978900073045e-05
 121    0.00029865406477416
 122    2.8850909601899e-05
 123    -0.0001331199763744
 124    -6.5662760772153e-06
 125    1.2550517186811e-05
 126    1.6013413460731e-05
 127    -3.2089811451363e-05
 128    4.9722529526538e-05
 129    -1.8910479646945e-05
 130    -0.00032017311463612
 131    7.429824293036e-06
 132    5.8488337101175e-06
 133    2.912676178259e-05
 134    2.5889636884465e-05
 135    -0.00011869239982127
 136    -1.3429360318251e-05
 137    -2.3929065759978e-05
 138    -2.6505769007959e-05
 139    -2.1064026727198e-05
 140    -3.8068369347019e-05
 141    0.00028550814116208
 142    8.3340455916379e-06
 143    -2.1980540633937e-06
 144    -6.5982986862983e-06
 145    -0.00022911728469278
 146    5.115743596096e-05
 147    6.4221261364981e-05
 148    -2.3584875393117e-06
 149    3.0736667123928e-06
 150    -3.4117828565949e-06
 151    1.1810553961554e-05
 152    -4.9525069869213e-06
 153    -9.6988212322878e-05
 154    -0.00011485897032637
 155    -2.5737020218654e-05
 156    3.0089155722587e-05
 157    2.0596560008629e-05
 158    -2.5828307546229e-05
 159    -8.9914301447373e-05
 160    -5.947954658101e-05
 161    -7.1153589070774e-06
 162    6.0721946742739e-06
 163    -2.5449629853782e-06
 164    -4.4881843748278e-06
 165    -0.00023340668398449
 166    -2.0892087335159e-05
 167    1.5431611547409e-05
 168    9.0684525744374e-06
 169     0.000236816117557
 170    -0.00021359141584883
 171    -0.00012935005391052
 172    -3.0345589787889e-06
 173    9.9743079949238e-06
 174    -1.3571328613532e-05
 175    3.3813999987506e-06
 176    -1.8502854660596e-05
 177    -1.5813074661018e-05
 178    8.3184566528632e-05
 179    -7.0845942368461e-07
 180    2.0276663687346e-06
 181    -5.0130694171905e-06
 182    1.5020974513455e-05
 183    2.6015507129563e-05
 184    -6.4901108213995e-05
 185    -5.9782544513584e-06
 186    3.9852986463666e-06
 187    6.3195738491568e-06
 188    0.00012549135617811
 189    -0.00010195556791737
 190    -8.3496052705225e-05
 191    1.3663249909612e-06
 192    1.8681067867153e-06
 193    -7.7782052930993e-06
 194    -3.0060284533841e-06
 195    -4.9052797490307e-06
 196    -1.3791759396542e-05
 197    -1.8450587580274e-05
 198    5.6557675373881e-06
 199    1.9812568795861e-06
 200    -3.6160312300103e-06
 201    -1.3776860894478e-05
 202    3.4599829667564e-06
 203    -1.3032672631097e-05
 204    1.0117709675378e-05
 205    1.1885311576186e-05
 206    7.8251653477056e-06
 207    6.7565803409325e-05
 208    -1.6318493163818e-05
 209    3.9812480340692e-06
 210    1.5614111526242e-05
 211    -2.0820276593918e-05
 212    -3.5681356568851e-05
 213    0.00025011931471208
 214    1.0038611990718e-05
 215    -4.011308704192e-06
 216    -1.1152258116985e-05
 217    0.0001984774671458
 218    -5.4786316244563e-05
 219    -7.8746256659581e-05
 220    -2.0528266484668e-06
 221    -1.7060772346347e-05
 222    5.782705633838e-06
 223    9.516844677933e-06
 224    -1.9431098279027e-06
 225    2.4997935724091e-05
 226    5.3732453275586e-05
 227    -1.2241255919634e-05
 228    -1.8430639957161e-06
 229    -9.5970344833538e-07
 230    9.5469419348902e-06
 231    5.437646701003e-05
 232    -3.9802241665817e-06
 233    6.2802473895754e-06
 234    1.1965670459755e-05
 235    2.2416100299507e-06
 236    2.5941087110038e-06
 237    -7.712878024963e-05
 238      5.3771855248e-06
 239    3.8780898365599e-06
 240    -6.8711998380983e-06
 241    3.6580659646921e-05
 242    -6.1501263233366e-05
 243    1.6203153448642e-05
 244    1.9357571283363e-06
 245    1.7115970699381e-06
 246    -2.1506435363214e-06
 247    1.3073336428802e-07
 248    1.1206597980389e-06
 249    -2.3148452525136e-05
 250    1.2128952931463e-05
 251    -4.2931385143207e-06
 252    -6.8600478486171e-07
 253    1.9166737299844e-08
 254    -2.1085205464818e-05
 255    5.4243753891156e-05
 256    -2.6915770067531e-07
 257    3.9530478026734e-06
 258    -8.2621490396688e-07
 259    -1.2373092955473e-05
 260    -2.3301656525454e-05
 261    7.9028742453789e-05
 262    -6.756774353701e-06