[Molden Format]
made by pyscf v[2.0.1]
[Atoms] (AU)
O   1   8     0.00000000000000     0.00000000000000     8.67407923598948
H   2   1     0.00000000000000     0.00000000000000     6.85067741408852
H   3   1    -0.05031916615174     1.78353065140343     9.04995093245615
O   4   8     0.00000000000000     0.00000000000000     2.31533471513237
C   5   6     0.00000000000000     0.00000000000000     0.00000000000000
C   6   6     2.01118073026938    -1.40227222164369    -1.50774939176400
C   7   6    -2.01249334291722     1.41331050329955    -1.50315905028694
H   8   1     3.32037363730244    -2.26721897153159    -0.13599698591495
C   9   6     3.45899267434009     0.28739631745591    -3.37437943254505
H   10   1     1.07662969841332    -2.94725144642667    -2.56541439481080
H   11   1    -2.67503415753480     0.18421555839588    -3.06194479365997
H   12   1    -1.07974048864772     3.03851734677796    -2.43674295017013
C   13   6    -4.21607110578555     2.32938802552922     0.11994162256091
H   14   1     4.24440173074564     1.93368664142019    -2.34976285512790
H   15   1     2.15020713235517     1.04714335134846    -4.81494497423699
C   16   6     5.60746363007797    -1.12419643481196    -4.70268606082550
H   17   1    -3.46838323670267     3.50951302338067     1.66946842715333
H   18   1    -5.11873485366228     0.68575958301209     1.04047743976495
C   19   6    -6.18314754751344     3.80909592987882    -1.39656589068747
H   20   1     6.93011263717176    -1.87550812453645    -3.26656317360070
C   21   6     7.06356622236532     0.52877932406334    -6.57829775293605
H   22   1     4.82318879258361    -2.78573437948532    -5.70504560381835
H   23   1    -6.91582688743803     2.61304780074712    -2.95074552451969
H   24   1    -5.26532430573853     5.45420349051338    -2.31005832200284
C   25   6    -8.39941882261433     4.73263980500213     0.21800571437956
H   26   1     7.83338371486801     2.19084139882824    -5.57093109900697
H   27   1     5.73544244039420     1.27376866537418    -8.01071492370229
C   28   6     9.21124858443101    -0.89699110072176    -7.88926949186242
H   29   1    -7.66272760055236     5.92277078003992     1.77035591474408
H   30   1    -9.31497248082589     3.08753015622020     1.12614408368786
C   31   6   -10.35481709231879     6.21833079391143    -1.30905206253246
H   32   1    10.58815905329501    -1.61074586756696    -6.49512691622620
H   33   1    10.23506248045667     0.32468009384095    -9.23072870921204
H   34   1     8.47665842847139    -2.53598436989925    -8.94921964622535
H   35   1    -9.48948872868064     7.90013588951020    -2.18823918416067
H   36   1   -11.93332513000955     6.86460487874102    -0.11255798845995
H   37   1   -11.15126291841033     5.04495968327630    -2.83849898862534
[GTO]
1 0
 s    8 1.00
                 11720  0.00070964594651845
                  1759  0.0054672722921914
                 400.8   0.027823118610189
                 113.7    0.10474773971146
                 37.03    0.28292084635691
                 13.27    0.44849523869833
                 5.025    0.27081688521277
                 1.013    0.01545029160744
 s    8 1.00
                 11720  -0.00031444341168873
                  1759  -0.0024821376810179
                 400.8  -0.012316355381583
                 113.7  -0.050538917343672
                 37.03   -0.13938490331632
                 13.27   -0.32507749481778
                 5.025   -0.22984830758785
                 1.013     1.0953793467883
 s    1 1.00
                0.3023                   1
 p    3 1.00
                  17.7   0.062679166281506
                 3.854    0.33353656587936
                 1.046    0.74123964163973
 p    1 1.00
                0.2753                   1
 d    1 1.00
                 1.185                   1

2 0
 s    3 1.00
                 13.01   0.033498726389998
                 1.962    0.23480080117413
                0.4446     0.8136829578829
 s    1 1.00
                 0.122                   1
 p    1 1.00
                 0.727                   1

3 0
 s    3 1.00
                 13.01   0.033498726389998
                 1.962    0.23480080117413
                0.4446     0.8136829578829
 s    1 1.00
                 0.122                   1
 p    1 1.00
                 0.727                   1

4 0
 s    8 1.00
                 11720  0.00070964594651845
                  1759  0.0054672722921914
                 400.8   0.027823118610189
                 113.7    0.10474773971146
                 37.03    0.28292084635691
                 13.27    0.44849523869833
                 5.025    0.27081688521277
                 1.013    0.01545029160744
 s    8 1.00
                 11720  -0.00031444341168873
                  1759  -0.0024821376810179
                 400.8  -0.012316355381583
                 113.7  -0.050538917343672
                 37.03   -0.13938490331632
                 13.27   -0.32507749481778
                 5.025   -0.22984830758785
                 1.013     1.0953793467883
 s    1 1.00
                0.3023                   1
 p    3 1.00
                  17.7   0.062679166281506
                 3.854    0.33353656587936
                 1.046    0.74123964163973
 p    1 1.00
                0.2753                   1
 d    1 1.00
                 1.185                   1

5 0
 s    8 1.00
                  6665  0.00069158396281299
                  1000  0.0053257961529341
                   228   0.027060721042034
                 64.71    0.10165684614077
                 21.06     0.2745748236174
                 7.495    0.44829431892377
                 2.797    0.28490261071525
                0.5215   0.015194859206082
 s    8 1.00
                  6665  -0.00029326965268655
                  1000  -0.0023180354739745
                   228  -0.011499786038565
                 64.71  -0.046826727009787
                 21.06   -0.12846616875047
                 7.495   -0.30126627246289
                 2.797   -0.25563070233011
                0.5215      1.093793361012
 s    1 1.00
                0.1596                   1
 p    3 1.00
                 9.439   0.056979251590039
                 2.002    0.31320721150073
                0.5456    0.76037674173753
 p    1 1.00
                0.1517                   1
 d    1 1.00
                  0.55                   1

6 0
 s    8 1.00
                  6665  0.00069158396281299
                  1000  0.0053257961529341
                   228   0.027060721042034
                 64.71    0.10165684614077
                 21.06     0.2745748236174
                 7.495    0.44829431892377
                 2.797    0.28490261071525
                0.5215   0.015194859206082
 s    8 1.00
                  6665  -0.00029326965268655
                  1000  -0.0023180354739745
                   228  -0.011499786038565
                 64.71  -0.046826727009787
                 21.06   -0.12846616875047
                 7.495   -0.30126627246289
                 2.797   -0.25563070233011
                0.5215      1.093793361012
 s    1 1.00
                0.1596                   1
 p    3 1.00
                 9.439   0.056979251590039
                 2.002    0.31320721150073
                0.5456    0.76037674173753
 p    1 1.00
                0.1517                   1
 d    1 1.00
                  0.55                   1

7 0
 s    8 1.00
                  6665  0.00069158396281299
                  1000  0.0053257961529341
                   228   0.027060721042034
                 64.71    0.10165684614077
                 21.06     0.2745748236174
                 7.495    0.44829431892377
                 2.797    0.28490261071525
                0.5215   0.015194859206082
 s    8 1.00
                  6665  -0.00029326965268655
                  1000  -0.0023180354739745
                   228  -0.011499786038565
                 64.71  -0.046826727009787
                 21.06   -0.12846616875047
                 7.495   -0.30126627246289
                 2.797   -0.25563070233011
                0.5215      1.093793361012
 s    1 1.00
                0.1596                   1
 p    3 1.00
                 9.439   0.056979251590039
                 2.002    0.31320721150073
                0.5456    0.76037674173753
 p    1 1.00
                0.1517                   1
 d    1 1.00
                  0.55                   1

8 0
 s    3 1.00
                 13.01   0.033498726389998
                 1.962    0.23480080117413
                0.4446     0.8136829578829
 s    1 1.00
                 0.122                   1
 p    1 1.00
                 0.727                   1

9 0
 s    8 1.00
                  6665  0.00069158396281299
                  1000  0.0053257961529341
                   228   0.027060721042034
                 64.71    0.10165684614077
                 21.06     0.2745748236174
                 7.495    0.44829431892377
                 2.797    0.28490261071525
                0.5215   0.015194859206082
 s    8 1.00
                  6665  -0.00029326965268655
                  1000  -0.0023180354739745
                   228  -0.011499786038565
                 64.71  -0.046826727009787
                 21.06   -0.12846616875047
                 7.495   -0.30126627246289
                 2.797   -0.25563070233011
                0.5215      1.093793361012
 s    1 1.00
                0.1596                   1
 p    3 1.00
                 9.439   0.056979251590039
                 2.002    0.31320721150073
                0.5456    0.76037674173753
 p    1 1.00
                0.1517                   1
 d    1 1.00
                  0.55                   1

10 0
 s    3 1.00
                 13.01   0.033498726389998
                 1.962    0.23480080117413
                0.4446     0.8136829578829
 s    1 1.00
                 0.122                   1
 p    1 1.00
                 0.727                   1

11 0
 s    3 1.00
                 13.01   0.033498726389998
                 1.962    0.23480080117413
                0.4446     0.8136829578829
 s    1 1.00
                 0.122                   1
 p    1 1.00
                 0.727                   1

12 0
 s    3 1.00
                 13.01   0.033498726389998
                 1.962    0.23480080117413
                0.4446     0.8136829578829
 s    1 1.00
                 0.122                   1
 p    1 1.00
                 0.727                   1

13 0
 s    8 1.00
                  6665  0.00069158396281299
                  1000  0.0053257961529341
                   228   0.027060721042034
                 64.71    0.10165684614077
                 21.06     0.2745748236174
                 7.495    0.44829431892377
                 2.797    0.28490261071525
                0.5215   0.015194859206082
 s    8 1.00
                  6665  -0.00029326965268655
                  1000  -0.0023180354739745
                   228  -0.011499786038565
                 64.71  -0.046826727009787
                 21.06   -0.12846616875047
                 7.495   -0.30126627246289
                 2.797   -0.25563070233011
                0.5215      1.093793361012
 s    1 1.00
                0.1596                   1
 p    3 1.00
                 9.439   0.056979251590039
                 2.002    0.31320721150073
                0.5456    0.76037674173753
 p    1 1.00
                0.1517                   1
 d    1 1.00
                  0.55                   1

14 0
 s    3 1.00
                 13.01   0.033498726389998
                 1.962    0.23480080117413
                0.4446     0.8136829578829
 s    1 1.00
                 0.122                   1
 p    1 1.00
                 0.727                   1

15 0
 s    3 1.00
                 13.01   0.033498726389998
                 1.962    0.23480080117413
                0.4446     0.8136829578829
 s    1 1.00
                 0.122                   1
 p    1 1.00
                 0.727                   1

16 0
 s    8 1.00
                  6665  0.00069158396281299
                  1000  0.0053257961529341
                   228   0.027060721042034
                 64.71    0.10165684614077
                 21.06     0.2745748236174
                 7.495    0.44829431892377
                 2.797    0.28490261071525
                0.5215   0.015194859206082
 s    8 1.00
                  6665  -0.00029326965268655
                  1000  -0.0023180354739745
                   228  -0.011499786038565
                 64.71  -0.046826727009787
                 21.06   -0.12846616875047
                 7.495   -0.30126627246289
                 2.797   -0.25563070233011
                0.5215      1.093793361012
 s    1 1.00
                0.1596                   1
 p    3 1.00
                 9.439   0.056979251590039
                 2.002    0.31320721150073
                0.5456    0.76037674173753
 p    1 1.00
                0.1517                   1
 d    1 1.00
                  0.55                   1

17 0
 s    3 1.00
                 13.01   0.033498726389998
                 1.962    0.23480080117413
                0.4446     0.8136829578829
 s    1 1.00
                 0.122                   1
 p    1 1.00
                 0.727                   1

18 0
 s    3 1.00
                 13.01   0.033498726389998
                 1.962    0.23480080117413
                0.4446     0.8136829578829
 s    1 1.00
                 0.122                   1
 p    1 1.00
                 0.727                   1

19 0
 s    8 1.00
                  6665  0.00069158396281299
                  1000  0.0053257961529341
                   228   0.027060721042034
                 64.71    0.10165684614077
                 21.06     0.2745748236174
                 7.495    0.44829431892377
                 2.797    0.28490261071525
                0.5215   0.015194859206082
 s    8 1.00
                  6665  -0.00029326965268655
                  1000  -0.0023180354739745
                   228  -0.011499786038565
                 64.71  -0.046826727009787
                 21.06   -0.12846616875047
                 7.495   -0.30126627246289
                 2.797   -0.25563070233011
                0.5215      1.093793361012
 s    1 1.00
                0.1596                   1
 p    3 1.00
                 9.439   0.056979251590039
                 2.002    0.31320721150073
                0.5456    0.76037674173753
 p    1 1.00
                0.1517                   1
 d    1 1.00
                  0.55                   1

20 0
 s    3 1.00
                 13.01   0.033498726389998
                 1.962    0.23480080117413
                0.4446     0.8136829578829
 s    1 1.00
                 0.122                   1
 p    1 1.00
                 0.727                   1

21 0
 s    8 1.00
                  6665  0.00069158396281299
                  1000  0.0053257961529341
                   228   0.027060721042034
                 64.71    0.10165684614077
                 21.06     0.2745748236174
                 7.495    0.44829431892377
                 2.797    0.28490261071525
                0.5215   0.015194859206082
 s    8 1.00
                  6665  -0.00029326965268655
                  1000  -0.0023180354739745
                   228  -0.011499786038565
                 64.71  -0.046826727009787
                 21.06   -0.12846616875047
                 7.495   -0.30126627246289
                 2.797   -0.25563070233011
                0.5215      1.093793361012
 s    1 1.00
                0.1596                   1
 p    3 1.00
                 9.439   0.056979251590039
                 2.002    0.31320721150073
                0.5456    0.76037674173753
 p    1 1.00
                0.1517                   1
 d    1 1.00
                  0.55                   1

22 0
 s    3 1.00
                 13.01   0.033498726389998
                 1.962    0.23480080117413
                0.4446     0.8136829578829
 s    1 1.00
                 0.122                   1
 p    1 1.00
                 0.727                   1

23 0
 s    3 1.00
                 13.01   0.033498726389998
                 1.962    0.23480080117413
                0.4446     0.8136829578829
 s    1 1.00
                 0.122                   1
 p    1 1.00
                 0.727                   1

24 0
 s    3 1.00
                 13.01   0.033498726389998
                 1.962    0.23480080117413
                0.4446     0.8136829578829
 s    1 1.00
                 0.122                   1
 p    1 1.00
                 0.727                   1

25 0
 s    8 1.00
                  6665  0.00069158396281299
                  1000  0.0053257961529341
                   228   0.027060721042034
                 64.71    0.10165684614077
                 21.06     0.2745748236174
                 7.495    0.44829431892377
                 2.797    0.28490261071525
                0.5215   0.015194859206082
 s    8 1.00
                  6665  -0.00029326965268655
                  1000  -0.0023180354739745
                   228  -0.011499786038565
                 64.71  -0.046826727009787
                 21.06   -0.12846616875047
                 7.495   -0.30126627246289
                 2.797   -0.25563070233011
                0.5215      1.093793361012
 s    1 1.00
                0.1596                   1
 p    3 1.00
                 9.439   0.056979251590039
                 2.002    0.31320721150073
                0.5456    0.76037674173753
 p    1 1.00
                0.1517                   1
 d    1 1.00
                  0.55                   1

26 0
 s    3 1.00
                 13.01   0.033498726389998
                 1.962    0.23480080117413
                0.4446     0.8136829578829
 s    1 1.00
                 0.122                   1
 p    1 1.00
                 0.727                   1

27 0
 s    3 1.00
                 13.01   0.033498726389998
                 1.962    0.23480080117413
                0.4446     0.8136829578829
 s    1 1.00
                 0.122                   1
 p    1 1.00
                 0.727                   1

28 0
 s    8 1.00
                  6665  0.00069158396281299
                  1000  0.0053257961529341
                   228   0.027060721042034
                 64.71    0.10165684614077
                 21.06     0.2745748236174
                 7.495    0.44829431892377
                 2.797    0.28490261071525
                0.5215   0.015194859206082
 s    8 1.00
                  6665  -0.00029326965268655
                  1000  -0.0023180354739745
                   228  -0.011499786038565
                 64.71  -0.046826727009787
                 21.06   -0.12846616875047
                 7.495   -0.30126627246289
                 2.797   -0.25563070233011
                0.5215      1.093793361012
 s    1 1.00
                0.1596                   1
 p    3 1.00
                 9.439   0.056979251590039
                 2.002    0.31320721150073
                0.5456    0.76037674173753
 p    1 1.00
                0.1517                   1
 d    1 1.00
                  0.55                   1

29 0
 s    3 1.00
                 13.01   0.033498726389998
                 1.962    0.23480080117413
                0.4446     0.8136829578829
 s    1 1.00
                 0.122                   1
 p    1 1.00
                 0.727                   1

30 0
 s    3 1.00
                 13.01   0.033498726389998
                 1.962    0.23480080117413
                0.4446     0.8136829578829
 s    1 1.00
                 0.122                   1
 p    1 1.00
                 0.727                   1

31 0
 s    8 1.00
                  6665  0.00069158396281299
                  1000  0.0053257961529341
                   228   0.027060721042034
                 64.71    0.10165684614077
                 21.06     0.2745748236174
                 7.495    0.44829431892377
                 2.797    0.28490261071525
                0.5215   0.015194859206082
 s    8 1.00
                  6665  -0.00029326965268655
                  1000  -0.0023180354739745
                   228  -0.011499786038565
                 64.71  -0.046826727009787
                 21.06   -0.12846616875047
                 7.495   -0.30126627246289
                 2.797   -0.25563070233011
                0.5215      1.093793361012
 s    1 1.00
                0.1596                   1
 p    3 1.00
                 9.439   0.056979251590039
                 2.002    0.31320721150073
                0.5456    0.76037674173753
 p    1 1.00
                0.1517                   1
 d    1 1.00
                  0.55                   1

32 0
 s    3 1.00
                 13.01   0.033498726389998
                 1.962    0.23480080117413
                0.4446     0.8136829578829
 s    1 1.00
                 0.122                   1
 p    1 1.00
                 0.727                   1

33 0
 s    3 1.00
                 13.01   0.033498726389998
                 1.962    0.23480080117413
                0.4446     0.8136829578829
 s    1 1.00
                 0.122                   1
 p    1 1.00
                 0.727                   1

34 0
 s    3 1.00
                 13.01   0.033498726389998
                 1.962    0.23480080117413
                0.4446     0.8136829578829
 s    1 1.00
                 0.122                   1
 p    1 1.00
                 0.727                   1

35 0
 s    3 1.00
                 13.01   0.033498726389998
                 1.962    0.23480080117413
                0.4446     0.8136829578829
 s    1 1.00
                 0.122                   1
 p    1 1.00
                 0.727                   1

36 0
 s    3 1.00
                 13.01   0.033498726389998
                 1.962    0.23480080117413
                0.4446     0.8136829578829
 s    1 1.00
                 0.122                   1
 p    1 1.00
                 0.727                   1

37 0
 s    3 1.00
                 13.01   0.033498726389998
                 1.962    0.23480080117413
                0.4446     0.8136829578829
 s    1 1.00
                 0.122                   1
 p    1 1.00
                 0.727                   1

[5d]
[7f]
[9g]

[MO]
 Sym= A
 Ene=               0
 Spin= Alpha
 Occup=    1.00000
   1    -7.050452288936e-05
   2    -5.2571044448888e-05
   3    0.00013266430920623
   4    1.8600196954852e-08
   5    5.9483950171186e-06
   6    1.5760037544958e-05
   7    4.1571416114009e-07
   8    -2.5936169853061e-05
   9    -7.3499832642039e-05
  10    4.2418633942022e-06
  11    -9.8389796408053e-08
  12    3.6584396196887e-07
  13    5.7594285379053e-07
  14    9.9561439927003e-09
  15    -2.1715888793601e-05
  16    -0.0002161615393605
  17    -4.1533804550596e-07
  18    2.2448156854212e-06
  19    1.4900801121612e-05
  20    -5.6376359224682e-06
  21    6.6862154397302e-05
  22    1.5082586623558e-07
  23    -2.5633596688057e-06
  24    -2.9796319619132e-07
  25        1.001377462264
  26    0.0019865830168072
  27    -0.0069251423182067
  28    -5.1340171399696e-06
  29    1.0476162825744e-05
  30    -0.0016411970892689
  31    -3.531118695654e-07
  32    -2.6776226491404e-06
  33    0.0019357842469951
  34    0.00011218585894411
  35    -2.8387246105711e-06
  36    1.4879283557951e-06
  37    6.6644040100767e-05
  38    -0.00017346216194394
  39    0.00028719641296167
  40    0.0004010849674841
  41    0.0015185000169702
  42    1.6032828146652e-05
  43    -1.0081976785051e-05
  44    1.9561556781743e-05
  45    8.2847601081361e-05
  46    -6.5727341129656e-05
  47    0.0036581703840542
  48    -0.00050946606517864
  49    -8.2558753080359e-06
  50    2.6171375634063e-06
  51    2.9889908080981e-05
  52    -0.000110304637054
  53    -8.447892004652e-05
  54    -0.00016518394124515
  55    0.0013855527515506
  56     7.85529761381e-05
  57    -7.1433405863904e-06
  58    -3.4576508381602e-05
  59    -0.00042717330485117
  60    0.00048180543190182
  61    -0.00096753527071442
  62    -0.00011622344330413
  63    0.00014980087790236
  64    -0.00014325240257411
  65    5.4313185107494e-05
  66    -0.00012739338546465
  67    -3.8754597745401e-05
  68    -9.5479840486236e-05
  69    0.00051908622313651
  70    -6.2158495004021e-05
  71    4.1142611378707e-05
  72    -6.1851432713733e-05
  73    0.0010148391829985
  74    -0.00078010866714195
  75    -0.00065850277962883
  76    -0.00013959085045366
  77    -0.00012127886023426
  78    8.9788261666542e-05
  79    5.8372409670695e-05
  80    -0.00014999869380837
  81    -6.0057477025349e-05
  82    0.0002153608769201
  83    6.6846118961778e-05
  84    -4.9103528142135e-05
  85    4.7486350001982e-05
  86    2.5062691902772e-05
  87    4.8885370483702e-05
  88    -0.00062075265505062
  89    -1.5897352392243e-05
  90    -1.7125621531688e-05
  91    1.152196940079e-05
  92    0.00026121302101675
  93    0.00064576409143057
  94    -1.2549566170379e-05
  95    1.884654507333e-05
  96    1.1471186777752e-05
  97    7.9218163810923e-06
  98    -1.9623149570737e-05
  99    -4.7944269679901e-05
 100    -4.036382867067e-05
 101    -0.00016412484581468
 102    6.9829598217928e-06
 103    -1.0561000915083e-05
 104    7.6768673666631e-05
 105    -1.9239579545888e-05
 106    -0.00020591110677329
 107    -6.3969863926857e-05
 108    8.698840483728e-06
 109    7.6065599847328e-05
 110    7.8060514806687e-05
 111    -6.4940735704144e-05
 112    -4.4385716901009e-05
 113    1.9822599732368e-05
 114    7.1118178649952e-05
 115    -4.8412046940913e-05
 116    -9.8808316552255e-05
 117    0.00085103379761809
 118    -2.4374763238908e-05
 119    -1.1305265132458e-05
 120    3.2524113238667e-05
 121    0.00028596602594701
 122    3.6038704549729e-05
 123    -0.0001528569991852
 124    -6.2749213780735e-06
 125    1.1115988718892e-05
 126    1.5016132613804e-05
 127    -3.2131439910368e-05
 128    5.0631373955032e-05
 129    -1.989109731826e-05
 130    -0.00033423190323231
 131    7.9830601026731e-06
 132    5.9856540578005e-06
 133    2.9575269991123e-05
 134    2.5742562876643e-05
 135    -0.00011732679044133
 136    -1.3739138350708e-05
 137    -2.5054942385325e-05
 138    -2.7309406826001e-05
 139    -2.1858094518473e-05
 140    -3.9474430224814e-05
 141    0.00030234686967969
 142    8.1633822348355e-06
 143    -2.6106996693944e-06
 144    -6.4803199101506e-06
 145    -0.00023129243898084
 146    5.8060839780559e-05
 147    6.0202187051861e-05
 148    -2.5499320628733e-06
 149    3.2801610948367e-06
 150    -4.3432342304741e-06
 151    1.2507490069963e-05
 152    -4.8127237729487e-06
 153    -9.7379455756727e-05
 154    -9.907166223545e-05
 155    -2.660452261678e-05
 156    2.8220622313895e-05
 157    1.9278957496516e-05
 158    -2.596845663285e-05
 159    -8.7057630842434e-05
 160    -5.9096278637098e-05
 161    -7.2969947386448e-06
 162    6.6900843260238e-06
 163    -1.0320647523809e-06
 164    -1.7970256611894e-06
 165    -0.00025632141938344
 166    -2.1320765472395e-05
 167    1.5508173422825e-05
 168    9.3655036657537e-06
 169    0.00023228183373039
 170    -0.00020929417590007
 171    -0.00013732824063768
 172    -2.5657718283231e-06
 173     9.94447552312e-06
 174    -1.3474374574919e-05
 175    3.2284926463704e-06
 176    -1.8068128238206e-05
 177    -1.6289726949911e-05
 178    8.5992243583137e-05
 179    -1.0962203650328e-06
 180    1.7251022621861e-06
 181    -4.7761614713436e-06
 182    1.5953450688525e-05
 183    2.759403809908e-05
 184    -7.6108431574066e-05
 185    -5.7927453560543e-06
 186    4.2844059646772e-06
 187    6.1721015903391e-06
 188    0.00012969890884704
 189    -0.00010176815531832
 190    -8.927735901933e-05
 191    1.3110544973605e-06
 192    2.1582832477703e-06
 193    -7.7085663856033e-06
 194    -2.9567372797014e-06
 195    -5.388753737437e-06
 196    -1.3301272580755e-05
 197    -1.9281695675063e-05
 198    5.6812892931849e-06
 199    1.9450822560936e-06
 200    -3.2942201843023e-06
 201    -1.3302792449698e-05
 202    1.635109061754e-06
 203    -1.3404525884005e-05
 204    9.8917662207179e-06
 205    1.1856610773656e-05
 206    8.2649280297012e-06
 207    6.7619969455545e-05
 208    -1.6137211407828e-05
 209    3.9297457392245e-06
 210    1.5916748697841e-05
 211    -2.1600416288917e-05
 212    -3.6788704452046e-05
 213    0.00026199781552342
 214    1.0792023153194e-05
 215    -4.1213590313045e-06
 216    -1.1231987702816e-05
 217    0.00019698629577522
 218    -5.3244969677102e-05
 219    -8.1276808217923e-05
 220    -2.1126020278738e-06
 221    -1.6917367904937e-05
 222    5.7859834659379e-06
 223    9.6442883910239e-06
 224    -2.0602658015984e-06
 225    2.6112006092875e-05
 226    5.5924046376767e-05
 227    -1.2554129440262e-05
 228    -2.0675443613645e-06
 229    -9.3986684035837e-07
 230    1.0013908757449e-05
 231    5.4385170185021e-05
 232    -4.1140170527884e-06
 233    6.4607042173451e-06
 234    1.2155184633368e-05
 235    2.3275107165814e-06
 236    2.8183579011275e-06
 237    -7.8109233297205e-05
 238    5.3969442693641e-06
 239    4.0751270715199e-06
 240    -6.9509300404529e-06
 241    3.7725794772558e-05
 242    -6.2605090998555e-05
 243    1.6633292152353e-05
 244    2.0219583308901e-06
 245    1.7926943705625e-06
 246    -2.1315401756019e-06
 247    1.113206720377e-07
 248    1.132354896858e-06
 249    -2.2967063613438e-05
 250    9.1282461582641e-06
 251    -4.1181217499879e-06
 252    -5.3737320082694e-07
 253    3.4505543753945e-07
 254    -2.172001084102e-05
 255    5.4062030235535e-05
 256    2.4253350649797e-08
 257    3.7946350105754e-06
 258    -7.0871812534409e-07
 259    -1.18091254347e-05
 260    -2.2337037021279e-05
 261    7.1995740866161e-05
 262    -6.917560854538e-06