[Molden Format]
made by pyscf v[2.0.1]
[Atoms] (AU)
O   1   8     0.00000000000000     0.00000000000000     6.40640788651141
H   2   1     0.00000000000000     0.00000000000000     4.58300606461044
H   3   1    -0.05031916615174     1.78353439551780     6.78227958297808
O   4   8     0.00000000000000     0.00000000000000     2.31533471513237
C   5   6     0.00000000000000     0.00000000000000     0.00000000000000
C   6   6     2.01118073026938    -1.40227222164369    -1.50774939176400
C   7   6    -2.01249334291722     1.41331050329955    -1.50319235519811
H   8   1     3.32037363730244    -2.26721897153159    -0.13599698591495
C   9   6     3.45899267434009     0.28739631745591    -3.37437943254505
H   10   1     1.07662969841332    -2.94725144642667    -2.56541439481080
H   11   1    -2.67503415753480     0.18421555839588    -3.06194479365997
H   12   1    -1.08005520873877     3.03851734677796    -2.43674295017013
C   13   6    -4.21607110578555     2.32938802552922     0.11994192435017
H   14   1     4.24440173074564     1.93368664387684    -2.34976285512790
H   15   1     2.18907033049676     1.04714335134846    -4.81494497423699
C   16   6     5.60746363007797    -1.12419643481196    -4.70268606082550
H   17   1    -3.46838323670267     3.50951302338067     1.66946842715333
H   18   1    -5.11873485366228     0.68575958301209     1.04047743976495
C   19   6    -6.18314754751344     3.80909592987882    -1.39656589068747
H   20   1     6.93011263717176    -1.87550812453645    -3.26656317360070
C   21   6     7.10306991577580     0.52877932406334    -6.57829775293605
H   22   1     4.82318879258361    -2.78573437948532    -5.70504560381835
H   23   1    -6.91582688743803     2.61304780074712    -2.95074552451969
H   24   1    -5.26532430573853     5.45420349051338    -2.31005832200284
C   25   6    -8.39941882261433     4.73263980500213     0.21800571437956
H   26   1     7.83338371486801     2.19084139882824    -5.57093109900697
H   27   1     5.73544244039420     1.27376866537418    -8.01071492370229
C   28   6     9.21124858443101    -0.89699110072176    -7.88926949186242
H   29   1    -7.66272760055236     5.92277078003992     1.77035591474408
H   30   1    -9.31497248082589     3.08753015622020     1.12614408368786
C   31   6   -10.35481709231879     6.21833079391143    -1.30905206253246
H   32   1    10.58815905329501    -1.61099162890610    -6.52093739071026
H   33   1    10.23506248045667     0.32468009384095    -9.23072870921204
H   34   1     8.47665842847139    -2.53598436989925    -8.94921964622535
H   35   1    -9.48948872868064     7.90013588951020    -2.18823918416067
H   36   1   -11.93332774482359     6.86460487874102    -0.11255798845995
H   37   1   -11.15126291841033     5.04495968327630    -2.83849898862534
[GTO]
1 0
 s    8 1.00
                 11720  0.00070964594651845
                  1759  0.0054672722921914
                 400.8   0.027823118610189
                 113.7    0.10474773971146
                 37.03    0.28292084635691
                 13.27    0.44849523869833
                 5.025    0.27081688521277
                 1.013    0.01545029160744
 s    8 1.00
                 11720  -0.00031444341168873
                  1759  -0.0024821376810179
                 400.8  -0.012316355381583
                 113.7  -0.050538917343672
                 37.03   -0.13938490331632
                 13.27   -0.32507749481778
                 5.025   -0.22984830758785
                 1.013     1.0953793467883
 s    1 1.00
                0.3023                   1
 p    3 1.00
                  17.7   0.062679166281506
                 3.854    0.33353656587936
                 1.046    0.74123964163973
 p    1 1.00
                0.2753                   1
 d    1 1.00
                 1.185                   1

2 0
 s    3 1.00
                 13.01   0.033498726389998
                 1.962    0.23480080117413
                0.4446     0.8136829578829
 s    1 1.00
                 0.122                   1
 p    1 1.00
                 0.727                   1

3 0
 s    3 1.00
                 13.01   0.033498726389998
                 1.962    0.23480080117413
                0.4446     0.8136829578829
 s    1 1.00
                 0.122                   1
 p    1 1.00
                 0.727                   1

4 0
 s    8 1.00
                 11720  0.00070964594651845
                  1759  0.0054672722921914
                 400.8   0.027823118610189
                 113.7    0.10474773971146
                 37.03    0.28292084635691
                 13.27    0.44849523869833
                 5.025    0.27081688521277
                 1.013    0.01545029160744
 s    8 1.00
                 11720  -0.00031444341168873
                  1759  -0.0024821376810179
                 400.8  -0.012316355381583
                 113.7  -0.050538917343672
                 37.03   -0.13938490331632
                 13.27   -0.32507749481778
                 5.025   -0.22984830758785
                 1.013     1.0953793467883
 s    1 1.00
                0.3023                   1
 p    3 1.00
                  17.7   0.062679166281506
                 3.854    0.33353656587936
                 1.046    0.74123964163973
 p    1 1.00
                0.2753                   1
 d    1 1.00
                 1.185                   1

5 0
 s    8 1.00
                  6665  0.00069158396281299
                  1000  0.0053257961529341
                   228   0.027060721042034
                 64.71    0.10165684614077
                 21.06     0.2745748236174
                 7.495    0.44829431892377
                 2.797    0.28490261071525
                0.5215   0.015194859206082
 s    8 1.00
                  6665  -0.00029326965268655
                  1000  -0.0023180354739745
                   228  -0.011499786038565
                 64.71  -0.046826727009787
                 21.06   -0.12846616875047
                 7.495   -0.30126627246289
                 2.797   -0.25563070233011
                0.5215      1.093793361012
 s    1 1.00
                0.1596                   1
 p    3 1.00
                 9.439   0.056979251590039
                 2.002    0.31320721150073
                0.5456    0.76037674173753
 p    1 1.00
                0.1517                   1
 d    1 1.00
                  0.55                   1

6 0
 s    8 1.00
                  6665  0.00069158396281299
                  1000  0.0053257961529341
                   228   0.027060721042034
                 64.71    0.10165684614077
                 21.06     0.2745748236174
                 7.495    0.44829431892377
                 2.797    0.28490261071525
                0.5215   0.015194859206082
 s    8 1.00
                  6665  -0.00029326965268655
                  1000  -0.0023180354739745
                   228  -0.011499786038565
                 64.71  -0.046826727009787
                 21.06   -0.12846616875047
                 7.495   -0.30126627246289
                 2.797   -0.25563070233011
                0.5215      1.093793361012
 s    1 1.00
                0.1596                   1
 p    3 1.00
                 9.439   0.056979251590039
                 2.002    0.31320721150073
                0.5456    0.76037674173753
 p    1 1.00
                0.1517                   1
 d    1 1.00
                  0.55                   1

7 0
 s    8 1.00
                  6665  0.00069158396281299
                  1000  0.0053257961529341
                   228   0.027060721042034
                 64.71    0.10165684614077
                 21.06     0.2745748236174
                 7.495    0.44829431892377
                 2.797    0.28490261071525
                0.5215   0.015194859206082
 s    8 1.00
                  6665  -0.00029326965268655
                  1000  -0.0023180354739745
                   228  -0.011499786038565
                 64.71  -0.046826727009787
                 21.06   -0.12846616875047
                 7.495   -0.30126627246289
                 2.797   -0.25563070233011
                0.5215      1.093793361012
 s    1 1.00
                0.1596                   1
 p    3 1.00
                 9.439   0.056979251590039
                 2.002    0.31320721150073
                0.5456    0.76037674173753
 p    1 1.00
                0.1517                   1
 d    1 1.00
                  0.55                   1

8 0
 s    3 1.00
                 13.01   0.033498726389998
                 1.962    0.23480080117413
                0.4446     0.8136829578829
 s    1 1.00
                 0.122                   1
 p    1 1.00
                 0.727                   1

9 0
 s    8 1.00
                  6665  0.00069158396281299
                  1000  0.0053257961529341
                   228   0.027060721042034
                 64.71    0.10165684614077
                 21.06     0.2745748236174
                 7.495    0.44829431892377
                 2.797    0.28490261071525
                0.5215   0.015194859206082
 s    8 1.00
                  6665  -0.00029326965268655
                  1000  -0.0023180354739745
                   228  -0.011499786038565
                 64.71  -0.046826727009787
                 21.06   -0.12846616875047
                 7.495   -0.30126627246289
                 2.797   -0.25563070233011
                0.5215      1.093793361012
 s    1 1.00
                0.1596                   1
 p    3 1.00
                 9.439   0.056979251590039
                 2.002    0.31320721150073
                0.5456    0.76037674173753
 p    1 1.00
                0.1517                   1
 d    1 1.00
                  0.55                   1

10 0
 s    3 1.00
                 13.01   0.033498726389998
                 1.962    0.23480080117413
                0.4446     0.8136829578829
 s    1 1.00
                 0.122                   1
 p    1 1.00
                 0.727                   1

11 0
 s    3 1.00
                 13.01   0.033498726389998
                 1.962    0.23480080117413
                0.4446     0.8136829578829
 s    1 1.00
                 0.122                   1
 p    1 1.00
                 0.727                   1

12 0
 s    3 1.00
                 13.01   0.033498726389998
                 1.962    0.23480080117413
                0.4446     0.8136829578829
 s    1 1.00
                 0.122                   1
 p    1 1.00
                 0.727                   1

13 0
 s    8 1.00
                  6665  0.00069158396281299
                  1000  0.0053257961529341
                   228   0.027060721042034
                 64.71    0.10165684614077
                 21.06     0.2745748236174
                 7.495    0.44829431892377
                 2.797    0.28490261071525
                0.5215   0.015194859206082
 s    8 1.00
                  6665  -0.00029326965268655
                  1000  -0.0023180354739745
                   228  -0.011499786038565
                 64.71  -0.046826727009787
                 21.06   -0.12846616875047
                 7.495   -0.30126627246289
                 2.797   -0.25563070233011
                0.5215      1.093793361012
 s    1 1.00
                0.1596                   1
 p    3 1.00
                 9.439   0.056979251590039
                 2.002    0.31320721150073
                0.5456    0.76037674173753
 p    1 1.00
                0.1517                   1
 d    1 1.00
                  0.55                   1

14 0
 s    3 1.00
                 13.01   0.033498726389998
                 1.962    0.23480080117413
                0.4446     0.8136829578829
 s    1 1.00
                 0.122                   1
 p    1 1.00
                 0.727                   1

15 0
 s    3 1.00
                 13.01   0.033498726389998
                 1.962    0.23480080117413
                0.4446     0.8136829578829
 s    1 1.00
                 0.122                   1
 p    1 1.00
                 0.727                   1

16 0
 s    8 1.00
                  6665  0.00069158396281299
                  1000  0.0053257961529341
                   228   0.027060721042034
                 64.71    0.10165684614077
                 21.06     0.2745748236174
                 7.495    0.44829431892377
                 2.797    0.28490261071525
                0.5215   0.015194859206082
 s    8 1.00
                  6665  -0.00029326965268655
                  1000  -0.0023180354739745
                   228  -0.011499786038565
                 64.71  -0.046826727009787
                 21.06   -0.12846616875047
                 7.495   -0.30126627246289
                 2.797   -0.25563070233011
                0.5215      1.093793361012
 s    1 1.00
                0.1596                   1
 p    3 1.00
                 9.439   0.056979251590039
                 2.002    0.31320721150073
                0.5456    0.76037674173753
 p    1 1.00
                0.1517                   1
 d    1 1.00
                  0.55                   1

17 0
 s    3 1.00
                 13.01   0.033498726389998
                 1.962    0.23480080117413
                0.4446     0.8136829578829
 s    1 1.00
                 0.122                   1
 p    1 1.00
                 0.727                   1

18 0
 s    3 1.00
                 13.01   0.033498726389998
                 1.962    0.23480080117413
                0.4446     0.8136829578829
 s    1 1.00
                 0.122                   1
 p    1 1.00
                 0.727                   1

19 0
 s    8 1.00
                  6665  0.00069158396281299
                  1000  0.0053257961529341
                   228   0.027060721042034
                 64.71    0.10165684614077
                 21.06     0.2745748236174
                 7.495    0.44829431892377
                 2.797    0.28490261071525
                0.5215   0.015194859206082
 s    8 1.00
                  6665  -0.00029326965268655
                  1000  -0.0023180354739745
                   228  -0.011499786038565
                 64.71  -0.046826727009787
                 21.06   -0.12846616875047
                 7.495   -0.30126627246289
                 2.797   -0.25563070233011
                0.5215      1.093793361012
 s    1 1.00
                0.1596                   1
 p    3 1.00
                 9.439   0.056979251590039
                 2.002    0.31320721150073
                0.5456    0.76037674173753
 p    1 1.00
                0.1517                   1
 d    1 1.00
                  0.55                   1

20 0
 s    3 1.00
                 13.01   0.033498726389998
                 1.962    0.23480080117413
                0.4446     0.8136829578829
 s    1 1.00
                 0.122                   1
 p    1 1.00
                 0.727                   1

21 0
 s    8 1.00
                  6665  0.00069158396281299
                  1000  0.0053257961529341
                   228   0.027060721042034
                 64.71    0.10165684614077
                 21.06     0.2745748236174
                 7.495    0.44829431892377
                 2.797    0.28490261071525
                0.5215   0.015194859206082
 s    8 1.00
                  6665  -0.00029326965268655
                  1000  -0.0023180354739745
                   228  -0.011499786038565
                 64.71  -0.046826727009787
                 21.06   -0.12846616875047
                 7.495   -0.30126627246289
                 2.797   -0.25563070233011
                0.5215      1.093793361012
 s    1 1.00
                0.1596                   1
 p    3 1.00
                 9.439   0.056979251590039
                 2.002    0.31320721150073
                0.5456    0.76037674173753
 p    1 1.00
                0.1517                   1
 d    1 1.00
                  0.55                   1

22 0
 s    3 1.00
                 13.01   0.033498726389998
                 1.962    0.23480080117413
                0.4446     0.8136829578829
 s    1 1.00
                 0.122                   1
 p    1 1.00
                 0.727                   1

23 0
 s    3 1.00
                 13.01   0.033498726389998
                 1.962    0.23480080117413
                0.4446     0.8136829578829
 s    1 1.00
                 0.122                   1
 p    1 1.00
                 0.727                   1

24 0
 s    3 1.00
                 13.01   0.033498726389998
                 1.962    0.23480080117413
                0.4446     0.8136829578829
 s    1 1.00
                 0.122                   1
 p    1 1.00
                 0.727                   1

25 0
 s    8 1.00
                  6665  0.00069158396281299
                  1000  0.0053257961529341
                   228   0.027060721042034
                 64.71    0.10165684614077
                 21.06     0.2745748236174
                 7.495    0.44829431892377
                 2.797    0.28490261071525
                0.5215   0.015194859206082
 s    8 1.00
                  6665  -0.00029326965268655
                  1000  -0.0023180354739745
                   228  -0.011499786038565
                 64.71  -0.046826727009787
                 21.06   -0.12846616875047
                 7.495   -0.30126627246289
                 2.797   -0.25563070233011
                0.5215      1.093793361012
 s    1 1.00
                0.1596                   1
 p    3 1.00
                 9.439   0.056979251590039
                 2.002    0.31320721150073
                0.5456    0.76037674173753
 p    1 1.00
                0.1517                   1
 d    1 1.00
                  0.55                   1

26 0
 s    3 1.00
                 13.01   0.033498726389998
                 1.962    0.23480080117413
                0.4446     0.8136829578829
 s    1 1.00
                 0.122                   1
 p    1 1.00
                 0.727                   1

27 0
 s    3 1.00
                 13.01   0.033498726389998
                 1.962    0.23480080117413
                0.4446     0.8136829578829
 s    1 1.00
                 0.122                   1
 p    1 1.00
                 0.727                   1

28 0
 s    8 1.00
                  6665  0.00069158396281299
                  1000  0.0053257961529341
                   228   0.027060721042034
                 64.71    0.10165684614077
                 21.06     0.2745748236174
                 7.495    0.44829431892377
                 2.797    0.28490261071525
                0.5215   0.015194859206082
 s    8 1.00
                  6665  -0.00029326965268655
                  1000  -0.0023180354739745
                   228  -0.011499786038565
                 64.71  -0.046826727009787
                 21.06   -0.12846616875047
                 7.495   -0.30126627246289
                 2.797   -0.25563070233011
                0.5215      1.093793361012
 s    1 1.00
                0.1596                   1
 p    3 1.00
                 9.439   0.056979251590039
                 2.002    0.31320721150073
                0.5456    0.76037674173753
 p    1 1.00
                0.1517                   1
 d    1 1.00
                  0.55                   1

29 0
 s    3 1.00
                 13.01   0.033498726389998
                 1.962    0.23480080117413
                0.4446     0.8136829578829
 s    1 1.00
                 0.122                   1
 p    1 1.00
                 0.727                   1

30 0
 s    3 1.00
                 13.01   0.033498726389998
                 1.962    0.23480080117413
                0.4446     0.8136829578829
 s    1 1.00
                 0.122                   1
 p    1 1.00
                 0.727                   1

31 0
 s    8 1.00
                  6665  0.00069158396281299
                  1000  0.0053257961529341
                   228   0.027060721042034
                 64.71    0.10165684614077
                 21.06     0.2745748236174
                 7.495    0.44829431892377
                 2.797    0.28490261071525
                0.5215   0.015194859206082
 s    8 1.00
                  6665  -0.00029326965268655
                  1000  -0.0023180354739745
                   228  -0.011499786038565
                 64.71  -0.046826727009787
                 21.06   -0.12846616875047
                 7.495   -0.30126627246289
                 2.797   -0.25563070233011
                0.5215      1.093793361012
 s    1 1.00
                0.1596                   1
 p    3 1.00
                 9.439   0.056979251590039
                 2.002    0.31320721150073
                0.5456    0.76037674173753
 p    1 1.00
                0.1517                   1
 d    1 1.00
                  0.55                   1

32 0
 s    3 1.00
                 13.01   0.033498726389998
                 1.962    0.23480080117413
                0.4446     0.8136829578829
 s    1 1.00
                 0.122                   1
 p    1 1.00
                 0.727                   1

33 0
 s    3 1.00
                 13.01   0.033498726389998
                 1.962    0.23480080117413
                0.4446     0.8136829578829
 s    1 1.00
                 0.122                   1
 p    1 1.00
                 0.727                   1

34 0
 s    3 1.00
                 13.01   0.033498726389998
                 1.962    0.23480080117413
                0.4446     0.8136829578829
 s    1 1.00
                 0.122                   1
 p    1 1.00
                 0.727                   1

35 0
 s    3 1.00
                 13.01   0.033498726389998
                 1.962    0.23480080117413
                0.4446     0.8136829578829
 s    1 1.00
                 0.122                   1
 p    1 1.00
                 0.727                   1

36 0
 s    3 1.00
                 13.01   0.033498726389998
                 1.962    0.23480080117413
                0.4446     0.8136829578829
 s    1 1.00
                 0.122                   1
 p    1 1.00
                 0.727                   1

37 0
 s    3 1.00
                 13.01   0.033498726389998
                 1.962    0.23480080117413
                0.4446     0.8136829578829
 s    1 1.00
                 0.122                   1
 p    1 1.00
                 0.727                   1

[5d]
[7f]
[9g]

[MO]
 Sym= A
 Ene=               0
 Spin= Alpha
 Occup=    1.00000
   1    -0.00010494187598657
   2    -2.783128747203e-05
   3    -0.00029626906422663
   4    1.5329849365872e-06
   5    -8.1604465487865e-07
   6    0.0001237104879557
   7    -3.373811533843e-06
   8    -9.2030018030498e-06
   9    0.00024161167424465
  10    -0.00010944800402174
  11    -1.1494045678708e-07
  12    1.6201775623078e-06
  13    5.0528250657891e-06
  14    2.7226564416396e-07
  15    5.8154552783747e-05
  16    -7.3428252716317e-05
  17    -1.343582777932e-06
  18    5.4177812528559e-06
  19    0.00039340432981656
  20    3.7978319853034e-05
  21    -3.3951966993292e-05
  22    2.4736687647364e-07
  23    8.7627380019282e-06
  24    -5.6876123740071e-06
  25       1.0014278228224
  26    0.0022200019177188
  27    -0.0068847652357166
  28    -4.4751047111565e-06
  29    1.8646834755651e-05
  30    -0.0014800681233619
  31    1.7548011655371e-06
  32    -4.9159091180878e-06
  33    0.0022348434975367
  34    0.00023336211164941
  35    -2.6094564876825e-06
  36    5.4858098499116e-07
  37    5.9643744102556e-05
  38    -0.00015793307662279
  39    0.00030031413767008
  40    0.00042203523953155
  41    0.0018191614452513
  42    1.6078310540605e-05
  43    -1.1011587562065e-05
  44    4.7442209844885e-05
  45    5.7668590610191e-05
  46    -4.9696553342214e-05
  47    0.0036361816972819
  48    -0.00051843644328175
  49    -7.4125740231271e-06
  50    8.9070176639213e-07
  51    3.6159768030167e-05
  52    -0.00012564637036677
  53    -8.5246273736463e-05
  54    -0.00016770044167328
  55    0.0013418165329008
  56    8.3102146300798e-05
  57    -1.0912668219518e-05
  58    -3.9272346612095e-05
  59    -0.00037430465040338
  60    0.00045771094230626
  61    -0.00096783393847659
  62    -0.00011127424109279
  63    0.00015796733876666
  64    -0.00014976344585808
  65    5.3769896952218e-05
  66    -0.00012600613640988
  67    -3.6050833520244e-05
  68    -9.2269717315684e-05
  69    0.00041168895441599
  70    -6.730350214787e-05
  71    4.4024933239488e-05
  72    -6.7228090277381e-05
  73    0.00096944585373905
  74    -0.00073831672613757
  75    -0.00068939811577616
  76    -0.00013379478019544
  77    -0.00012960545080946
  78    9.4646078500248e-05
  79     5.73887605416e-05
  80    -0.0001464761034352
  81    -6.7055918738337e-05
  82    0.00019554845898808
  83    6.7961202934469e-05
  84    -5.0271508504279e-05
  85    5.190131985309e-05
  86    2.5440509894909e-05
  87    4.9834639480219e-05
  88    -0.00060227269591074
  89    -1.5815337578974e-05
  90    -1.6219501009549e-05
  91    1.3029773386258e-05
  92    0.00026773537875481
  93    0.00062896998236424
  94    -3.8194620291103e-05
  95    1.9041191769745e-05
  96    1.0952638728136e-05
  97    6.9921812956806e-06
  98    -1.9945469047947e-05
  99    -5.0085924088387e-05
 100    -3.4957426785514e-05
 101    -0.00016349241311724
 102    5.7362860460146e-06
 103    -9.9389770660005e-06
 104    7.6127546253033e-05
 105    -1.5334801175616e-05
 106    -0.00020204194306797
 107    -6.2411196487221e-05
 108    6.1620128639967e-06
 109    7.6741749495313e-05
 110    8.150508708014e-05
 111    -7.5329705623956e-05
 112    -4.2955297104199e-05
 113    2.0074360815747e-05
 114    7.0662946863334e-05
 115    -5.364588244177e-05
 116    -0.00010781740998554
 117    0.00091538097792616
 118    -2.5186804209177e-05
 119    -1.0913757328988e-05
 120    3.3950509168331e-05
 121    0.00026286667979696
 122    4.6819435471214e-05
 123    -0.00017640867539668
 124    -5.772997536438e-06
 125    1.4490766397146e-05
 126    1.2637680518893e-05
 127    -3.2315701003988e-05
 128    4.8567306570408e-05
 129    -1.408087957681e-05
 130    -0.00033009168407961
 131    7.5911106252926e-06
 132    5.4526659912255e-06
 133    3.0297221952727e-05
 134    2.0427372965141e-05
 135    -0.0001099246215299
 136    -1.7912372637614e-05
 137    -2.5366960972855e-05
 138    -2.3892744840537e-05
 139    -1.8876220070895e-05
 140    -3.4211593990789e-05
 141    0.00027356984098397
 142    7.3243967687867e-06
 143    -3.3232294390746e-06
 144    -6.9410785538745e-06
 145    -0.00019934659365324
 146    6.0778571478046e-05
 147    5.3472330882985e-05
 148    -2.1568384180541e-06
 149    4.3164433923287e-06
 150    -4.6824292006702e-06
 151    1.1341101844777e-05
 152    -3.4461032351586e-06
 153    -9.6602651643814e-05
 154    -9.8938969632577e-05
 155    -2.5639806980876e-05
 156    2.7599958512435e-05
 157    2.0177987080322e-05
 158    -2.5394718690036e-05
 159    -9.6706870217173e-05
 160    -5.8247491695965e-05
 161    -8.5910695223562e-06
 162    8.5273027574744e-06
 163    3.2786886076883e-06
 164    5.292590387545e-06
 165    -0.0003085149151541
 166    -2.110365217834e-05
 167     1.55595416292e-05
 168    7.6234077006533e-06
 169    0.00019401579401447
 170    -0.00018365266398796
 171    -0.00014454298324435
 172    -1.1616944899615e-06
 173    7.7952263493895e-06
 174    -1.1827186630041e-05
 175    2.4599488430947e-06
 176    -1.5200109704491e-05
 177    -1.6834794018385e-05
 178    8.2421346983644e-05
 179    -2.4056705801565e-06
 180    9.4436879889642e-07
 181    -4.0681128813202e-06
 182    1.6116619473962e-05
 183    2.7948861748241e-05
 184    -7.1183155041151e-05
 185    -6.2756588290407e-06
 186    4.4718158855743e-06
 187    6.7632682561609e-06
 188    0.00013527580377729
 189    -0.00010615482502624
 190    -0.00010371454062844
 191    5.429825192478e-07
 192    1.9130279165712e-06
 193    -6.7710826934814e-06
 194    -2.4617373413367e-06
 195    -5.4642856272191e-06
 196    -8.8770709069395e-06
 197    -1.4933984080401e-05
 198    4.6461261877455e-06
 199    1.9743524888294e-06
 200    -2.9833279123549e-06
 201    -9.9609563779352e-06
 202    9.6243699018982e-08
 203    -1.2081492662243e-05
 204    8.8241032846975e-06
 205    1.1370285785515e-05
 206    1.080348370792e-05
 207    6.8094027253207e-05
 208    -1.4399239365309e-05
 209    2.876946105978e-06
 210    1.5702467386667e-05
 211    -2.0780849433181e-05
 212    -3.532437812801e-05
 213    0.00025212345911777
 214    9.7807619426841e-06
 215    -2.9927144991429e-06
 216    -1.1481545689539e-05
 217    0.0001938428908805
 218    -5.308883429305e-05
 219    -7.9629924365504e-05
 220    -2.0320753634939e-06
 221    -1.6575698730347e-05
 222    5.623053476779e-06
 223    9.5712370501099e-06
 224    -2.0649182976636e-06
 225    2.7768196297493e-05
 226    6.041781023039e-05
 227    -1.2962881249698e-05
 228    -2.0504555231396e-06
 229    -4.7480359277902e-07
 230    1.0593644295315e-05
 231    4.8179839371291e-05
 232    -4.0267339168663e-06
 233    6.8429930304875e-06
 234    1.2354720256471e-05
 235    3.651810725989e-06
 236    5.3186211987105e-06
 237    -9.4629715752942e-05
 238    5.7277566922428e-06
 239    3.388907661681e-06
 240    -6.7760888143266e-06
 241    4.577020802183e-05
 242    -6.4290762994506e-05
 243    1.0361872179228e-05
 244    2.069468515833e-06
 245    2.2946105143128e-06
 246    -2.094171451694e-06
 247    -3.2685732956058e-07
 248    1.6559670455621e-06
 249    -2.2224192179994e-05
 250    1.0420873378682e-05
 251    -4.1529342022746e-06
 252    -5.412698106974e-07
 253    -1.180118021172e-09
 254    -2.2073378497411e-05
 255    5.5735308938222e-05
 256    2.6476691648018e-07
 257    3.9773889719175e-06
 258    -9.5961784463269e-07
 259    -1.0168371322177e-05
 260    -1.8943679128866e-05
 261    6.8222387169336e-05
 262    -5.4238358175585e-06