[Molden Format]
made by pyscf v[2.0.1]
[Atoms] (AU)
O   1   8     0.00000000000000     0.00000000000000    11.69764103529358
H   2   1     0.00000000000000     0.00000000000000     9.87423921339262
H   3   1    -0.05031916615174     1.78353065140343    12.07351273176025
O   4   8     0.00000000000000     0.00000000000000     2.31533471513237
C   5   6     0.00000000000000     0.00000000000000     0.00000000000000
C   6   6     2.01118073026938    -1.40227222164369    -1.50774939176400
C   7   6    -2.01249334291722     1.41331050329955    -1.50315905028694
H   8   1     3.32037363730244    -2.26721897153159    -0.13599698591495
C   9   6     3.45899267434009     0.28739631745591    -3.37437943254505
H   10   1     1.07662969841332    -2.94725144642667    -2.56541439481080
H   11   1    -2.67503415753480     0.18421555839588    -3.06194479365997
H   12   1    -1.07974048864772     3.03851734677796    -2.43674295017013
C   13   6    -4.21607110578555     2.32938802552922     0.11994162256091
H   14   1     4.24440173074564     1.93368664142019    -2.34976285512790
H   15   1     2.15020713235517     1.04714335134846    -4.81494497423699
C   16   6     5.60746363007797    -1.12419643481196    -4.70268606082550
H   17   1    -3.46838323670267     3.50951302338067     1.66946842715333
H   18   1    -5.11873485366228     0.68575958301209     1.04047743976495
C   19   6    -6.18314754751344     3.80909592987882    -1.39656589068747
H   20   1     6.93011263717176    -1.87550812453645    -3.26656317360070
C   21   6     7.06356622236532     0.52877932406334    -6.57829775293605
H   22   1     4.82318879258361    -2.78573437948532    -5.70504560381835
H   23   1    -6.91582688743803     2.61304780074712    -2.95074552451969
H   24   1    -5.26532430573853     5.45420349051338    -2.31005832200284
C   25   6    -8.39941882261433     4.73263980500213     0.21800571437956
H   26   1     7.83338371486801     2.19084139882824    -5.57093109900697
H   27   1     5.73544244039420     1.27376866537418    -8.01071492370229
C   28   6     9.21124858443101    -0.89699110072176    -7.88926949186242
H   29   1    -7.66272760055236     5.92277078003992     1.77035591474408
H   30   1    -9.31497248082589     3.08753015622020     1.12614408368786
C   31   6   -10.35481709231879     6.21833079391143    -1.30905206253246
H   32   1    10.58815905329501    -1.61074586756696    -6.49512691622620
H   33   1    10.23506248045667     0.32468009384095    -9.23072870921204
H   34   1     8.47665842847139    -2.53598436989925    -8.94921964622535
H   35   1    -9.48948872868064     7.90013588951020    -2.18823918416067
H   36   1   -11.93332513000955     6.86460487874102    -0.11255798845995
H   37   1   -11.15126291841033     5.04495968327630    -2.83849898862534
[GTO]
1 0
 s    8 1.00
                 11720  0.00070964594651845
                  1759  0.0054672722921914
                 400.8   0.027823118610189
                 113.7    0.10474773971146
                 37.03    0.28292084635691
                 13.27    0.44849523869833
                 5.025    0.27081688521277
                 1.013    0.01545029160744
 s    8 1.00
                 11720  -0.00031444341168873
                  1759  -0.0024821376810179
                 400.8  -0.012316355381583
                 113.7  -0.050538917343672
                 37.03   -0.13938490331632
                 13.27   -0.32507749481778
                 5.025   -0.22984830758785
                 1.013     1.0953793467883
 s    1 1.00
                0.3023                   1
 p    3 1.00
                  17.7   0.062679166281506
                 3.854    0.33353656587936
                 1.046    0.74123964163973
 p    1 1.00
                0.2753                   1
 d    1 1.00
                 1.185                   1

2 0
 s    3 1.00
                 13.01   0.033498726389998
                 1.962    0.23480080117413
                0.4446     0.8136829578829
 s    1 1.00
                 0.122                   1
 p    1 1.00
                 0.727                   1

3 0
 s    3 1.00
                 13.01   0.033498726389998
                 1.962    0.23480080117413
                0.4446     0.8136829578829
 s    1 1.00
                 0.122                   1
 p    1 1.00
                 0.727                   1

4 0
 s    8 1.00
                 11720  0.00070964594651845
                  1759  0.0054672722921914
                 400.8   0.027823118610189
                 113.7    0.10474773971146
                 37.03    0.28292084635691
                 13.27    0.44849523869833
                 5.025    0.27081688521277
                 1.013    0.01545029160744
 s    8 1.00
                 11720  -0.00031444341168873
                  1759  -0.0024821376810179
                 400.8  -0.012316355381583
                 113.7  -0.050538917343672
                 37.03   -0.13938490331632
                 13.27   -0.32507749481778
                 5.025   -0.22984830758785
                 1.013     1.0953793467883
 s    1 1.00
                0.3023                   1
 p    3 1.00
                  17.7   0.062679166281506
                 3.854    0.33353656587936
                 1.046    0.74123964163973
 p    1 1.00
                0.2753                   1
 d    1 1.00
                 1.185                   1

5 0
 s    8 1.00
                  6665  0.00069158396281299
                  1000  0.0053257961529341
                   228   0.027060721042034
                 64.71    0.10165684614077
                 21.06     0.2745748236174
                 7.495    0.44829431892377
                 2.797    0.28490261071525
                0.5215   0.015194859206082
 s    8 1.00
                  6665  -0.00029326965268655
                  1000  -0.0023180354739745
                   228  -0.011499786038565
                 64.71  -0.046826727009787
                 21.06   -0.12846616875047
                 7.495   -0.30126627246289
                 2.797   -0.25563070233011
                0.5215      1.093793361012
 s    1 1.00
                0.1596                   1
 p    3 1.00
                 9.439   0.056979251590039
                 2.002    0.31320721150073
                0.5456    0.76037674173753
 p    1 1.00
                0.1517                   1
 d    1 1.00
                  0.55                   1

6 0
 s    8 1.00
                  6665  0.00069158396281299
                  1000  0.0053257961529341
                   228   0.027060721042034
                 64.71    0.10165684614077
                 21.06     0.2745748236174
                 7.495    0.44829431892377
                 2.797    0.28490261071525
                0.5215   0.015194859206082
 s    8 1.00
                  6665  -0.00029326965268655
                  1000  -0.0023180354739745
                   228  -0.011499786038565
                 64.71  -0.046826727009787
                 21.06   -0.12846616875047
                 7.495   -0.30126627246289
                 2.797   -0.25563070233011
                0.5215      1.093793361012
 s    1 1.00
                0.1596                   1
 p    3 1.00
                 9.439   0.056979251590039
                 2.002    0.31320721150073
                0.5456    0.76037674173753
 p    1 1.00
                0.1517                   1
 d    1 1.00
                  0.55                   1

7 0
 s    8 1.00
                  6665  0.00069158396281299
                  1000  0.0053257961529341
                   228   0.027060721042034
                 64.71    0.10165684614077
                 21.06     0.2745748236174
                 7.495    0.44829431892377
                 2.797    0.28490261071525
                0.5215   0.015194859206082
 s    8 1.00
                  6665  -0.00029326965268655
                  1000  -0.0023180354739745
                   228  -0.011499786038565
                 64.71  -0.046826727009787
                 21.06   -0.12846616875047
                 7.495   -0.30126627246289
                 2.797   -0.25563070233011
                0.5215      1.093793361012
 s    1 1.00
                0.1596                   1
 p    3 1.00
                 9.439   0.056979251590039
                 2.002    0.31320721150073
                0.5456    0.76037674173753
 p    1 1.00
                0.1517                   1
 d    1 1.00
                  0.55                   1

8 0
 s    3 1.00
                 13.01   0.033498726389998
                 1.962    0.23480080117413
                0.4446     0.8136829578829
 s    1 1.00
                 0.122                   1
 p    1 1.00
                 0.727                   1

9 0
 s    8 1.00
                  6665  0.00069158396281299
                  1000  0.0053257961529341
                   228   0.027060721042034
                 64.71    0.10165684614077
                 21.06     0.2745748236174
                 7.495    0.44829431892377
                 2.797    0.28490261071525
                0.5215   0.015194859206082
 s    8 1.00
                  6665  -0.00029326965268655
                  1000  -0.0023180354739745
                   228  -0.011499786038565
                 64.71  -0.046826727009787
                 21.06   -0.12846616875047
                 7.495   -0.30126627246289
                 2.797   -0.25563070233011
                0.5215      1.093793361012
 s    1 1.00
                0.1596                   1
 p    3 1.00
                 9.439   0.056979251590039
                 2.002    0.31320721150073
                0.5456    0.76037674173753
 p    1 1.00
                0.1517                   1
 d    1 1.00
                  0.55                   1

10 0
 s    3 1.00
                 13.01   0.033498726389998
                 1.962    0.23480080117413
                0.4446     0.8136829578829
 s    1 1.00
                 0.122                   1
 p    1 1.00
                 0.727                   1

11 0
 s    3 1.00
                 13.01   0.033498726389998
                 1.962    0.23480080117413
                0.4446     0.8136829578829
 s    1 1.00
                 0.122                   1
 p    1 1.00
                 0.727                   1

12 0
 s    3 1.00
                 13.01   0.033498726389998
                 1.962    0.23480080117413
                0.4446     0.8136829578829
 s    1 1.00
                 0.122                   1
 p    1 1.00
                 0.727                   1

13 0
 s    8 1.00
                  6665  0.00069158396281299
                  1000  0.0053257961529341
                   228   0.027060721042034
                 64.71    0.10165684614077
                 21.06     0.2745748236174
                 7.495    0.44829431892377
                 2.797    0.28490261071525
                0.5215   0.015194859206082
 s    8 1.00
                  6665  -0.00029326965268655
                  1000  -0.0023180354739745
                   228  -0.011499786038565
                 64.71  -0.046826727009787
                 21.06   -0.12846616875047
                 7.495   -0.30126627246289
                 2.797   -0.25563070233011
                0.5215      1.093793361012
 s    1 1.00
                0.1596                   1
 p    3 1.00
                 9.439   0.056979251590039
                 2.002    0.31320721150073
                0.5456    0.76037674173753
 p    1 1.00
                0.1517                   1
 d    1 1.00
                  0.55                   1

14 0
 s    3 1.00
                 13.01   0.033498726389998
                 1.962    0.23480080117413
                0.4446     0.8136829578829
 s    1 1.00
                 0.122                   1
 p    1 1.00
                 0.727                   1

15 0
 s    3 1.00
                 13.01   0.033498726389998
                 1.962    0.23480080117413
                0.4446     0.8136829578829
 s    1 1.00
                 0.122                   1
 p    1 1.00
                 0.727                   1

16 0
 s    8 1.00
                  6665  0.00069158396281299
                  1000  0.0053257961529341
                   228   0.027060721042034
                 64.71    0.10165684614077
                 21.06     0.2745748236174
                 7.495    0.44829431892377
                 2.797    0.28490261071525
                0.5215   0.015194859206082
 s    8 1.00
                  6665  -0.00029326965268655
                  1000  -0.0023180354739745
                   228  -0.011499786038565
                 64.71  -0.046826727009787
                 21.06   -0.12846616875047
                 7.495   -0.30126627246289
                 2.797   -0.25563070233011
                0.5215      1.093793361012
 s    1 1.00
                0.1596                   1
 p    3 1.00
                 9.439   0.056979251590039
                 2.002    0.31320721150073
                0.5456    0.76037674173753
 p    1 1.00
                0.1517                   1
 d    1 1.00
                  0.55                   1

17 0
 s    3 1.00
                 13.01   0.033498726389998
                 1.962    0.23480080117413
                0.4446     0.8136829578829
 s    1 1.00
                 0.122                   1
 p    1 1.00
                 0.727                   1

18 0
 s    3 1.00
                 13.01   0.033498726389998
                 1.962    0.23480080117413
                0.4446     0.8136829578829
 s    1 1.00
                 0.122                   1
 p    1 1.00
                 0.727                   1

19 0
 s    8 1.00
                  6665  0.00069158396281299
                  1000  0.0053257961529341
                   228   0.027060721042034
                 64.71    0.10165684614077
                 21.06     0.2745748236174
                 7.495    0.44829431892377
                 2.797    0.28490261071525
                0.5215   0.015194859206082
 s    8 1.00
                  6665  -0.00029326965268655
                  1000  -0.0023180354739745
                   228  -0.011499786038565
                 64.71  -0.046826727009787
                 21.06   -0.12846616875047
                 7.495   -0.30126627246289
                 2.797   -0.25563070233011
                0.5215      1.093793361012
 s    1 1.00
                0.1596                   1
 p    3 1.00
                 9.439   0.056979251590039
                 2.002    0.31320721150073
                0.5456    0.76037674173753
 p    1 1.00
                0.1517                   1
 d    1 1.00
                  0.55                   1

20 0
 s    3 1.00
                 13.01   0.033498726389998
                 1.962    0.23480080117413
                0.4446     0.8136829578829
 s    1 1.00
                 0.122                   1
 p    1 1.00
                 0.727                   1

21 0
 s    8 1.00
                  6665  0.00069158396281299
                  1000  0.0053257961529341
                   228   0.027060721042034
                 64.71    0.10165684614077
                 21.06     0.2745748236174
                 7.495    0.44829431892377
                 2.797    0.28490261071525
                0.5215   0.015194859206082
 s    8 1.00
                  6665  -0.00029326965268655
                  1000  -0.0023180354739745
                   228  -0.011499786038565
                 64.71  -0.046826727009787
                 21.06   -0.12846616875047
                 7.495   -0.30126627246289
                 2.797   -0.25563070233011
                0.5215      1.093793361012
 s    1 1.00
                0.1596                   1
 p    3 1.00
                 9.439   0.056979251590039
                 2.002    0.31320721150073
                0.5456    0.76037674173753
 p    1 1.00
                0.1517                   1
 d    1 1.00
                  0.55                   1

22 0
 s    3 1.00
                 13.01   0.033498726389998
                 1.962    0.23480080117413
                0.4446     0.8136829578829
 s    1 1.00
                 0.122                   1
 p    1 1.00
                 0.727                   1

23 0
 s    3 1.00
                 13.01   0.033498726389998
                 1.962    0.23480080117413
                0.4446     0.8136829578829
 s    1 1.00
                 0.122                   1
 p    1 1.00
                 0.727                   1

24 0
 s    3 1.00
                 13.01   0.033498726389998
                 1.962    0.23480080117413
                0.4446     0.8136829578829
 s    1 1.00
                 0.122                   1
 p    1 1.00
                 0.727                   1

25 0
 s    8 1.00
                  6665  0.00069158396281299
                  1000  0.0053257961529341
                   228   0.027060721042034
                 64.71    0.10165684614077
                 21.06     0.2745748236174
                 7.495    0.44829431892377
                 2.797    0.28490261071525
                0.5215   0.015194859206082
 s    8 1.00
                  6665  -0.00029326965268655
                  1000  -0.0023180354739745
                   228  -0.011499786038565
                 64.71  -0.046826727009787
                 21.06   -0.12846616875047
                 7.495   -0.30126627246289
                 2.797   -0.25563070233011
                0.5215      1.093793361012
 s    1 1.00
                0.1596                   1
 p    3 1.00
                 9.439   0.056979251590039
                 2.002    0.31320721150073
                0.5456    0.76037674173753
 p    1 1.00
                0.1517                   1
 d    1 1.00
                  0.55                   1

26 0
 s    3 1.00
                 13.01   0.033498726389998
                 1.962    0.23480080117413
                0.4446     0.8136829578829
 s    1 1.00
                 0.122                   1
 p    1 1.00
                 0.727                   1

27 0
 s    3 1.00
                 13.01   0.033498726389998
                 1.962    0.23480080117413
                0.4446     0.8136829578829
 s    1 1.00
                 0.122                   1
 p    1 1.00
                 0.727                   1

28 0
 s    8 1.00
                  6665  0.00069158396281299
                  1000  0.0053257961529341
                   228   0.027060721042034
                 64.71    0.10165684614077
                 21.06     0.2745748236174
                 7.495    0.44829431892377
                 2.797    0.28490261071525
                0.5215   0.015194859206082
 s    8 1.00
                  6665  -0.00029326965268655
                  1000  -0.0023180354739745
                   228  -0.011499786038565
                 64.71  -0.046826727009787
                 21.06   -0.12846616875047
                 7.495   -0.30126627246289
                 2.797   -0.25563070233011
                0.5215      1.093793361012
 s    1 1.00
                0.1596                   1
 p    3 1.00
                 9.439   0.056979251590039
                 2.002    0.31320721150073
                0.5456    0.76037674173753
 p    1 1.00
                0.1517                   1
 d    1 1.00
                  0.55                   1

29 0
 s    3 1.00
                 13.01   0.033498726389998
                 1.962    0.23480080117413
                0.4446     0.8136829578829
 s    1 1.00
                 0.122                   1
 p    1 1.00
                 0.727                   1

30 0
 s    3 1.00
                 13.01   0.033498726389998
                 1.962    0.23480080117413
                0.4446     0.8136829578829
 s    1 1.00
                 0.122                   1
 p    1 1.00
                 0.727                   1

31 0
 s    8 1.00
                  6665  0.00069158396281299
                  1000  0.0053257961529341
                   228   0.027060721042034
                 64.71    0.10165684614077
                 21.06     0.2745748236174
                 7.495    0.44829431892377
                 2.797    0.28490261071525
                0.5215   0.015194859206082
 s    8 1.00
                  6665  -0.00029326965268655
                  1000  -0.0023180354739745
                   228  -0.011499786038565
                 64.71  -0.046826727009787
                 21.06   -0.12846616875047
                 7.495   -0.30126627246289
                 2.797   -0.25563070233011
                0.5215      1.093793361012
 s    1 1.00
                0.1596                   1
 p    3 1.00
                 9.439   0.056979251590039
                 2.002    0.31320721150073
                0.5456    0.76037674173753
 p    1 1.00
                0.1517                   1
 d    1 1.00
                  0.55                   1

32 0
 s    3 1.00
                 13.01   0.033498726389998
                 1.962    0.23480080117413
                0.4446     0.8136829578829
 s    1 1.00
                 0.122                   1
 p    1 1.00
                 0.727                   1

33 0
 s    3 1.00
                 13.01   0.033498726389998
                 1.962    0.23480080117413
                0.4446     0.8136829578829
 s    1 1.00
                 0.122                   1
 p    1 1.00
                 0.727                   1

34 0
 s    3 1.00
                 13.01   0.033498726389998
                 1.962    0.23480080117413
                0.4446     0.8136829578829
 s    1 1.00
                 0.122                   1
 p    1 1.00
                 0.727                   1

35 0
 s    3 1.00
                 13.01   0.033498726389998
                 1.962    0.23480080117413
                0.4446     0.8136829578829
 s    1 1.00
                 0.122                   1
 p    1 1.00
                 0.727                   1

36 0
 s    3 1.00
                 13.01   0.033498726389998
                 1.962    0.23480080117413
                0.4446     0.8136829578829
 s    1 1.00
                 0.122                   1
 p    1 1.00
                 0.727                   1

37 0
 s    3 1.00
                 13.01   0.033498726389998
                 1.962    0.23480080117413
                0.4446     0.8136829578829
 s    1 1.00
                 0.122                   1
 p    1 1.00
                 0.727                   1

[5d]
[7f]
[9g]

[MO]
 Sym= A
 Ene=               0
 Spin= Alpha
 Occup=    1.00000
   1    1.8466353679041e-05
   2    8.1106382494746e-06
   3    -3.2738587534782e-05
   4    3.247662858037e-08
   5    -1.233855562287e-06
   6    3.5587643813758e-07
   7    -2.2633507460201e-07
   8    8.1624661324269e-06
   9    2.5481497181574e-05
  10    -4.8574011530358e-06
  11    -9.6805635005443e-09
  12    3.8841169325709e-07
  13    -4.2100507741431e-07
  14    -2.3409926541679e-08
  15    3.6293093327555e-06
  16    5.0094004144545e-05
  17    1.8797027433311e-08
  18    -5.1096939744156e-07
  19    1.5694378148334e-05
  20    1.7063669032045e-06
  21    -2.1402756893743e-05
  22    -8.1976917862819e-08
  23    2.8607325529891e-06
  24    -6.6507317979534e-07
  25      -1.0013572102007
  26    -0.001941619961075
  27    0.0067486214966319
  28    4.4853367738795e-06
  29    -7.1473603593465e-06
  30    0.0016625588240541
  31    4.3015402339197e-07
  32    9.8614722351677e-07
  33    -0.0018023577540959
  34    -0.00013187259178792
  35    3.0591978626383e-06
  36    -1.3019667609278e-06
  37    -6.7820510086928e-05
  38     0.000176674788977
  39    -0.00027059054435041
  40    -0.00036512887309584
  41    -0.001385151706482
  42    -1.4904745293373e-05
  43    1.002228017975e-05
  44    1.7328092753989e-05
  45    -8.2724484246988e-05
  46    6.3229827237847e-05
  47    -0.0035222223026963
  48    0.00054302972207621
  49    8.6625635246943e-06
  50    -2.5039523557042e-06
  51    -2.8382599894477e-05
  52    0.00010651897159596
  53    8.5117035059777e-05
  54    0.00016638393881685
  55    -0.0013645613121845
  56    -7.8097617574163e-05
  57    7.4112406826964e-06
  58    3.6540348455253e-05
  59    0.00042300834388574
  60    -0.00047536722941155
  61    0.00091671811351055
  62    0.00011813988918725
  63    -0.00015035505358496
  64    0.00014285695093926
  65    -5.5351457779506e-05
  66    0.00013093491505813
  67    4.0745752075733e-05
  68    9.9015143527016e-05
  69    -0.00051035161642152
  70    6.0903049956692e-05
  71    -3.9779259344549e-05
  72    6.2805452644287e-05
  73    -0.00099666743327169
  74    0.00076845877263522
  75    0.00063163376306239
  76    0.00014170071517943
  77    0.00012060319818122
  78    -8.9672633934423e-05
  79    -5.930225762361e-05
  80    0.00015264161349734
  81    6.5850411025903e-05
  82    -0.00020564781282523
  83    -6.5770351460379e-05
  84    4.8290038023891e-05
  85    -4.9342839569001e-05
  86    -2.4963826581258e-05
  87    -4.8792024118052e-05
  88    0.00060062775017697
  89    1.6178788004149e-05
  90    1.6972301486683e-05
  91    -1.2482541782194e-05
  92    -0.00025516353121888
  93    -0.00061964676399136
  94    2.0108819992385e-05
  95    -1.7895048429704e-05
  96    -1.1057603797682e-05
  97    -7.0073268781275e-06
  98    2.0905829064347e-05
  99    4.5071179372667e-05
 100    3.6320051302107e-05
 101    0.00015675315708346
 102    -9.8885285724261e-06
 103    9.6247591242148e-06
 104    -7.3870077802717e-05
 105    1.7469511576476e-05
 106    0.00019945598050687
 107    6.4605652343288e-05
 108    -1.1871703416659e-05
 109    -7.4301859139152e-05
 110    -7.7298107466548e-05
 111    5.7072695092156e-05
 112    4.5837816878848e-05
 113    -1.8084138230409e-05
 114    -6.9269782829163e-05
 115    5.0103262449117e-05
 116     0.000102038664333
 117    -0.00083775822076366
 118    2.6223907203372e-05
 119    9.9359588853219e-06
 120    -3.301209482924e-05
 121    -0.00030060298034812
 122    -2.8147736081478e-05
 123    0.00013034293430484
 124    6.5823795490634e-06
 125     -1.2705160496e-05
 126    -1.6191635519304e-05
 127    3.2132781268717e-05
 128    -4.9714357160449e-05
 129    1.8813254775197e-05
 130    0.00031889642462811
 131    -7.3738275031605e-06
 132    -5.8353608779929e-06
 133    -2.9088276317461e-05
 134    -2.5898479998579e-05
 135    0.00011885676401928
 136    1.341210467437e-05
 137    2.3818212359286e-05
 138    2.6433620163297e-05
 139    2.0984776839065e-05
 140    3.7928979052706e-05
 141    -0.00028382820757998
 142    -8.3524384127985e-06
 143    2.1619313290419e-06
 144    6.6105897590259e-06
 145    0.00022883157105923
 146    -5.0456107899398e-05
 147    -6.4589435063612e-05
 148    2.3373937669967e-06
 149    -3.0651086763747e-06
 150    3.3284317610138e-06
 151    -1.1740933146795e-05
 152    4.965309030785e-06
 153    9.7119074348907e-05
 154    0.00011695704944787
 155    2.5626739935627e-05
 156    -3.0355440235913e-05
 157    -2.0805956860145e-05
 158    2.586840161238e-05
 159    9.0095655069641e-05
 160    5.9569699560856e-05
 161    7.1001254101284e-06
 162    -5.9556947670304e-06
 163    2.7537325493384e-06
 164    4.8515711093117e-06
 165    0.00023023737975444
 166    2.0837780654875e-05
 167    -1.5427348605194e-05
 168    -9.0602040948916e-06
 169    -0.00023762059654376
 170    0.00021453098354558
 171    0.00012833797135192
 172    3.1011896543913e-06
 173    -9.9987935102436e-06
 174    1.360889716282e-05
 175    -3.4016489616962e-06
 176    1.859953536642e-05
 177    1.5768636136167e-05
 178    -8.2844778981711e-05
 179    6.635544555651e-07
 180    -2.0538782457861e-06
 181    5.0300595950428e-06
 182    -1.493391242919e-05
 183    -2.586833905384e-05
 184    6.3840291292233e-05
 185    5.9962873708109e-06
 186    -3.9576611060779e-06
 187    -6.3346394971377e-06
 188    -0.00012510288405026
 189    0.00010200217090888
 190    8.295474956683e-05
 191    -1.3711305086708e-06
 192    -1.8395415458068e-06
 193    7.7866340211913e-06
 194    3.0105245779515e-06
 195    4.8589560831642e-06
 196    1.3835873933105e-05
 197    1.8372455018222e-05
 198    -5.6502520987711e-06
 199    -1.9859715679269e-06
 200    3.6487680611536e-06
 201    1.3873611622613e-05
 202    -3.6342521584555e-06
 203    1.2997341022852e-05
 204    -1.0157480222839e-05
 205    -1.1893643973301e-05
 206    -7.7856171241845e-06
 207    -6.7670357602078e-05
 208    1.6357872098637e-05
 209    -3.994637469478e-06
 210    -1.5591400735976e-05
 211    2.0731319740731e-05
 212    3.5554258662444e-05
 213    -0.0002488215645378
 214    -9.9647287950288e-06
 215    4.0189527523047e-06
 216    1.1141178565288e-05
 217    -0.00019861916228513
 218    5.4839717859063e-05
 219    7.8523252184793e-05
 220    2.0495153905493e-06
 221    1.7080795503019e-05
 222    -5.7757127523464e-06
 223    -9.507166851092e-06
 224    1.9268387915178e-06
 225    -2.4896643919699e-05
 226    -5.3541735569234e-05
 227    1.2213695815273e-05
 228    1.8227262478783e-06
 229    9.6253247760239e-07
 230    -9.5038099483834e-06
 231    -5.4395675015774e-05
 232    3.9680213712767e-06
 233    -6.2630410490211e-06
 234    -1.1952372902549e-05
 235    -2.2378259281091e-06
 236    -2.5806807430544e-06
 237    7.7077539557437e-05
 238    -5.3740400104224e-06
 239    -3.8578959578405e-06
 240    6.8641826158314e-06
 241    -3.6487880459222e-05
 242    6.1392553661616e-05
 243    -1.6147176399828e-05
 244    -1.9268421395342e-06
 245    -1.7056577379927e-06
 246    2.1514391244019e-06
 247    -1.3130813885042e-07
 248    -1.1188747345488e-06
 249    2.3176310101844e-05
 250    -1.248543063284e-05
 251    4.3076115620849e-06
 252    7.1693835159555e-07
 253    1.4942542201266e-08
 254    2.0989245997437e-05
 255    -5.4287762753505e-05
 256    2.9843880433001e-07
 257    -3.9680020804774e-06
 258    8.3376349087802e-07
 259    1.2449252685501e-05
 260    2.3437614069378e-05
 261    -7.9789790585975e-05
 262    6.7553229340083e-06
 263    -1.748291963878e-06