[Molden Format]
made by pyscf v[2.0.1]
[Atoms] (AU)
O   1   8     0.00000000000000     0.00000000000000     7.54024356125045
H   2   1     0.00000000000000     0.00000000000000     5.71684173934948
H   3   1    -0.05031916615174     1.78353065140343     7.91611525771711
O   4   8     0.00000000000000     0.00000000000000     2.31533471513237
C   5   6     0.00000000000000     0.00000000000000     0.00000000000000
C   6   6     2.01118073026938    -1.40227222164369    -1.50774939176400
C   7   6    -2.01249334291722     1.41331050329955    -1.50315905028694
H   8   1     3.32037363730244    -2.26721897153159    -0.13599698591495
C   9   6     3.45899267434009     0.28739631745591    -3.37437943254505
H   10   1     1.07662969841332    -2.94725144642667    -2.56541439481080
H   11   1    -2.67503415753480     0.18421555839588    -3.06194479365997
H   12   1    -1.07974048864772     3.03851734677796    -2.43674295017013
C   13   6    -4.21607110578555     2.32938802552922     0.11994162256091
H   14   1     4.24440173074564     1.93368664142019    -2.34976285512790
H   15   1     2.15020713235517     1.04714335134846    -4.81494497423699
C   16   6     5.60746363007797    -1.12419643481196    -4.70268606082550
H   17   1    -3.46838323670267     3.50951302338067     1.66946842715333
H   18   1    -5.11873485366228     0.68575958301209     1.04047743976495
C   19   6    -6.18314754751344     3.80909592987882    -1.39656589068747
H   20   1     6.93011263717176    -1.87550812453645    -3.26656317360070
C   21   6     7.06356622236532     0.52877932406334    -6.57829775293605
H   22   1     4.82318879258361    -2.78573437948532    -5.70504560381835
H   23   1    -6.91582688743803     2.61304780074712    -2.95074552451969
H   24   1    -5.26532430573853     5.45420349051338    -2.31005832200284
C   25   6    -8.39941882261433     4.73263980500213     0.21800571437956
H   26   1     7.83338371486801     2.19084139882824    -5.57093109900697
H   27   1     5.73544244039420     1.27376866537418    -8.01071492370229
C   28   6     9.21124858443101    -0.89699110072176    -7.88926949186242
H   29   1    -7.66272760055236     5.92277078003992     1.77035591474408
H   30   1    -9.31497248082589     3.08753015622020     1.12614408368786
C   31   6   -10.35481709231879     6.21833079391143    -1.30905206253246
H   32   1    10.58815905329501    -1.61074586756696    -6.49512691622620
H   33   1    10.23506248045667     0.32468009384095    -9.23072870921204
H   34   1     8.47665842847139    -2.53598436989925    -8.94921964622535
H   35   1    -9.48948872868064     7.90013588951020    -2.18823918416067
H   36   1   -11.93332513000955     6.86460487874102    -0.11255798845995
H   37   1   -11.15126291841033     5.04495968327630    -2.83849898862534
[GTO]
1 0
 s    8 1.00
                 11720  0.00070964594651845
                  1759  0.0054672722921914
                 400.8   0.027823118610189
                 113.7    0.10474773971146
                 37.03    0.28292084635691
                 13.27    0.44849523869833
                 5.025    0.27081688521277
                 1.013    0.01545029160744
 s    8 1.00
                 11720  -0.00031444341168873
                  1759  -0.0024821376810179
                 400.8  -0.012316355381583
                 113.7  -0.050538917343672
                 37.03   -0.13938490331632
                 13.27   -0.32507749481778
                 5.025   -0.22984830758785
                 1.013     1.0953793467883
 s    1 1.00
                0.3023                   1
 p    3 1.00
                  17.7   0.062679166281506
                 3.854    0.33353656587936
                 1.046    0.74123964163973
 p    1 1.00
                0.2753                   1
 d    1 1.00
                 1.185                   1

2 0
 s    3 1.00
                 13.01   0.033498726389998
                 1.962    0.23480080117413
                0.4446     0.8136829578829
 s    1 1.00
                 0.122                   1
 p    1 1.00
                 0.727                   1

3 0
 s    3 1.00
                 13.01   0.033498726389998
                 1.962    0.23480080117413
                0.4446     0.8136829578829
 s    1 1.00
                 0.122                   1
 p    1 1.00
                 0.727                   1

4 0
 s    8 1.00
                 11720  0.00070964594651845
                  1759  0.0054672722921914
                 400.8   0.027823118610189
                 113.7    0.10474773971146
                 37.03    0.28292084635691
                 13.27    0.44849523869833
                 5.025    0.27081688521277
                 1.013    0.01545029160744
 s    8 1.00
                 11720  -0.00031444341168873
                  1759  -0.0024821376810179
                 400.8  -0.012316355381583
                 113.7  -0.050538917343672
                 37.03   -0.13938490331632
                 13.27   -0.32507749481778
                 5.025   -0.22984830758785
                 1.013     1.0953793467883
 s    1 1.00
                0.3023                   1
 p    3 1.00
                  17.7   0.062679166281506
                 3.854    0.33353656587936
                 1.046    0.74123964163973
 p    1 1.00
                0.2753                   1
 d    1 1.00
                 1.185                   1

5 0
 s    8 1.00
                  6665  0.00069158396281299
                  1000  0.0053257961529341
                   228   0.027060721042034
                 64.71    0.10165684614077
                 21.06     0.2745748236174
                 7.495    0.44829431892377
                 2.797    0.28490261071525
                0.5215   0.015194859206082
 s    8 1.00
                  6665  -0.00029326965268655
                  1000  -0.0023180354739745
                   228  -0.011499786038565
                 64.71  -0.046826727009787
                 21.06   -0.12846616875047
                 7.495   -0.30126627246289
                 2.797   -0.25563070233011
                0.5215      1.093793361012
 s    1 1.00
                0.1596                   1
 p    3 1.00
                 9.439   0.056979251590039
                 2.002    0.31320721150073
                0.5456    0.76037674173753
 p    1 1.00
                0.1517                   1
 d    1 1.00
                  0.55                   1

6 0
 s    8 1.00
                  6665  0.00069158396281299
                  1000  0.0053257961529341
                   228   0.027060721042034
                 64.71    0.10165684614077
                 21.06     0.2745748236174
                 7.495    0.44829431892377
                 2.797    0.28490261071525
                0.5215   0.015194859206082
 s    8 1.00
                  6665  -0.00029326965268655
                  1000  -0.0023180354739745
                   228  -0.011499786038565
                 64.71  -0.046826727009787
                 21.06   -0.12846616875047
                 7.495   -0.30126627246289
                 2.797   -0.25563070233011
                0.5215      1.093793361012
 s    1 1.00
                0.1596                   1
 p    3 1.00
                 9.439   0.056979251590039
                 2.002    0.31320721150073
                0.5456    0.76037674173753
 p    1 1.00
                0.1517                   1
 d    1 1.00
                  0.55                   1

7 0
 s    8 1.00
                  6665  0.00069158396281299
                  1000  0.0053257961529341
                   228   0.027060721042034
                 64.71    0.10165684614077
                 21.06     0.2745748236174
                 7.495    0.44829431892377
                 2.797    0.28490261071525
                0.5215   0.015194859206082
 s    8 1.00
                  6665  -0.00029326965268655
                  1000  -0.0023180354739745
                   228  -0.011499786038565
                 64.71  -0.046826727009787
                 21.06   -0.12846616875047
                 7.495   -0.30126627246289
                 2.797   -0.25563070233011
                0.5215      1.093793361012
 s    1 1.00
                0.1596                   1
 p    3 1.00
                 9.439   0.056979251590039
                 2.002    0.31320721150073
                0.5456    0.76037674173753
 p    1 1.00
                0.1517                   1
 d    1 1.00
                  0.55                   1

8 0
 s    3 1.00
                 13.01   0.033498726389998
                 1.962    0.23480080117413
                0.4446     0.8136829578829
 s    1 1.00
                 0.122                   1
 p    1 1.00
                 0.727                   1

9 0
 s    8 1.00
                  6665  0.00069158396281299
                  1000  0.0053257961529341
                   228   0.027060721042034
                 64.71    0.10165684614077
                 21.06     0.2745748236174
                 7.495    0.44829431892377
                 2.797    0.28490261071525
                0.5215   0.015194859206082
 s    8 1.00
                  6665  -0.00029326965268655
                  1000  -0.0023180354739745
                   228  -0.011499786038565
                 64.71  -0.046826727009787
                 21.06   -0.12846616875047
                 7.495   -0.30126627246289
                 2.797   -0.25563070233011
                0.5215      1.093793361012
 s    1 1.00
                0.1596                   1
 p    3 1.00
                 9.439   0.056979251590039
                 2.002    0.31320721150073
                0.5456    0.76037674173753
 p    1 1.00
                0.1517                   1
 d    1 1.00
                  0.55                   1

10 0
 s    3 1.00
                 13.01   0.033498726389998
                 1.962    0.23480080117413
                0.4446     0.8136829578829
 s    1 1.00
                 0.122                   1
 p    1 1.00
                 0.727                   1

11 0
 s    3 1.00
                 13.01   0.033498726389998
                 1.962    0.23480080117413
                0.4446     0.8136829578829
 s    1 1.00
                 0.122                   1
 p    1 1.00
                 0.727                   1

12 0
 s    3 1.00
                 13.01   0.033498726389998
                 1.962    0.23480080117413
                0.4446     0.8136829578829
 s    1 1.00
                 0.122                   1
 p    1 1.00
                 0.727                   1

13 0
 s    8 1.00
                  6665  0.00069158396281299
                  1000  0.0053257961529341
                   228   0.027060721042034
                 64.71    0.10165684614077
                 21.06     0.2745748236174
                 7.495    0.44829431892377
                 2.797    0.28490261071525
                0.5215   0.015194859206082
 s    8 1.00
                  6665  -0.00029326965268655
                  1000  -0.0023180354739745
                   228  -0.011499786038565
                 64.71  -0.046826727009787
                 21.06   -0.12846616875047
                 7.495   -0.30126627246289
                 2.797   -0.25563070233011
                0.5215      1.093793361012
 s    1 1.00
                0.1596                   1
 p    3 1.00
                 9.439   0.056979251590039
                 2.002    0.31320721150073
                0.5456    0.76037674173753
 p    1 1.00
                0.1517                   1
 d    1 1.00
                  0.55                   1

14 0
 s    3 1.00
                 13.01   0.033498726389998
                 1.962    0.23480080117413
                0.4446     0.8136829578829
 s    1 1.00
                 0.122                   1
 p    1 1.00
                 0.727                   1

15 0
 s    3 1.00
                 13.01   0.033498726389998
                 1.962    0.23480080117413
                0.4446     0.8136829578829
 s    1 1.00
                 0.122                   1
 p    1 1.00
                 0.727                   1

16 0
 s    8 1.00
                  6665  0.00069158396281299
                  1000  0.0053257961529341
                   228   0.027060721042034
                 64.71    0.10165684614077
                 21.06     0.2745748236174
                 7.495    0.44829431892377
                 2.797    0.28490261071525
                0.5215   0.015194859206082
 s    8 1.00
                  6665  -0.00029326965268655
                  1000  -0.0023180354739745
                   228  -0.011499786038565
                 64.71  -0.046826727009787
                 21.06   -0.12846616875047
                 7.495   -0.30126627246289
                 2.797   -0.25563070233011
                0.5215      1.093793361012
 s    1 1.00
                0.1596                   1
 p    3 1.00
                 9.439   0.056979251590039
                 2.002    0.31320721150073
                0.5456    0.76037674173753
 p    1 1.00
                0.1517                   1
 d    1 1.00
                  0.55                   1

17 0
 s    3 1.00
                 13.01   0.033498726389998
                 1.962    0.23480080117413
                0.4446     0.8136829578829
 s    1 1.00
                 0.122                   1
 p    1 1.00
                 0.727                   1

18 0
 s    3 1.00
                 13.01   0.033498726389998
                 1.962    0.23480080117413
                0.4446     0.8136829578829
 s    1 1.00
                 0.122                   1
 p    1 1.00
                 0.727                   1

19 0
 s    8 1.00
                  6665  0.00069158396281299
                  1000  0.0053257961529341
                   228   0.027060721042034
                 64.71    0.10165684614077
                 21.06     0.2745748236174
                 7.495    0.44829431892377
                 2.797    0.28490261071525
                0.5215   0.015194859206082
 s    8 1.00
                  6665  -0.00029326965268655
                  1000  -0.0023180354739745
                   228  -0.011499786038565
                 64.71  -0.046826727009787
                 21.06   -0.12846616875047
                 7.495   -0.30126627246289
                 2.797   -0.25563070233011
                0.5215      1.093793361012
 s    1 1.00
                0.1596                   1
 p    3 1.00
                 9.439   0.056979251590039
                 2.002    0.31320721150073
                0.5456    0.76037674173753
 p    1 1.00
                0.1517                   1
 d    1 1.00
                  0.55                   1

20 0
 s    3 1.00
                 13.01   0.033498726389998
                 1.962    0.23480080117413
                0.4446     0.8136829578829
 s    1 1.00
                 0.122                   1
 p    1 1.00
                 0.727                   1

21 0
 s    8 1.00
                  6665  0.00069158396281299
                  1000  0.0053257961529341
                   228   0.027060721042034
                 64.71    0.10165684614077
                 21.06     0.2745748236174
                 7.495    0.44829431892377
                 2.797    0.28490261071525
                0.5215   0.015194859206082
 s    8 1.00
                  6665  -0.00029326965268655
                  1000  -0.0023180354739745
                   228  -0.011499786038565
                 64.71  -0.046826727009787
                 21.06   -0.12846616875047
                 7.495   -0.30126627246289
                 2.797   -0.25563070233011
                0.5215      1.093793361012
 s    1 1.00
                0.1596                   1
 p    3 1.00
                 9.439   0.056979251590039
                 2.002    0.31320721150073
                0.5456    0.76037674173753
 p    1 1.00
                0.1517                   1
 d    1 1.00
                  0.55                   1

22 0
 s    3 1.00
                 13.01   0.033498726389998
                 1.962    0.23480080117413
                0.4446     0.8136829578829
 s    1 1.00
                 0.122                   1
 p    1 1.00
                 0.727                   1

23 0
 s    3 1.00
                 13.01   0.033498726389998
                 1.962    0.23480080117413
                0.4446     0.8136829578829
 s    1 1.00
                 0.122                   1
 p    1 1.00
                 0.727                   1

24 0
 s    3 1.00
                 13.01   0.033498726389998
                 1.962    0.23480080117413
                0.4446     0.8136829578829
 s    1 1.00
                 0.122                   1
 p    1 1.00
                 0.727                   1

25 0
 s    8 1.00
                  6665  0.00069158396281299
                  1000  0.0053257961529341
                   228   0.027060721042034
                 64.71    0.10165684614077
                 21.06     0.2745748236174
                 7.495    0.44829431892377
                 2.797    0.28490261071525
                0.5215   0.015194859206082
 s    8 1.00
                  6665  -0.00029326965268655
                  1000  -0.0023180354739745
                   228  -0.011499786038565
                 64.71  -0.046826727009787
                 21.06   -0.12846616875047
                 7.495   -0.30126627246289
                 2.797   -0.25563070233011
                0.5215      1.093793361012
 s    1 1.00
                0.1596                   1
 p    3 1.00
                 9.439   0.056979251590039
                 2.002    0.31320721150073
                0.5456    0.76037674173753
 p    1 1.00
                0.1517                   1
 d    1 1.00
                  0.55                   1

26 0
 s    3 1.00
                 13.01   0.033498726389998
                 1.962    0.23480080117413
                0.4446     0.8136829578829
 s    1 1.00
                 0.122                   1
 p    1 1.00
                 0.727                   1

27 0
 s    3 1.00
                 13.01   0.033498726389998
                 1.962    0.23480080117413
                0.4446     0.8136829578829
 s    1 1.00
                 0.122                   1
 p    1 1.00
                 0.727                   1

28 0
 s    8 1.00
                  6665  0.00069158396281299
                  1000  0.0053257961529341
                   228   0.027060721042034
                 64.71    0.10165684614077
                 21.06     0.2745748236174
                 7.495    0.44829431892377
                 2.797    0.28490261071525
                0.5215   0.015194859206082
 s    8 1.00
                  6665  -0.00029326965268655
                  1000  -0.0023180354739745
                   228  -0.011499786038565
                 64.71  -0.046826727009787
                 21.06   -0.12846616875047
                 7.495   -0.30126627246289
                 2.797   -0.25563070233011
                0.5215      1.093793361012
 s    1 1.00
                0.1596                   1
 p    3 1.00
                 9.439   0.056979251590039
                 2.002    0.31320721150073
                0.5456    0.76037674173753
 p    1 1.00
                0.1517                   1
 d    1 1.00
                  0.55                   1

29 0
 s    3 1.00
                 13.01   0.033498726389998
                 1.962    0.23480080117413
                0.4446     0.8136829578829
 s    1 1.00
                 0.122                   1
 p    1 1.00
                 0.727                   1

30 0
 s    3 1.00
                 13.01   0.033498726389998
                 1.962    0.23480080117413
                0.4446     0.8136829578829
 s    1 1.00
                 0.122                   1
 p    1 1.00
                 0.727                   1

31 0
 s    8 1.00
                  6665  0.00069158396281299
                  1000  0.0053257961529341
                   228   0.027060721042034
                 64.71    0.10165684614077
                 21.06     0.2745748236174
                 7.495    0.44829431892377
                 2.797    0.28490261071525
                0.5215   0.015194859206082
 s    8 1.00
                  6665  -0.00029326965268655
                  1000  -0.0023180354739745
                   228  -0.011499786038565
                 64.71  -0.046826727009787
                 21.06   -0.12846616875047
                 7.495   -0.30126627246289
                 2.797   -0.25563070233011
                0.5215      1.093793361012
 s    1 1.00
                0.1596                   1
 p    3 1.00
                 9.439   0.056979251590039
                 2.002    0.31320721150073
                0.5456    0.76037674173753
 p    1 1.00
                0.1517                   1
 d    1 1.00
                  0.55                   1

32 0
 s    3 1.00
                 13.01   0.033498726389998
                 1.962    0.23480080117413
                0.4446     0.8136829578829
 s    1 1.00
                 0.122                   1
 p    1 1.00
                 0.727                   1

33 0
 s    3 1.00
                 13.01   0.033498726389998
                 1.962    0.23480080117413
                0.4446     0.8136829578829
 s    1 1.00
                 0.122                   1
 p    1 1.00
                 0.727                   1

34 0
 s    3 1.00
                 13.01   0.033498726389998
                 1.962    0.23480080117413
                0.4446     0.8136829578829
 s    1 1.00
                 0.122                   1
 p    1 1.00
                 0.727                   1

35 0
 s    3 1.00
                 13.01   0.033498726389998
                 1.962    0.23480080117413
                0.4446     0.8136829578829
 s    1 1.00
                 0.122                   1
 p    1 1.00
                 0.727                   1

36 0
 s    3 1.00
                 13.01   0.033498726389998
                 1.962    0.23480080117413
                0.4446     0.8136829578829
 s    1 1.00
                 0.122                   1
 p    1 1.00
                 0.727                   1

37 0
 s    3 1.00
                 13.01   0.033498726389998
                 1.962    0.23480080117413
                0.4446     0.8136829578829
 s    1 1.00
                 0.122                   1
 p    1 1.00
                 0.727                   1

[5d]
[7f]
[9g]

[MO]
 Sym= A
 Ene=               0
 Spin= Alpha
 Occup=    1.00000
   1    6.4169355712132e-05
   2    2.9222490905915e-05
   3    -0.00012146509774141
   4    -4.8587408211087e-07
   5    -4.3034072878276e-06
   6    1.9492374457363e-06
   7    5.4697994047361e-07
   8    2.1153954921486e-05
   9    3.2554259755358e-05
  10    -4.6311087128412e-06
  11    2.8216695303466e-07
  12    -2.5119009790148e-06
  13    -1.7182803564458e-06
  14    -4.220459948645e-08
  15     7.11832515443e-05
  16    0.00022576040135454
  17    1.0773540679967e-06
  18    -3.2795926717006e-06
  19    -2.3472062699337e-06
  20    -4.126198154774e-06
  21    -4.0894118167102e-05
  22    -1.6688705812686e-07
  23    -2.2114517134272e-06
  24    7.3341759375412e-06
  25      -1.0013928842814
  26    -0.002033199858522
  27    0.0070228698692118
  28    5.6278263225377e-06
  29    -1.3797146170131e-05
  30    0.0016137683777239
  31    4.2416304958676e-08
  32    4.3503128853993e-06
  33    -0.0020330453566086
  34    -0.00010454257206403
  35    2.7442273297345e-06
  36    -1.519822311268e-06
  37    -6.4854001304127e-05
  38    0.00016893713269336
  39    -0.00029780975243277
  40    -0.00042338063706745
  41    -0.0016032001022122
  42    -1.6545653917809e-05
  43    1.0095392421184e-05
  44    -4.1256441400604e-05
  45    -8.5669427214666e-05
  46    6.7949493854783e-05
  47    -0.003758442961601
  48    0.00048846480649354
  49    8.2471100457263e-06
  50    -2.755612678577e-06
  51    -3.0662217484629e-05
  52    0.00011246376274269
  53    8.381533770983e-05
  54    0.00016394763724536
  55    -0.0013985968172443
  56    -7.889545782865e-05
  57    6.850350471542e-06
  58    3.3365346753053e-05
  59    0.00043411730447736
  60    -0.00048754267336857
  61    0.0010020541868499
  62    0.00011549414235461
  63    -0.00014950256192519
  64    0.00014350744560274
  65    -5.3856597921645e-05
  66    0.00012556985155113
  67    3.7375350364876e-05
  68    9.3028627816025e-05
  69    -0.00052635394839197
  70    6.2806558623379e-05
  71    -4.2012398670938e-05
  72    6.1197756949898e-05
  73    -0.0010308918135135
  74    0.00079236615147738
  75    0.00067799392677959
  76    0.00013895271891549
  77    0.00012143263741463
  78    -8.9708412311097e-05
  79    -5.8057762813917e-05
  80    0.00014896364711997
  81    5.632175253594e-05
  82    -0.00022543562795282
  83    -6.7527417924036e-05
  84    4.9533470359195e-05
  85    -4.6045635560076e-05
  86    -2.4980588975004e-05
  87    -4.8729340259498e-05
  88    0.00063198838781803
  89    1.5836480670518e-05
  90    1.7307247895139e-05
  91    -1.1000523406262e-05
  92    -0.00026513952367125
  93    -0.00066270219064553
  94    7.4686584897157e-06
  95    -1.952997143187e-05
  96    -1.1661244776345e-05
  97    -8.3550270277533e-06
  98    1.8764902704581e-05
  99    4.9913775300749e-05
 100    4.2841524912028e-05
 101    0.00016932985081709
 102    -5.2302470048877e-06
 103    1.1140159994483e-05
 104    -7.8805668743145e-05
 105    2.0368023088408e-05
 106    0.00021062288377949
 107     6.37650794191e-05
 108    -6.8557892377899e-06
 109    -7.760249806305e-05
 110    -7.9013631947021e-05
 111    6.8981925157457e-05
 112    4.3640986768966e-05
 113    -2.0890978932975e-05
 114    -7.2646470199698e-05
 115    4.7753047272147e-05
 116    9.7551417400527e-05
 117    -0.00086206450629268
 118    2.3429667653561e-05
 119    1.2087963903192e-05
 120    -3.20219547222e-05
 121    -0.0002851025657672
 122    -3.9626647624624e-05
 123    0.00016104122620556
 124    5.9199974756596e-06
 125    -9.8097059801677e-06
 126    -1.508167595374e-05
 127    3.2476179864613e-05
 128    -5.1973724795907e-05
 129    2.0651711203616e-05
 130    0.00034425370765192
 131    -8.3466461018074e-06
 132    -6.0302988258502e-06
 133    -2.9850908524973e-05
 134    -2.5599384269952e-05
 135    0.00011757467146768
 136    1.3930456116638e-05
 137    2.5769391393409e-05
 138    2.8092242923215e-05
 139    2.2489270160466e-05
 140    4.060382771525e-05
 141    -0.00031415227904431
 142    -8.108171556057e-06
 143    2.910215651165e-06
 144    6.4241759261462e-06
 145    0.00023326798874339
 146    -6.2134435086774e-05
 147    -5.8038268725021e-05
 148    2.649725224787e-06
 149    -3.4751555213792e-06
 150    5.0365875317862e-06
 151    -1.3023320038174e-05
 152    4.7164078687666e-06
 153    9.8961405826986e-05
 154    9.2513540486242e-05
 155    2.6904648347407e-05
 156    -2.749481738108e-05
 157    -1.9220126725269e-05
 158    2.6628475930812e-05
 159    8.5013496207341e-05
 160    5.9337364398046e-05
 161    7.5483628334408e-06
 162    -6.9343595643435e-06
 163    4.6506347618126e-07
 164     7.18506769686e-07
 165    0.0002653871418861
 166    2.1537461886613e-05
 167    -1.5579984808058e-05
 168    -9.7742408515967e-06
 169    -0.00023281153759951
 170    0.00021068991119308
 171    0.00014136988082778
 172    2.4024815186712e-06
 173    -1.0179936663631e-05
 174    1.3696434594178e-05
 175    -3.1609404097944e-06
 176    1.8229711790855e-05
 177    1.6663458907783e-05
 178    -8.7350172421925e-05
 179    1.2609921855781e-06
 180    -1.5338528674763e-06
 181    4.5885821198554e-06
 182    -1.6567234003831e-05
 183    -2.8628414356802e-05
 184    8.3465834213552e-05
 185    5.6479255869084e-06
 186    -4.4918203097899e-06
 187    -6.067549131768e-06
 188    -0.00013234731230675
 189    0.00010194581642054
 190    9.2725365487335e-05
 191    -1.2924706824666e-06
 192    -2.3266277790197e-06
 193    7.6926564217169e-06
 194    2.9326108810879e-06
 195    5.6929722869401e-06
 196    1.3069495424309e-05
 197    1.9979202999361e-05
 198    -5.7210300814226e-06
 199    -1.9450997561514e-06
 200    3.1281151877785e-06
 201    1.3386925867919e-05
 202    -3.9866623904096e-07
 203    1.3719877805825e-05
 204    -9.8952721650976e-06
 205    -1.1902499420602e-05
 206    -8.5580518040319e-06
 207    -6.8466087183467e-05
 208    1.6216839875301e-05
 209    -3.9829774663713e-06
 210    -1.6196055171851e-05
 211    2.2122941998089e-05
 212    3.7568145064477e-05
 213    -0.00026973846525989
 214    -1.1299730106491e-05
 215    4.3029946171372e-06
 216    1.1327543741683e-05
 217    -0.00019709366344971
 218    5.2113180194184e-05
 219    8.317876321666e-05
 220    2.1871553896725e-06
 221    1.6938680087516e-05
 222    -5.7846594815278e-06
 223    -9.7910203215354e-06
 224    2.1317005691047e-06
 225    -2.6873036210031e-05
 226    -5.7483692074619e-05
 227    1.2761935236924e-05
 228    2.2238689832498e-06
 229    9.5168654260872e-07
 230    -1.0308359787908e-05
 231    -5.4859372711209e-05
 232    4.1853768830734e-06
 233    -6.5667273049039e-06
 234    -1.2338526298913e-05
 235    -2.3743111233584e-06
 236    -2.9446641193928e-06
 237    7.868796230381e-05
 238    -5.3930103269178e-06
 239    -4.214682057025e-06
 240    7.0195455101152e-06
 241    -3.8416396319662e-05
 242    6.3287613047611e-05
 243    -1.6993773110588e-05
 244    -2.071281246033e-06
 245    -1.8441973515217e-06
 246    2.1155725823892e-06
 247    -9.8136170799938e-08
 248    -1.1208852968164e-06
 249    2.3030267850698e-05
 250    -7.5861589720531e-06
 251    4.0147744261408e-06
 252    5.2718387368407e-07
 253    -5.3607837852887e-07
 254    2.203781195621e-05
 255    -5.4317093743679e-05
 256    -1.9939211995354e-07
 257    -3.7111601940615e-06
 258    6.2327706890011e-07
 259    1.1647056170469e-05
 260    2.2100943568913e-05
 261    -6.8569941134267e-05
 262    7.1276472438495e-06
 263    -2.0139247616206e-06