[Molden Format]
made by pyscf v[2.0.1]
[Atoms] (AU)
O   1   8     0.00000000000000     0.00000000000000     9.80791491072852
H   2   1     0.00000000000000     0.00000000000000     7.98451308882755
H   3   1    -0.05031916615174     1.78353065140343    10.18378660719519
O   4   8     0.00000000000000     0.00000000000000     2.31533471513237
C   5   6     0.00000000000000     0.00000000000000     0.00000000000000
C   6   6     2.01118073026938    -1.40227222164369    -1.50774939176400
C   7   6    -2.01249334291722     1.41331050329955    -1.50315905028694
H   8   1     3.32037363730244    -2.26721897153159    -0.13599698591495
C   9   6     3.45899267434009     0.28739631745591    -3.37437943254505
H   10   1     1.07662969841332    -2.94725144642667    -2.56541439481080
H   11   1    -2.67503415753480     0.18421555839588    -3.06194479365997
H   12   1    -1.07974048864772     3.03851734677796    -2.43674295017013
C   13   6    -4.21607110578555     2.32938802552922     0.11994162256091
H   14   1     4.24440173074564     1.93368664142019    -2.34976285512790
H   15   1     2.15020713235517     1.04714335134846    -4.81494497423699
C   16   6     5.60746363007797    -1.12419643481196    -4.70268606082550
H   17   1    -3.46838323670267     3.50951302338067     1.66946842715333
H   18   1    -5.11873485366228     0.68575958301209     1.04047743976495
C   19   6    -6.18314754751344     3.80909592987882    -1.39656589068747
H   20   1     6.93011263717176    -1.87550812453645    -3.26656317360070
C   21   6     7.06356622236532     0.52877932406334    -6.57829775293605
H   22   1     4.82318879258361    -2.78573437948532    -5.70504560381835
H   23   1    -6.91582688743803     2.61304780074712    -2.95074552451969
H   24   1    -5.26532430573853     5.45420349051338    -2.31005832200284
C   25   6    -8.39941882261433     4.73263980500213     0.21800571437956
H   26   1     7.83338371486801     2.19084139882824    -5.57093109900697
H   27   1     5.73544244039420     1.27376866537418    -8.01071492370229
C   28   6     9.21124858443101    -0.89699110072176    -7.88926949186242
H   29   1    -7.66272760055236     5.92277078003992     1.77035591474408
H   30   1    -9.31497248082589     3.08753015622020     1.12614408368786
C   31   6   -10.35481709231879     6.21833079391143    -1.30905206253246
H   32   1    10.58815905329501    -1.61074586756696    -6.49512691622620
H   33   1    10.23506248045667     0.32468009384095    -9.23072870921204
H   34   1     8.47665842847139    -2.53598436989925    -8.94921964622535
H   35   1    -9.48948872868064     7.90013588951020    -2.18823918416067
H   36   1   -11.93332513000955     6.86460487874102    -0.11255798845995
H   37   1   -11.15126291841033     5.04495968327630    -2.83849898862534
[GTO]
1 0
 s    8 1.00
                 11720  0.00070964594651845
                  1759  0.0054672722921914
                 400.8   0.027823118610189
                 113.7    0.10474773971146
                 37.03    0.28292084635691
                 13.27    0.44849523869833
                 5.025    0.27081688521277
                 1.013    0.01545029160744
 s    8 1.00
                 11720  -0.00031444341168873
                  1759  -0.0024821376810179
                 400.8  -0.012316355381583
                 113.7  -0.050538917343672
                 37.03   -0.13938490331632
                 13.27   -0.32507749481778
                 5.025   -0.22984830758785
                 1.013     1.0953793467883
 s    1 1.00
                0.3023                   1
 p    3 1.00
                  17.7   0.062679166281506
                 3.854    0.33353656587936
                 1.046    0.74123964163973
 p    1 1.00
                0.2753                   1
 d    1 1.00
                 1.185                   1

2 0
 s    3 1.00
                 13.01   0.033498726389998
                 1.962    0.23480080117413
                0.4446     0.8136829578829
 s    1 1.00
                 0.122                   1
 p    1 1.00
                 0.727                   1

3 0
 s    3 1.00
                 13.01   0.033498726389998
                 1.962    0.23480080117413
                0.4446     0.8136829578829
 s    1 1.00
                 0.122                   1
 p    1 1.00
                 0.727                   1

4 0
 s    8 1.00
                 11720  0.00070964594651845
                  1759  0.0054672722921914
                 400.8   0.027823118610189
                 113.7    0.10474773971146
                 37.03    0.28292084635691
                 13.27    0.44849523869833
                 5.025    0.27081688521277
                 1.013    0.01545029160744
 s    8 1.00
                 11720  -0.00031444341168873
                  1759  -0.0024821376810179
                 400.8  -0.012316355381583
                 113.7  -0.050538917343672
                 37.03   -0.13938490331632
                 13.27   -0.32507749481778
                 5.025   -0.22984830758785
                 1.013     1.0953793467883
 s    1 1.00
                0.3023                   1
 p    3 1.00
                  17.7   0.062679166281506
                 3.854    0.33353656587936
                 1.046    0.74123964163973
 p    1 1.00
                0.2753                   1
 d    1 1.00
                 1.185                   1

5 0
 s    8 1.00
                  6665  0.00069158396281299
                  1000  0.0053257961529341
                   228   0.027060721042034
                 64.71    0.10165684614077
                 21.06     0.2745748236174
                 7.495    0.44829431892377
                 2.797    0.28490261071525
                0.5215   0.015194859206082
 s    8 1.00
                  6665  -0.00029326965268655
                  1000  -0.0023180354739745
                   228  -0.011499786038565
                 64.71  -0.046826727009787
                 21.06   -0.12846616875047
                 7.495   -0.30126627246289
                 2.797   -0.25563070233011
                0.5215      1.093793361012
 s    1 1.00
                0.1596                   1
 p    3 1.00
                 9.439   0.056979251590039
                 2.002    0.31320721150073
                0.5456    0.76037674173753
 p    1 1.00
                0.1517                   1
 d    1 1.00
                  0.55                   1

6 0
 s    8 1.00
                  6665  0.00069158396281299
                  1000  0.0053257961529341
                   228   0.027060721042034
                 64.71    0.10165684614077
                 21.06     0.2745748236174
                 7.495    0.44829431892377
                 2.797    0.28490261071525
                0.5215   0.015194859206082
 s    8 1.00
                  6665  -0.00029326965268655
                  1000  -0.0023180354739745
                   228  -0.011499786038565
                 64.71  -0.046826727009787
                 21.06   -0.12846616875047
                 7.495   -0.30126627246289
                 2.797   -0.25563070233011
                0.5215      1.093793361012
 s    1 1.00
                0.1596                   1
 p    3 1.00
                 9.439   0.056979251590039
                 2.002    0.31320721150073
                0.5456    0.76037674173753
 p    1 1.00
                0.1517                   1
 d    1 1.00
                  0.55                   1

7 0
 s    8 1.00
                  6665  0.00069158396281299
                  1000  0.0053257961529341
                   228   0.027060721042034
                 64.71    0.10165684614077
                 21.06     0.2745748236174
                 7.495    0.44829431892377
                 2.797    0.28490261071525
                0.5215   0.015194859206082
 s    8 1.00
                  6665  -0.00029326965268655
                  1000  -0.0023180354739745
                   228  -0.011499786038565
                 64.71  -0.046826727009787
                 21.06   -0.12846616875047
                 7.495   -0.30126627246289
                 2.797   -0.25563070233011
                0.5215      1.093793361012
 s    1 1.00
                0.1596                   1
 p    3 1.00
                 9.439   0.056979251590039
                 2.002    0.31320721150073
                0.5456    0.76037674173753
 p    1 1.00
                0.1517                   1
 d    1 1.00
                  0.55                   1

8 0
 s    3 1.00
                 13.01   0.033498726389998
                 1.962    0.23480080117413
                0.4446     0.8136829578829
 s    1 1.00
                 0.122                   1
 p    1 1.00
                 0.727                   1

9 0
 s    8 1.00
                  6665  0.00069158396281299
                  1000  0.0053257961529341
                   228   0.027060721042034
                 64.71    0.10165684614077
                 21.06     0.2745748236174
                 7.495    0.44829431892377
                 2.797    0.28490261071525
                0.5215   0.015194859206082
 s    8 1.00
                  6665  -0.00029326965268655
                  1000  -0.0023180354739745
                   228  -0.011499786038565
                 64.71  -0.046826727009787
                 21.06   -0.12846616875047
                 7.495   -0.30126627246289
                 2.797   -0.25563070233011
                0.5215      1.093793361012
 s    1 1.00
                0.1596                   1
 p    3 1.00
                 9.439   0.056979251590039
                 2.002    0.31320721150073
                0.5456    0.76037674173753
 p    1 1.00
                0.1517                   1
 d    1 1.00
                  0.55                   1

10 0
 s    3 1.00
                 13.01   0.033498726389998
                 1.962    0.23480080117413
                0.4446     0.8136829578829
 s    1 1.00
                 0.122                   1
 p    1 1.00
                 0.727                   1

11 0
 s    3 1.00
                 13.01   0.033498726389998
                 1.962    0.23480080117413
                0.4446     0.8136829578829
 s    1 1.00
                 0.122                   1
 p    1 1.00
                 0.727                   1

12 0
 s    3 1.00
                 13.01   0.033498726389998
                 1.962    0.23480080117413
                0.4446     0.8136829578829
 s    1 1.00
                 0.122                   1
 p    1 1.00
                 0.727                   1

13 0
 s    8 1.00
                  6665  0.00069158396281299
                  1000  0.0053257961529341
                   228   0.027060721042034
                 64.71    0.10165684614077
                 21.06     0.2745748236174
                 7.495    0.44829431892377
                 2.797    0.28490261071525
                0.5215   0.015194859206082
 s    8 1.00
                  6665  -0.00029326965268655
                  1000  -0.0023180354739745
                   228  -0.011499786038565
                 64.71  -0.046826727009787
                 21.06   -0.12846616875047
                 7.495   -0.30126627246289
                 2.797   -0.25563070233011
                0.5215      1.093793361012
 s    1 1.00
                0.1596                   1
 p    3 1.00
                 9.439   0.056979251590039
                 2.002    0.31320721150073
                0.5456    0.76037674173753
 p    1 1.00
                0.1517                   1
 d    1 1.00
                  0.55                   1

14 0
 s    3 1.00
                 13.01   0.033498726389998
                 1.962    0.23480080117413
                0.4446     0.8136829578829
 s    1 1.00
                 0.122                   1
 p    1 1.00
                 0.727                   1

15 0
 s    3 1.00
                 13.01   0.033498726389998
                 1.962    0.23480080117413
                0.4446     0.8136829578829
 s    1 1.00
                 0.122                   1
 p    1 1.00
                 0.727                   1

16 0
 s    8 1.00
                  6665  0.00069158396281299
                  1000  0.0053257961529341
                   228   0.027060721042034
                 64.71    0.10165684614077
                 21.06     0.2745748236174
                 7.495    0.44829431892377
                 2.797    0.28490261071525
                0.5215   0.015194859206082
 s    8 1.00
                  6665  -0.00029326965268655
                  1000  -0.0023180354739745
                   228  -0.011499786038565
                 64.71  -0.046826727009787
                 21.06   -0.12846616875047
                 7.495   -0.30126627246289
                 2.797   -0.25563070233011
                0.5215      1.093793361012
 s    1 1.00
                0.1596                   1
 p    3 1.00
                 9.439   0.056979251590039
                 2.002    0.31320721150073
                0.5456    0.76037674173753
 p    1 1.00
                0.1517                   1
 d    1 1.00
                  0.55                   1

17 0
 s    3 1.00
                 13.01   0.033498726389998
                 1.962    0.23480080117413
                0.4446     0.8136829578829
 s    1 1.00
                 0.122                   1
 p    1 1.00
                 0.727                   1

18 0
 s    3 1.00
                 13.01   0.033498726389998
                 1.962    0.23480080117413
                0.4446     0.8136829578829
 s    1 1.00
                 0.122                   1
 p    1 1.00
                 0.727                   1

19 0
 s    8 1.00
                  6665  0.00069158396281299
                  1000  0.0053257961529341
                   228   0.027060721042034
                 64.71    0.10165684614077
                 21.06     0.2745748236174
                 7.495    0.44829431892377
                 2.797    0.28490261071525
                0.5215   0.015194859206082
 s    8 1.00
                  6665  -0.00029326965268655
                  1000  -0.0023180354739745
                   228  -0.011499786038565
                 64.71  -0.046826727009787
                 21.06   -0.12846616875047
                 7.495   -0.30126627246289
                 2.797   -0.25563070233011
                0.5215      1.093793361012
 s    1 1.00
                0.1596                   1
 p    3 1.00
                 9.439   0.056979251590039
                 2.002    0.31320721150073
                0.5456    0.76037674173753
 p    1 1.00
                0.1517                   1
 d    1 1.00
                  0.55                   1

20 0
 s    3 1.00
                 13.01   0.033498726389998
                 1.962    0.23480080117413
                0.4446     0.8136829578829
 s    1 1.00
                 0.122                   1
 p    1 1.00
                 0.727                   1

21 0
 s    8 1.00
                  6665  0.00069158396281299
                  1000  0.0053257961529341
                   228   0.027060721042034
                 64.71    0.10165684614077
                 21.06     0.2745748236174
                 7.495    0.44829431892377
                 2.797    0.28490261071525
                0.5215   0.015194859206082
 s    8 1.00
                  6665  -0.00029326965268655
                  1000  -0.0023180354739745
                   228  -0.011499786038565
                 64.71  -0.046826727009787
                 21.06   -0.12846616875047
                 7.495   -0.30126627246289
                 2.797   -0.25563070233011
                0.5215      1.093793361012
 s    1 1.00
                0.1596                   1
 p    3 1.00
                 9.439   0.056979251590039
                 2.002    0.31320721150073
                0.5456    0.76037674173753
 p    1 1.00
                0.1517                   1
 d    1 1.00
                  0.55                   1

22 0
 s    3 1.00
                 13.01   0.033498726389998
                 1.962    0.23480080117413
                0.4446     0.8136829578829
 s    1 1.00
                 0.122                   1
 p    1 1.00
                 0.727                   1

23 0
 s    3 1.00
                 13.01   0.033498726389998
                 1.962    0.23480080117413
                0.4446     0.8136829578829
 s    1 1.00
                 0.122                   1
 p    1 1.00
                 0.727                   1

24 0
 s    3 1.00
                 13.01   0.033498726389998
                 1.962    0.23480080117413
                0.4446     0.8136829578829
 s    1 1.00
                 0.122                   1
 p    1 1.00
                 0.727                   1

25 0
 s    8 1.00
                  6665  0.00069158396281299
                  1000  0.0053257961529341
                   228   0.027060721042034
                 64.71    0.10165684614077
                 21.06     0.2745748236174
                 7.495    0.44829431892377
                 2.797    0.28490261071525
                0.5215   0.015194859206082
 s    8 1.00
                  6665  -0.00029326965268655
                  1000  -0.0023180354739745
                   228  -0.011499786038565
                 64.71  -0.046826727009787
                 21.06   -0.12846616875047
                 7.495   -0.30126627246289
                 2.797   -0.25563070233011
                0.5215      1.093793361012
 s    1 1.00
                0.1596                   1
 p    3 1.00
                 9.439   0.056979251590039
                 2.002    0.31320721150073
                0.5456    0.76037674173753
 p    1 1.00
                0.1517                   1
 d    1 1.00
                  0.55                   1

26 0
 s    3 1.00
                 13.01   0.033498726389998
                 1.962    0.23480080117413
                0.4446     0.8136829578829
 s    1 1.00
                 0.122                   1
 p    1 1.00
                 0.727                   1

27 0
 s    3 1.00
                 13.01   0.033498726389998
                 1.962    0.23480080117413
                0.4446     0.8136829578829
 s    1 1.00
                 0.122                   1
 p    1 1.00
                 0.727                   1

28 0
 s    8 1.00
                  6665  0.00069158396281299
                  1000  0.0053257961529341
                   228   0.027060721042034
                 64.71    0.10165684614077
                 21.06     0.2745748236174
                 7.495    0.44829431892377
                 2.797    0.28490261071525
                0.5215   0.015194859206082
 s    8 1.00
                  6665  -0.00029326965268655
                  1000  -0.0023180354739745
                   228  -0.011499786038565
                 64.71  -0.046826727009787
                 21.06   -0.12846616875047
                 7.495   -0.30126627246289
                 2.797   -0.25563070233011
                0.5215      1.093793361012
 s    1 1.00
                0.1596                   1
 p    3 1.00
                 9.439   0.056979251590039
                 2.002    0.31320721150073
                0.5456    0.76037674173753
 p    1 1.00
                0.1517                   1
 d    1 1.00
                  0.55                   1

29 0
 s    3 1.00
                 13.01   0.033498726389998
                 1.962    0.23480080117413
                0.4446     0.8136829578829
 s    1 1.00
                 0.122                   1
 p    1 1.00
                 0.727                   1

30 0
 s    3 1.00
                 13.01   0.033498726389998
                 1.962    0.23480080117413
                0.4446     0.8136829578829
 s    1 1.00
                 0.122                   1
 p    1 1.00
                 0.727                   1

31 0
 s    8 1.00
                  6665  0.00069158396281299
                  1000  0.0053257961529341
                   228   0.027060721042034
                 64.71    0.10165684614077
                 21.06     0.2745748236174
                 7.495    0.44829431892377
                 2.797    0.28490261071525
                0.5215   0.015194859206082
 s    8 1.00
                  6665  -0.00029326965268655
                  1000  -0.0023180354739745
                   228  -0.011499786038565
                 64.71  -0.046826727009787
                 21.06   -0.12846616875047
                 7.495   -0.30126627246289
                 2.797   -0.25563070233011
                0.5215      1.093793361012
 s    1 1.00
                0.1596                   1
 p    3 1.00
                 9.439   0.056979251590039
                 2.002    0.31320721150073
                0.5456    0.76037674173753
 p    1 1.00
                0.1517                   1
 d    1 1.00
                  0.55                   1

32 0
 s    3 1.00
                 13.01   0.033498726389998
                 1.962    0.23480080117413
                0.4446     0.8136829578829
 s    1 1.00
                 0.122                   1
 p    1 1.00
                 0.727                   1

33 0
 s    3 1.00
                 13.01   0.033498726389998
                 1.962    0.23480080117413
                0.4446     0.8136829578829
 s    1 1.00
                 0.122                   1
 p    1 1.00
                 0.727                   1

34 0
 s    3 1.00
                 13.01   0.033498726389998
                 1.962    0.23480080117413
                0.4446     0.8136829578829
 s    1 1.00
                 0.122                   1
 p    1 1.00
                 0.727                   1

35 0
 s    3 1.00
                 13.01   0.033498726389998
                 1.962    0.23480080117413
                0.4446     0.8136829578829
 s    1 1.00
                 0.122                   1
 p    1 1.00
                 0.727                   1

36 0
 s    3 1.00
                 13.01   0.033498726389998
                 1.962    0.23480080117413
                0.4446     0.8136829578829
 s    1 1.00
                 0.122                   1
 p    1 1.00
                 0.727                   1

37 0
 s    3 1.00
                 13.01   0.033498726389998
                 1.962    0.23480080117413
                0.4446     0.8136829578829
 s    1 1.00
                 0.122                   1
 p    1 1.00
                 0.727                   1

[5d]
[7f]
[9g]

[MO]
 Sym= A
 Ene=               0
 Spin= Alpha
 Occup=    1.00000
   1    -5.1631739929995e-05
   2    -3.5691433200113e-05
   3    0.00011892463572162
   4    -9.0577079741142e-08
   5    4.7779719962137e-06
   6    3.9809097988297e-06
   7    5.8517025417846e-07
   8    -2.3307452107921e-05
   9    -8.1575726602105e-05
  10    1.2763435064506e-05
  11    -1.3618643844289e-09
  12    -7.8551497226437e-07
  13    4.1389444368487e-07
  14    1.7286174806307e-08
  15    -1.5472828972049e-05
  16    -0.0001730084802286
  17    -1.3059194800708e-07
  18    1.5328080057174e-06
  19    -3.2974818156949e-05
  20    -7.5187026395692e-06
  21    6.462210738509e-05
  22    1.819673916241e-07
  23    -5.7186019904352e-06
  24    2.5419819651605e-06
  25       1.0013660749856
  26    0.0019605383880468
  27    -0.006826063876243
  28    -4.8071684663186e-06
  29    8.6633359079005e-06
  30    -0.0016525177446529
  31    -3.0991820764672e-07
  32    -1.651425825485e-06
  33    0.0018543000007872
  34    0.00012284348896325
  35    -2.9498746491716e-06
  36    1.3873090392644e-06
  37    6.733804836586e-05
  38    -0.0001753340244955
  39    0.00027720063553578
  40    0.00037975230807597
  41     0.001441157421375
  42    1.5435886503505e-05
  43    -1.0046086215605e-05
  44    -1.6218819668357e-06
  45    8.1632023269533e-05
  46    -6.3914270540235e-05
  47    0.0035775533911651
  48    -0.00052831980327041
  49    -8.4162650958355e-06
  50    2.4911923048952e-06
  51    2.9059680864077e-05
  52    -0.00010812848562453
  53    -8.490416728668e-05
  54    -0.00016596961310723
  55    0.0013741261643318
  56    7.8226964200007e-05
  57    -7.2982852664771e-06
  58    -3.5681626357263e-05
  59    -0.00042404261741668
  60    0.0004779526350229
  61    -0.00093744034460353
  62    -0.0001172300310436
  63    0.00015004474883489
  64    -0.00014297041742655
  65    5.487782642663e-05
  66    -0.00012934288934489
  67    -3.9850263491154e-05
  68    -9.7422873147862e-05
  69    0.00051292092785565
  70    -6.1442617415112e-05
  71    4.033913005934e-05
  72    -6.2395467726999e-05
  73    0.0010039557061398
  74    -0.00077243192191856
  75    -0.00064282605831086
  76    -0.00014063776531957
  77    -0.00012087923529938
  78     8.97219226093e-05
  79    5.8802412565491e-05
  80    -0.00015134941939648
  81    -6.3402561818656e-05
  82    0.00020887982676607
  83    6.6228794589771e-05
  84    -4.8663723847105e-05
  85    4.8605887041143e-05
  86    2.5032681821554e-05
  87    4.8870036746035e-05
  88    -0.00060951606280437
  89    -1.6033016603388e-05
  90    -1.7017300936394e-05
  91    1.205320592642e-05
  92    0.00025756253933779
  93    0.00063064025305987
  94    -1.697687578052e-05
  95    1.8269046340594e-05
  96    1.1237573455686e-05
  97    7.4308075036351e-06
  98    -2.0349008809008e-05
  99    -4.6250711490072e-05
 100    -3.8048803710375e-05
 101    -0.00015965036429631
 102    8.627779535733e-06
 103    -1.0006872130557e-05
 104    7.504757036082e-05
 105    -1.8183078534454e-05
 106    -0.000202055848069
 107    -6.4281723648933e-05
 108    1.0467557925832e-05
 109    7.4970939405561e-05
 110    7.7520070401061e-05
 111    -6.0672669454805e-05
 112    -4.5185237515121e-05
 113    1.8834080336462e-05
 114    6.9985528476059e-05
 115    -4.9317448142769e-05
 116    -0.00010052593524375
 117    0.00084346906519927
 118    -2.5374573726674e-05
 119    -1.0535535558176e-05
 120    3.2844870106723e-05
 121    0.00029246130957881
 122    3.141036239356e-05
 123    -0.00014208503817868
 124    -6.5003178461806e-06
 125    1.2030381495647e-05
 126    1.5464235684483e-05
 127    -3.2021008644319e-05
 128    4.9886628057435e-05
 129    -1.9252371973736e-05
 130    -0.0003252547789435
 131    7.6359067440059e-06
 132    5.901539426289e-06
 133    2.9295475726779e-05
 134    2.583801994042e-05
 135    -0.00011804285356529
 136    -1.353893973936e-05
 137    -2.4353391611548e-05
 138    -2.6768074262621e-05
 139    -2.1348126424045e-05
 140    -3.8569338606873e-05
 141    0.00029174778134049
 142    8.261000914512e-06
 143    -2.347566068057e-06
 144    -6.5517205445902e-06
 145    -0.00022987571481134
 146    5.3822717723745e-05
 147    6.2678823309825e-05
 148    -2.4327860101503e-06
 149    3.1381268761223e-06
 150    -3.7460670728522e-06
 151    1.2063289903719e-05
 152    -4.8988985921989e-06
 153    -9.6805696610323e-05
 154    -0.00010760881169397
 155    -2.6142579225539e-05
 156    2.9221747953405e-05
 157    1.9894189997932e-05
 158    -2.5778910649119e-05
 159    -8.8960374885899e-05
 160    -5.9232991296293e-05
 161    -7.1494553431823e-06
 162    6.3927274441859e-06
 163    -1.8768339702285e-06
 164    -3.3150315743947e-06
 165    -0.00024348159166696
 166    -2.1072950946194e-05
 167    1.5451063966323e-05
 168    9.1376246583136e-06
 169    0.00023442107552074
 170    -0.00021096264099753
 171    -0.00013267985531018
 172    -2.8175287732506e-06
 173    9.9191909163773e-06
 174    -1.3474987685503e-05
 175    3.3207556444387e-06
 176    -1.8234107911797e-05
 177    -1.5986187449582e-05
 178    8.4324773746215e-05
 179    -8.7022160738976e-07
 180    1.9144879713632e-06
 181    -4.9307952670034e-06
 182    1.5368726617253e-05
 183    2.6604664983278e-05
 184    -6.908584679735e-05
 185    -5.9118619622049e-06
 186    4.0958825247832e-06
 187    6.2655614865018e-06
 188    0.00012707763192164
 189    -0.00010183615442927
 190    -8.5711320386885e-05
 191    1.3426092493228e-06
 192    1.9796975731963e-06
 193    -7.7459635157868e-06
 194    -2.9866558602945e-06
 195    -5.087791576793e-06
 196    -1.3595543364595e-05
 197    -1.8738460960499e-05
 198    5.6631886519178e-06
 199    1.9634418023597e-06
 200    -3.4897342725461e-06
 201    -1.3506640634484e-05
 202    2.7836614498011e-06
 203    -1.3169809891846e-05
 204    9.9976569829615e-06
 205    1.1857968906726e-05
 206     7.97478047733e-06
 207    6.7361081478932e-05
 208    -1.6205960942835e-05
 209    3.9437109497535e-06
 210    1.5710160915481e-05
 211    -2.1131907587993e-05
 212    -3.6123665966584e-05
 213    0.00025476222664248
 214    1.0321168160881e-05
 215    -4.0162048362678e-06
 216    -1.1179690735695e-05
 217    0.00019782969960026
 218    -5.4362506204242e-05
 219    -7.9589195039817e-05
 220    -2.0686105184233e-06
 221    -1.6983833318996e-05
 222    5.7927836595088e-06
 223    9.5547699433995e-06
 224    -1.993098294876e-06
 225    2.5410141531495e-05
 226    5.4525266968699e-05
 227    -1.2356683565651e-05
 228    -1.9247374679701e-06
 229    -9.4812870856241e-07
 230    9.7222959811217e-06
 231    5.430809530072e-05
 232    -4.0324194671908e-06
 233    6.3494734188435e-06
 234    1.2027453275097e-05
 235    2.2737856170534e-06
 236    2.6784615472779e-06
 237    -7.7494746489733e-05
 238    5.3876637672016e-06
 239    3.9507798159119e-06
 240    -6.8990007213902e-06
 241    3.701528936833e-05
 242    -6.192190614933e-05
 243    1.6360593687186e-05
 244    1.9695465268974e-06
 245    1.7414651459227e-06
 246    -2.1442696871027e-06
 247    1.2372542523808e-07
 248    1.1283773671596e-06
 249    -2.304739283364e-05
 250    1.0827856387955e-05
 251    -4.2310374749967e-06
 252    -5.9306838275885e-07
 253    1.4957693578724e-07
 254    -2.1382263771949e-05
 255    5.4087335026329e-05
 256    -1.5896879172732e-07
 257    3.8908457263891e-06
 258    -7.8917508529413e-07
 259    -1.212143852994e-05
 260    -2.2861624415944e-05
 261    7.6224424424009e-05
 262    -6.792417288286e-06