[Molden Format]
made by pyscf v[2.0.1]
[Atoms] (AU)
O   1   8     0.00000000000000     0.00000000000000     9.05202446090250
H   2   1     0.00000000000000     0.00000000000000     7.22862263900153
H   3   1    -0.05031916615174     1.78353065140343     9.42789615736916
O   4   8     0.00000000000000     0.00000000000000     2.31533471513237
C   5   6     0.00000000000000     0.00000000000000     0.00000000000000
C   6   6     2.01118073026938    -1.40227222164369    -1.50774939176400
C   7   6    -2.01249334291722     1.41331050329955    -1.50315905028694
H   8   1     3.32037363730244    -2.26721897153159    -0.13599698591495
C   9   6     3.45899267434009     0.28739631745591    -3.37437943254505
H   10   1     1.07662969841332    -2.94725144642667    -2.56541439481080
H   11   1    -2.67503415753480     0.18421555839588    -3.06194479365997
H   12   1    -1.07974048864772     3.03851734677796    -2.43674295017013
C   13   6    -4.21607110578555     2.32938802552922     0.11994162256091
H   14   1     4.24440173074564     1.93368664142019    -2.34976285512790
H   15   1     2.15020713235517     1.04714335134846    -4.81494497423699
C   16   6     5.60746363007797    -1.12419643481196    -4.70268606082550
H   17   1    -3.46838323670267     3.50951302338067     1.66946842715333
H   18   1    -5.11873485366228     0.68575958301209     1.04047743976495
C   19   6    -6.18314754751344     3.80909592987882    -1.39656589068747
H   20   1     6.93011263717176    -1.87550812453645    -3.26656317360070
C   21   6     7.06356622236532     0.52877932406334    -6.57829775293605
H   22   1     4.82318879258361    -2.78573437948532    -5.70504560381835
H   23   1    -6.91582688743803     2.61304780074712    -2.95074552451969
H   24   1    -5.26532430573853     5.45420349051338    -2.31005832200284
C   25   6    -8.39941882261433     4.73263980500213     0.21800571437956
H   26   1     7.83338371486801     2.19084139882824    -5.57093109900697
H   27   1     5.73544244039420     1.27376866537418    -8.01071492370229
C   28   6     9.21124858443101    -0.89699110072176    -7.88926949186242
H   29   1    -7.66272760055236     5.92277078003992     1.77035591474408
H   30   1    -9.31497248082589     3.08753015622020     1.12614408368786
C   31   6   -10.35481709231879     6.21833079391143    -1.30905206253246
H   32   1    10.58815905329501    -1.61074586756696    -6.49512691622620
H   33   1    10.23506248045667     0.32468009384095    -9.23072870921204
H   34   1     8.47665842847139    -2.53598436989925    -8.94921964622535
H   35   1    -9.48948872868064     7.90013588951020    -2.18823918416067
H   36   1   -11.93332513000955     6.86460487874102    -0.11255798845995
H   37   1   -11.15126291841033     5.04495968327630    -2.83849898862534
[GTO]
1 0
 s    8 1.00
                 11720  0.00070964594651845
                  1759  0.0054672722921914
                 400.8   0.027823118610189
                 113.7    0.10474773971146
                 37.03    0.28292084635691
                 13.27    0.44849523869833
                 5.025    0.27081688521277
                 1.013    0.01545029160744
 s    8 1.00
                 11720  -0.00031444341168873
                  1759  -0.0024821376810179
                 400.8  -0.012316355381583
                 113.7  -0.050538917343672
                 37.03   -0.13938490331632
                 13.27   -0.32507749481778
                 5.025   -0.22984830758785
                 1.013     1.0953793467883
 s    1 1.00
                0.3023                   1
 p    3 1.00
                  17.7   0.062679166281506
                 3.854    0.33353656587936
                 1.046    0.74123964163973
 p    1 1.00
                0.2753                   1
 d    1 1.00
                 1.185                   1

2 0
 s    3 1.00
                 13.01   0.033498726389998
                 1.962    0.23480080117413
                0.4446     0.8136829578829
 s    1 1.00
                 0.122                   1
 p    1 1.00
                 0.727                   1

3 0
 s    3 1.00
                 13.01   0.033498726389998
                 1.962    0.23480080117413
                0.4446     0.8136829578829
 s    1 1.00
                 0.122                   1
 p    1 1.00
                 0.727                   1

4 0
 s    8 1.00
                 11720  0.00070964594651845
                  1759  0.0054672722921914
                 400.8   0.027823118610189
                 113.7    0.10474773971146
                 37.03    0.28292084635691
                 13.27    0.44849523869833
                 5.025    0.27081688521277
                 1.013    0.01545029160744
 s    8 1.00
                 11720  -0.00031444341168873
                  1759  -0.0024821376810179
                 400.8  -0.012316355381583
                 113.7  -0.050538917343672
                 37.03   -0.13938490331632
                 13.27   -0.32507749481778
                 5.025   -0.22984830758785
                 1.013     1.0953793467883
 s    1 1.00
                0.3023                   1
 p    3 1.00
                  17.7   0.062679166281506
                 3.854    0.33353656587936
                 1.046    0.74123964163973
 p    1 1.00
                0.2753                   1
 d    1 1.00
                 1.185                   1

5 0
 s    8 1.00
                  6665  0.00069158396281299
                  1000  0.0053257961529341
                   228   0.027060721042034
                 64.71    0.10165684614077
                 21.06     0.2745748236174
                 7.495    0.44829431892377
                 2.797    0.28490261071525
                0.5215   0.015194859206082
 s    8 1.00
                  6665  -0.00029326965268655
                  1000  -0.0023180354739745
                   228  -0.011499786038565
                 64.71  -0.046826727009787
                 21.06   -0.12846616875047
                 7.495   -0.30126627246289
                 2.797   -0.25563070233011
                0.5215      1.093793361012
 s    1 1.00
                0.1596                   1
 p    3 1.00
                 9.439   0.056979251590039
                 2.002    0.31320721150073
                0.5456    0.76037674173753
 p    1 1.00
                0.1517                   1
 d    1 1.00
                  0.55                   1

6 0
 s    8 1.00
                  6665  0.00069158396281299
                  1000  0.0053257961529341
                   228   0.027060721042034
                 64.71    0.10165684614077
                 21.06     0.2745748236174
                 7.495    0.44829431892377
                 2.797    0.28490261071525
                0.5215   0.015194859206082
 s    8 1.00
                  6665  -0.00029326965268655
                  1000  -0.0023180354739745
                   228  -0.011499786038565
                 64.71  -0.046826727009787
                 21.06   -0.12846616875047
                 7.495   -0.30126627246289
                 2.797   -0.25563070233011
                0.5215      1.093793361012
 s    1 1.00
                0.1596                   1
 p    3 1.00
                 9.439   0.056979251590039
                 2.002    0.31320721150073
                0.5456    0.76037674173753
 p    1 1.00
                0.1517                   1
 d    1 1.00
                  0.55                   1

7 0
 s    8 1.00
                  6665  0.00069158396281299
                  1000  0.0053257961529341
                   228   0.027060721042034
                 64.71    0.10165684614077
                 21.06     0.2745748236174
                 7.495    0.44829431892377
                 2.797    0.28490261071525
                0.5215   0.015194859206082
 s    8 1.00
                  6665  -0.00029326965268655
                  1000  -0.0023180354739745
                   228  -0.011499786038565
                 64.71  -0.046826727009787
                 21.06   -0.12846616875047
                 7.495   -0.30126627246289
                 2.797   -0.25563070233011
                0.5215      1.093793361012
 s    1 1.00
                0.1596                   1
 p    3 1.00
                 9.439   0.056979251590039
                 2.002    0.31320721150073
                0.5456    0.76037674173753
 p    1 1.00
                0.1517                   1
 d    1 1.00
                  0.55                   1

8 0
 s    3 1.00
                 13.01   0.033498726389998
                 1.962    0.23480080117413
                0.4446     0.8136829578829
 s    1 1.00
                 0.122                   1
 p    1 1.00
                 0.727                   1

9 0
 s    8 1.00
                  6665  0.00069158396281299
                  1000  0.0053257961529341
                   228   0.027060721042034
                 64.71    0.10165684614077
                 21.06     0.2745748236174
                 7.495    0.44829431892377
                 2.797    0.28490261071525
                0.5215   0.015194859206082
 s    8 1.00
                  6665  -0.00029326965268655
                  1000  -0.0023180354739745
                   228  -0.011499786038565
                 64.71  -0.046826727009787
                 21.06   -0.12846616875047
                 7.495   -0.30126627246289
                 2.797   -0.25563070233011
                0.5215      1.093793361012
 s    1 1.00
                0.1596                   1
 p    3 1.00
                 9.439   0.056979251590039
                 2.002    0.31320721150073
                0.5456    0.76037674173753
 p    1 1.00
                0.1517                   1
 d    1 1.00
                  0.55                   1

10 0
 s    3 1.00
                 13.01   0.033498726389998
                 1.962    0.23480080117413
                0.4446     0.8136829578829
 s    1 1.00
                 0.122                   1
 p    1 1.00
                 0.727                   1

11 0
 s    3 1.00
                 13.01   0.033498726389998
                 1.962    0.23480080117413
                0.4446     0.8136829578829
 s    1 1.00
                 0.122                   1
 p    1 1.00
                 0.727                   1

12 0
 s    3 1.00
                 13.01   0.033498726389998
                 1.962    0.23480080117413
                0.4446     0.8136829578829
 s    1 1.00
                 0.122                   1
 p    1 1.00
                 0.727                   1

13 0
 s    8 1.00
                  6665  0.00069158396281299
                  1000  0.0053257961529341
                   228   0.027060721042034
                 64.71    0.10165684614077
                 21.06     0.2745748236174
                 7.495    0.44829431892377
                 2.797    0.28490261071525
                0.5215   0.015194859206082
 s    8 1.00
                  6665  -0.00029326965268655
                  1000  -0.0023180354739745
                   228  -0.011499786038565
                 64.71  -0.046826727009787
                 21.06   -0.12846616875047
                 7.495   -0.30126627246289
                 2.797   -0.25563070233011
                0.5215      1.093793361012
 s    1 1.00
                0.1596                   1
 p    3 1.00
                 9.439   0.056979251590039
                 2.002    0.31320721150073
                0.5456    0.76037674173753
 p    1 1.00
                0.1517                   1
 d    1 1.00
                  0.55                   1

14 0
 s    3 1.00
                 13.01   0.033498726389998
                 1.962    0.23480080117413
                0.4446     0.8136829578829
 s    1 1.00
                 0.122                   1
 p    1 1.00
                 0.727                   1

15 0
 s    3 1.00
                 13.01   0.033498726389998
                 1.962    0.23480080117413
                0.4446     0.8136829578829
 s    1 1.00
                 0.122                   1
 p    1 1.00
                 0.727                   1

16 0
 s    8 1.00
                  6665  0.00069158396281299
                  1000  0.0053257961529341
                   228   0.027060721042034
                 64.71    0.10165684614077
                 21.06     0.2745748236174
                 7.495    0.44829431892377
                 2.797    0.28490261071525
                0.5215   0.015194859206082
 s    8 1.00
                  6665  -0.00029326965268655
                  1000  -0.0023180354739745
                   228  -0.011499786038565
                 64.71  -0.046826727009787
                 21.06   -0.12846616875047
                 7.495   -0.30126627246289
                 2.797   -0.25563070233011
                0.5215      1.093793361012
 s    1 1.00
                0.1596                   1
 p    3 1.00
                 9.439   0.056979251590039
                 2.002    0.31320721150073
                0.5456    0.76037674173753
 p    1 1.00
                0.1517                   1
 d    1 1.00
                  0.55                   1

17 0
 s    3 1.00
                 13.01   0.033498726389998
                 1.962    0.23480080117413
                0.4446     0.8136829578829
 s    1 1.00
                 0.122                   1
 p    1 1.00
                 0.727                   1

18 0
 s    3 1.00
                 13.01   0.033498726389998
                 1.962    0.23480080117413
                0.4446     0.8136829578829
 s    1 1.00
                 0.122                   1
 p    1 1.00
                 0.727                   1

19 0
 s    8 1.00
                  6665  0.00069158396281299
                  1000  0.0053257961529341
                   228   0.027060721042034
                 64.71    0.10165684614077
                 21.06     0.2745748236174
                 7.495    0.44829431892377
                 2.797    0.28490261071525
                0.5215   0.015194859206082
 s    8 1.00
                  6665  -0.00029326965268655
                  1000  -0.0023180354739745
                   228  -0.011499786038565
                 64.71  -0.046826727009787
                 21.06   -0.12846616875047
                 7.495   -0.30126627246289
                 2.797   -0.25563070233011
                0.5215      1.093793361012
 s    1 1.00
                0.1596                   1
 p    3 1.00
                 9.439   0.056979251590039
                 2.002    0.31320721150073
                0.5456    0.76037674173753
 p    1 1.00
                0.1517                   1
 d    1 1.00
                  0.55                   1

20 0
 s    3 1.00
                 13.01   0.033498726389998
                 1.962    0.23480080117413
                0.4446     0.8136829578829
 s    1 1.00
                 0.122                   1
 p    1 1.00
                 0.727                   1

21 0
 s    8 1.00
                  6665  0.00069158396281299
                  1000  0.0053257961529341
                   228   0.027060721042034
                 64.71    0.10165684614077
                 21.06     0.2745748236174
                 7.495    0.44829431892377
                 2.797    0.28490261071525
                0.5215   0.015194859206082
 s    8 1.00
                  6665  -0.00029326965268655
                  1000  -0.0023180354739745
                   228  -0.011499786038565
                 64.71  -0.046826727009787
                 21.06   -0.12846616875047
                 7.495   -0.30126627246289
                 2.797   -0.25563070233011
                0.5215      1.093793361012
 s    1 1.00
                0.1596                   1
 p    3 1.00
                 9.439   0.056979251590039
                 2.002    0.31320721150073
                0.5456    0.76037674173753
 p    1 1.00
                0.1517                   1
 d    1 1.00
                  0.55                   1

22 0
 s    3 1.00
                 13.01   0.033498726389998
                 1.962    0.23480080117413
                0.4446     0.8136829578829
 s    1 1.00
                 0.122                   1
 p    1 1.00
                 0.727                   1

23 0
 s    3 1.00
                 13.01   0.033498726389998
                 1.962    0.23480080117413
                0.4446     0.8136829578829
 s    1 1.00
                 0.122                   1
 p    1 1.00
                 0.727                   1

24 0
 s    3 1.00
                 13.01   0.033498726389998
                 1.962    0.23480080117413
                0.4446     0.8136829578829
 s    1 1.00
                 0.122                   1
 p    1 1.00
                 0.727                   1

25 0
 s    8 1.00
                  6665  0.00069158396281299
                  1000  0.0053257961529341
                   228   0.027060721042034
                 64.71    0.10165684614077
                 21.06     0.2745748236174
                 7.495    0.44829431892377
                 2.797    0.28490261071525
                0.5215   0.015194859206082
 s    8 1.00
                  6665  -0.00029326965268655
                  1000  -0.0023180354739745
                   228  -0.011499786038565
                 64.71  -0.046826727009787
                 21.06   -0.12846616875047
                 7.495   -0.30126627246289
                 2.797   -0.25563070233011
                0.5215      1.093793361012
 s    1 1.00
                0.1596                   1
 p    3 1.00
                 9.439   0.056979251590039
                 2.002    0.31320721150073
                0.5456    0.76037674173753
 p    1 1.00
                0.1517                   1
 d    1 1.00
                  0.55                   1

26 0
 s    3 1.00
                 13.01   0.033498726389998
                 1.962    0.23480080117413
                0.4446     0.8136829578829
 s    1 1.00
                 0.122                   1
 p    1 1.00
                 0.727                   1

27 0
 s    3 1.00
                 13.01   0.033498726389998
                 1.962    0.23480080117413
                0.4446     0.8136829578829
 s    1 1.00
                 0.122                   1
 p    1 1.00
                 0.727                   1

28 0
 s    8 1.00
                  6665  0.00069158396281299
                  1000  0.0053257961529341
                   228   0.027060721042034
                 64.71    0.10165684614077
                 21.06     0.2745748236174
                 7.495    0.44829431892377
                 2.797    0.28490261071525
                0.5215   0.015194859206082
 s    8 1.00
                  6665  -0.00029326965268655
                  1000  -0.0023180354739745
                   228  -0.011499786038565
                 64.71  -0.046826727009787
                 21.06   -0.12846616875047
                 7.495   -0.30126627246289
                 2.797   -0.25563070233011
                0.5215      1.093793361012
 s    1 1.00
                0.1596                   1
 p    3 1.00
                 9.439   0.056979251590039
                 2.002    0.31320721150073
                0.5456    0.76037674173753
 p    1 1.00
                0.1517                   1
 d    1 1.00
                  0.55                   1

29 0
 s    3 1.00
                 13.01   0.033498726389998
                 1.962    0.23480080117413
                0.4446     0.8136829578829
 s    1 1.00
                 0.122                   1
 p    1 1.00
                 0.727                   1

30 0
 s    3 1.00
                 13.01   0.033498726389998
                 1.962    0.23480080117413
                0.4446     0.8136829578829
 s    1 1.00
                 0.122                   1
 p    1 1.00
                 0.727                   1

31 0
 s    8 1.00
                  6665  0.00069158396281299
                  1000  0.0053257961529341
                   228   0.027060721042034
                 64.71    0.10165684614077
                 21.06     0.2745748236174
                 7.495    0.44829431892377
                 2.797    0.28490261071525
                0.5215   0.015194859206082
 s    8 1.00
                  6665  -0.00029326965268655
                  1000  -0.0023180354739745
                   228  -0.011499786038565
                 64.71  -0.046826727009787
                 21.06   -0.12846616875047
                 7.495   -0.30126627246289
                 2.797   -0.25563070233011
                0.5215      1.093793361012
 s    1 1.00
                0.1596                   1
 p    3 1.00
                 9.439   0.056979251590039
                 2.002    0.31320721150073
                0.5456    0.76037674173753
 p    1 1.00
                0.1517                   1
 d    1 1.00
                  0.55                   1

32 0
 s    3 1.00
                 13.01   0.033498726389998
                 1.962    0.23480080117413
                0.4446     0.8136829578829
 s    1 1.00
                 0.122                   1
 p    1 1.00
                 0.727                   1

33 0
 s    3 1.00
                 13.01   0.033498726389998
                 1.962    0.23480080117413
                0.4446     0.8136829578829
 s    1 1.00
                 0.122                   1
 p    1 1.00
                 0.727                   1

34 0
 s    3 1.00
                 13.01   0.033498726389998
                 1.962    0.23480080117413
                0.4446     0.8136829578829
 s    1 1.00
                 0.122                   1
 p    1 1.00
                 0.727                   1

35 0
 s    3 1.00
                 13.01   0.033498726389998
                 1.962    0.23480080117413
                0.4446     0.8136829578829
 s    1 1.00
                 0.122                   1
 p    1 1.00
                 0.727                   1

36 0
 s    3 1.00
                 13.01   0.033498726389998
                 1.962    0.23480080117413
                0.4446     0.8136829578829
 s    1 1.00
                 0.122                   1
 p    1 1.00
                 0.727                   1

37 0
 s    3 1.00
                 13.01   0.033498726389998
                 1.962    0.23480080117413
                0.4446     0.8136829578829
 s    1 1.00
                 0.122                   1
 p    1 1.00
                 0.727                   1

[5d]
[7f]
[9g]

[MO]
 Sym= A
 Ene=               0
 Spin= Alpha
 Occup=    1.00000
   1    -7.126356937661e-08
   2    -6.6716449959281e-07
   3    -2.7707883415756e-06
   4    2.1555979329369e-06
   5    2.537084410083e-06
   6    -6.2491222069168e-06
   7    1.6112267097313e-06
   8    1.5295536402076e-06
   9    -4.3896992079175e-06
  10    2.1827894550713e-07
  11    -1.5290407791655e-08
  12    -1.8838703633341e-07
  13    -1.0426924133943e-08
  14    4.5467327457411e-08
  15    3.4278551879905e-06
  16    -2.1174480648299e-06
  17    1.6666990760271e-07
  18    2.4788420197866e-07
  19    6.2339577968439e-08
  20    4.571321153463e-07
  21    1.9541534877443e-06
  22    1.0620925782656e-07
  23    -1.3284554753068e-07
  24    -4.4360006248807e-07
  25    -1.9690851017691e-07
  26    -4.1390612056064e-05
  27    5.3475225609734e-06
  28    0.00012078503562748
  29    -4.0353360733608e-05
  30    -6.4902708306907e-05
  31    6.3377447316878e-05
  32    -9.1565643981646e-07
  33    -7.6024059712231e-05
  34    3.1918159289201e-06
  35    -7.9643426013377e-06
  36    3.1702814213833e-06
  37    -2.5513303532814e-06
  38     3.62807819514e-06
  39    2.2114480913699e-05
  40    -3.7718448947355e-05
  41    -0.00042163131460634
  42    0.00016652978429507
  43    -0.00010170916092395
  44    0.00011832840777083
  45    0.00059139311320449
  46    -0.00036756661191579
  47    -3.8199596914459e-05
  48    -1.2952386765304e-05
  49    -2.3764269187307e-05
  50    2.1865388763019e-05
  51    -5.4723480148529e-06
  52    1.4628865724167e-05
  53    2.762785174993e-05
  54    7.581605289185e-05
  55    -0.00038203476341743
  56    -6.132979852865e-05
  57    4.8163594047345e-05
  58    2.0967335621071e-06
  59    7.2672358281659e-05
  60    -0.00011279445272253
  61    -0.0001346873177268
  62    4.492814581201e-06
  63    3.8682337800715e-06
  64    1.2118821643957e-07
  65    -6.9284086565877e-06
  66    1.1265084511335e-05
  67    -1.1625460274899e-05
  68    9.4437401332401e-05
  69    0.00044763290684946
  70    -0.00025800994250168
  71    0.00013581976399856
  72    8.6500201063137e-05
  73    0.00016189789075913
  74    -8.7836475930261e-05
  75    0.00024528505378745
  76    3.7241123184571e-05
  77    -7.8854941745919e-06
  78    1.7322346986618e-06
  79    -1.4360970607129e-05
  80    2.8933789359675e-05
  81    -4.3356614673417e-05
  82    -7.7568645496725e-05
  83    5.1260811599644e-06
  84    -2.0818992069416e-07
  85    5.5613235709535e-06
  86    -3.5841747458266e-06
  87    8.6638323182096e-06
  88    9.9432918706505e-05
  89    -1.1311431595601e-05
  90    -6.9905917769616e-06
  91    5.6775825315871e-06
  92    5.1792968400722e-05
  93    -4.7741489417474e-05
  94    5.4328908959014e-05
  95    3.5424007701749e-07
  96    -9.6794414266414e-06
  97    3.7382706332354e-06
  98    3.8543305165959e-06
  99    2.251440851123e-06
 100    1.7227126159744e-05
 101    -1.4389435842307e-05
 102    -9.1580758235086e-06
 103    5.0010377864095e-06
 104    3.4514673761005e-06
 105    5.7648061971298e-05
 106    3.7861048074627e-05
 107    -2.5627085388842e-05
 108    1.7710008516662e-05
 109    -8.8131924740615e-06
 110    5.6525887711356e-05
 111    -1.0192356917131e-05
 112    -2.5314987942216e-05
 113    1.2981674470823e-05
 114    -9.8297036570106e-06
 115    9.0729610861196e-05
 116    -0.00023395459740334
 117    -0.0016342028565899
 118    0.00091558208694619
 119    -0.0006379824866095
 120    0.00060965315647622
 121    0.0011006126799094
 122    -0.00078205640086354
 123    0.00064867431440844
 124    3.5804391236434e-05
 125    -9.8171798826429e-05
 126    7.7534132520567e-05
 127    -1.0902308611942e-05
 128    8.4882567589585e-05
 129    -6.5771092533433e-06
 130    -7.4812142970725e-06
 131    -4.8299547550942e-06
 132    1.6177253320714e-06
 133    -1.8827724972469e-06
 134    5.8347085753377e-06
 135    4.7856483304137e-05
 136    4.8112387074166e-06
 137    -2.1027393491342e-06
 138    4.0067325733613e-06
 139    6.4921210114216e-06
 140    1.2620651374424e-05
 141    -5.9106560633633e-05
 142    -1.8809807375521e-06
 143    4.1973674554742e-06
 144    5.324465383405e-06
 145    5.0587009639175e-05
 146    1.8626924305318e-06
 147    -7.8364848160727e-05
 148    -1.5613045916492e-06
 149    3.6554457319331e-06
 150    -2.6107700323407e-06
 151    -6.1243101040364e-07
 152    2.8550279492984e-06
 153    0.00027563994733219
 154    0.00015974675492305
 155    -5.3146215967261e-06
 156    -2.0863289822124e-06
 157    -1.7334300573232e-06
 158    0.00020253249680353
 159    7.5095001360429e-05
 160    1.6678597419045e-06
 161    5.1802105842939e-06
 162    4.2052151001789e-06
 163    8.9598886866811e-05
 164    -0.00011380056493245
 165    4.6961415900683e-05
 166    -0.00090536112442956
 167    0.00044270261015802
 168    -0.0011090144524124
 169    0.00072056175385396
 170    -0.00057442274880532
 171    1.7490673427328e-05
 172    6.4097942098791e-06
 173    6.8315874164598e-06
 174    5.4048909205449e-05
 175    -6.4968242063971e-05
 176    0.00012620244140391
 177    5.5211348801403e-06
 178    1.0429577644061e-05
 179    -2.3370662368795e-06
 180    -5.4760708425883e-07
 181    2.0632789174405e-06
 182    5.8436824426786e-07
 183    -3.0703296966634e-06
 184    -2.66472992863e-05
 185    7.8476074225873e-06
 186    1.4577971912747e-06
 187    8.9321830304833e-06
 188    1.0953532395566e-05
 189    2.0168216759502e-05
 190    -1.1642045393195e-06
 191    7.8380480688236e-07
 192    2.2063500757726e-07
 193    1.187378820837e-06
 194    7.5243024320055e-07
 195    -1.4852782221741e-06
 196    -8.7303892950536e-07
 197    -1.5532180588357e-05
 198    -2.11844564133e-06
 199    -2.2310024063867e-06
 200    2.3579836473763e-06
 201    0.00074172266839823
 202    0.00056152532279804
 203    -7.7697771540665e-05
 204    0.00011800972494363
 205    -1.0353396751265e-05
 206    0.0003093523157415
 207    0.00035674213098515
 208    -0.00012871830134043
 209    3.1561930574424e-05
 210    -5.3669497504206e-05
 211      0.10168214730083
 212    0.00045698489756385
 213    -0.0028419426818699
 214    2.3760152558753e-05
 215    -1.6181937876704e-05
 216    -2.8995322091349e-05
 217    0.0011398725288553
 218    -0.00077999824361557
 219    0.00049735674399132
 220    6.2034891284625e-05
 221    4.9618105923875e-05
 222    -6.0530162862972e-05
 223    2.014517739985e-05
 224    -8.4368798566436e-05
 225    4.9125927266435e-06
 226    -2.6595748687108e-06
 227    3.1710562168956e-07
 228    -9.9270937307896e-07
 229    4.0394172327069e-07
 230    -1.1682856646104e-05
 231    -1.1409845416425e-05
 232    -6.7459477205113e-07
 233    -3.0952183034392e-08
 234    -1.7630295005264e-06
 235    0.0012715080944083
 236    8.7241915137511e-06
 237    -1.6295171434355e-05
 238    1.6370101140169e-06
 239    -9.5316909028838e-07
 240    1.9209856366729e-06
 241    7.9499809593384e-06
 242    7.4252234256756e-06
 243    -1.0660799178932e-05
 244    3.4563248820053e-07
 245    1.2278925201995e-06
 246    -2.1445659486457e-07
 247    -4.6238951827365e-07
 248    2.7139188649533e-07
 249    0.00012058507438611
 250    8.2464297223583e-05
 251    4.6643026758999e-05
 252    1.6529289845684e-05
 253    7.331215887256e-05
 254    9.426293797259e-05
 255    2.5453803802594e-05
 256    -4.2661537027705e-06
 257    -6.7410611869486e-05
 258    5.4151093953809e-05
 259     -0.99725392853059
 260     -0.00485614905471
 261    0.0099221541508245
 262    0.00012616246605534
 263    -0.00010190671724571