[Molden Format]
made by pyscf v[2.0.1]
[Atoms] (AU)
O   1   8     0.00000000000000     0.00000000000000     7.91818878616346
H   2   1     0.00000000000000     0.00000000000000     6.09478696426249
H   3   1    -0.05031916615174     1.78353065140343     8.29406048263013
O   4   8     0.00000000000000     0.00000000000000     2.31533471513237
C   5   6     0.00000000000000     0.00000000000000     0.00000000000000
C   6   6     2.01118073026938    -1.40227222164369    -1.50774939176400
C   7   6    -2.01249334291722     1.41331050329955    -1.50315905028694
H   8   1     3.32037363730244    -2.26721897153159    -0.13599698591495
C   9   6     3.45899267434009     0.28739631745591    -3.37437943254505
H   10   1     1.07662969841332    -2.94725144642667    -2.56541439481080
H   11   1    -2.67503415753480     0.18421555839588    -3.06194479365997
H   12   1    -1.07974048864772     3.03851734677796    -2.43674295017013
C   13   6    -4.21607110578555     2.32938802552922     0.11994162256091
H   14   1     4.24440173074564     1.93368664142019    -2.34976285512790
H   15   1     2.15020713235517     1.04714335134846    -4.81494497423699
C   16   6     5.60746363007797    -1.12419643481196    -4.70268606082550
H   17   1    -3.46838323670267     3.50951302338067     1.66946842715333
H   18   1    -5.11873485366228     0.68575958301209     1.04047743976495
C   19   6    -6.18314754751344     3.80909592987882    -1.39656589068747
H   20   1     6.93011263717176    -1.87550812453645    -3.26656317360070
C   21   6     7.06356622236532     0.52877932406334    -6.57829775293605
H   22   1     4.82318879258361    -2.78573437948532    -5.70504560381835
H   23   1    -6.91582688743803     2.61304780074712    -2.95074552451969
H   24   1    -5.26532430573853     5.45420349051338    -2.31005832200284
C   25   6    -8.39941882261433     4.73263980500213     0.21800571437956
H   26   1     7.83338371486801     2.19084139882824    -5.57093109900697
H   27   1     5.73544244039420     1.27376866537418    -8.01071492370229
C   28   6     9.21124858443101    -0.89699110072176    -7.88926949186242
H   29   1    -7.66272760055236     5.92277078003992     1.77035591474408
H   30   1    -9.31497248082589     3.08753015622020     1.12614408368786
C   31   6   -10.35481709231879     6.21833079391143    -1.30905206253246
H   32   1    10.58815905329501    -1.61074586756696    -6.49512691622620
H   33   1    10.23506248045667     0.32468009384095    -9.23072870921204
H   34   1     8.47665842847139    -2.53598436989925    -8.94921964622535
H   35   1    -9.48948872868064     7.90013588951020    -2.18823918416067
H   36   1   -11.93332513000955     6.86460487874102    -0.11255798845995
H   37   1   -11.15126291841033     5.04495968327630    -2.83849898862534
[GTO]
1 0
 s    8 1.00
                 11720  0.00070964594651845
                  1759  0.0054672722921914
                 400.8   0.027823118610189
                 113.7    0.10474773971146
                 37.03    0.28292084635691
                 13.27    0.44849523869833
                 5.025    0.27081688521277
                 1.013    0.01545029160744
 s    8 1.00
                 11720  -0.00031444341168873
                  1759  -0.0024821376810179
                 400.8  -0.012316355381583
                 113.7  -0.050538917343672
                 37.03   -0.13938490331632
                 13.27   -0.32507749481778
                 5.025   -0.22984830758785
                 1.013     1.0953793467883
 s    1 1.00
                0.3023                   1
 p    3 1.00
                  17.7   0.062679166281506
                 3.854    0.33353656587936
                 1.046    0.74123964163973
 p    1 1.00
                0.2753                   1
 d    1 1.00
                 1.185                   1

2 0
 s    3 1.00
                 13.01   0.033498726389998
                 1.962    0.23480080117413
                0.4446     0.8136829578829
 s    1 1.00
                 0.122                   1
 p    1 1.00
                 0.727                   1

3 0
 s    3 1.00
                 13.01   0.033498726389998
                 1.962    0.23480080117413
                0.4446     0.8136829578829
 s    1 1.00
                 0.122                   1
 p    1 1.00
                 0.727                   1

4 0
 s    8 1.00
                 11720  0.00070964594651845
                  1759  0.0054672722921914
                 400.8   0.027823118610189
                 113.7    0.10474773971146
                 37.03    0.28292084635691
                 13.27    0.44849523869833
                 5.025    0.27081688521277
                 1.013    0.01545029160744
 s    8 1.00
                 11720  -0.00031444341168873
                  1759  -0.0024821376810179
                 400.8  -0.012316355381583
                 113.7  -0.050538917343672
                 37.03   -0.13938490331632
                 13.27   -0.32507749481778
                 5.025   -0.22984830758785
                 1.013     1.0953793467883
 s    1 1.00
                0.3023                   1
 p    3 1.00
                  17.7   0.062679166281506
                 3.854    0.33353656587936
                 1.046    0.74123964163973
 p    1 1.00
                0.2753                   1
 d    1 1.00
                 1.185                   1

5 0
 s    8 1.00
                  6665  0.00069158396281299
                  1000  0.0053257961529341
                   228   0.027060721042034
                 64.71    0.10165684614077
                 21.06     0.2745748236174
                 7.495    0.44829431892377
                 2.797    0.28490261071525
                0.5215   0.015194859206082
 s    8 1.00
                  6665  -0.00029326965268655
                  1000  -0.0023180354739745
                   228  -0.011499786038565
                 64.71  -0.046826727009787
                 21.06   -0.12846616875047
                 7.495   -0.30126627246289
                 2.797   -0.25563070233011
                0.5215      1.093793361012
 s    1 1.00
                0.1596                   1
 p    3 1.00
                 9.439   0.056979251590039
                 2.002    0.31320721150073
                0.5456    0.76037674173753
 p    1 1.00
                0.1517                   1
 d    1 1.00
                  0.55                   1

6 0
 s    8 1.00
                  6665  0.00069158396281299
                  1000  0.0053257961529341
                   228   0.027060721042034
                 64.71    0.10165684614077
                 21.06     0.2745748236174
                 7.495    0.44829431892377
                 2.797    0.28490261071525
                0.5215   0.015194859206082
 s    8 1.00
                  6665  -0.00029326965268655
                  1000  -0.0023180354739745
                   228  -0.011499786038565
                 64.71  -0.046826727009787
                 21.06   -0.12846616875047
                 7.495   -0.30126627246289
                 2.797   -0.25563070233011
                0.5215      1.093793361012
 s    1 1.00
                0.1596                   1
 p    3 1.00
                 9.439   0.056979251590039
                 2.002    0.31320721150073
                0.5456    0.76037674173753
 p    1 1.00
                0.1517                   1
 d    1 1.00
                  0.55                   1

7 0
 s    8 1.00
                  6665  0.00069158396281299
                  1000  0.0053257961529341
                   228   0.027060721042034
                 64.71    0.10165684614077
                 21.06     0.2745748236174
                 7.495    0.44829431892377
                 2.797    0.28490261071525
                0.5215   0.015194859206082
 s    8 1.00
                  6665  -0.00029326965268655
                  1000  -0.0023180354739745
                   228  -0.011499786038565
                 64.71  -0.046826727009787
                 21.06   -0.12846616875047
                 7.495   -0.30126627246289
                 2.797   -0.25563070233011
                0.5215      1.093793361012
 s    1 1.00
                0.1596                   1
 p    3 1.00
                 9.439   0.056979251590039
                 2.002    0.31320721150073
                0.5456    0.76037674173753
 p    1 1.00
                0.1517                   1
 d    1 1.00
                  0.55                   1

8 0
 s    3 1.00
                 13.01   0.033498726389998
                 1.962    0.23480080117413
                0.4446     0.8136829578829
 s    1 1.00
                 0.122                   1
 p    1 1.00
                 0.727                   1

9 0
 s    8 1.00
                  6665  0.00069158396281299
                  1000  0.0053257961529341
                   228   0.027060721042034
                 64.71    0.10165684614077
                 21.06     0.2745748236174
                 7.495    0.44829431892377
                 2.797    0.28490261071525
                0.5215   0.015194859206082
 s    8 1.00
                  6665  -0.00029326965268655
                  1000  -0.0023180354739745
                   228  -0.011499786038565
                 64.71  -0.046826727009787
                 21.06   -0.12846616875047
                 7.495   -0.30126627246289
                 2.797   -0.25563070233011
                0.5215      1.093793361012
 s    1 1.00
                0.1596                   1
 p    3 1.00
                 9.439   0.056979251590039
                 2.002    0.31320721150073
                0.5456    0.76037674173753
 p    1 1.00
                0.1517                   1
 d    1 1.00
                  0.55                   1

10 0
 s    3 1.00
                 13.01   0.033498726389998
                 1.962    0.23480080117413
                0.4446     0.8136829578829
 s    1 1.00
                 0.122                   1
 p    1 1.00
                 0.727                   1

11 0
 s    3 1.00
                 13.01   0.033498726389998
                 1.962    0.23480080117413
                0.4446     0.8136829578829
 s    1 1.00
                 0.122                   1
 p    1 1.00
                 0.727                   1

12 0
 s    3 1.00
                 13.01   0.033498726389998
                 1.962    0.23480080117413
                0.4446     0.8136829578829
 s    1 1.00
                 0.122                   1
 p    1 1.00
                 0.727                   1

13 0
 s    8 1.00
                  6665  0.00069158396281299
                  1000  0.0053257961529341
                   228   0.027060721042034
                 64.71    0.10165684614077
                 21.06     0.2745748236174
                 7.495    0.44829431892377
                 2.797    0.28490261071525
                0.5215   0.015194859206082
 s    8 1.00
                  6665  -0.00029326965268655
                  1000  -0.0023180354739745
                   228  -0.011499786038565
                 64.71  -0.046826727009787
                 21.06   -0.12846616875047
                 7.495   -0.30126627246289
                 2.797   -0.25563070233011
                0.5215      1.093793361012
 s    1 1.00
                0.1596                   1
 p    3 1.00
                 9.439   0.056979251590039
                 2.002    0.31320721150073
                0.5456    0.76037674173753
 p    1 1.00
                0.1517                   1
 d    1 1.00
                  0.55                   1

14 0
 s    3 1.00
                 13.01   0.033498726389998
                 1.962    0.23480080117413
                0.4446     0.8136829578829
 s    1 1.00
                 0.122                   1
 p    1 1.00
                 0.727                   1

15 0
 s    3 1.00
                 13.01   0.033498726389998
                 1.962    0.23480080117413
                0.4446     0.8136829578829
 s    1 1.00
                 0.122                   1
 p    1 1.00
                 0.727                   1

16 0
 s    8 1.00
                  6665  0.00069158396281299
                  1000  0.0053257961529341
                   228   0.027060721042034
                 64.71    0.10165684614077
                 21.06     0.2745748236174
                 7.495    0.44829431892377
                 2.797    0.28490261071525
                0.5215   0.015194859206082
 s    8 1.00
                  6665  -0.00029326965268655
                  1000  -0.0023180354739745
                   228  -0.011499786038565
                 64.71  -0.046826727009787
                 21.06   -0.12846616875047
                 7.495   -0.30126627246289
                 2.797   -0.25563070233011
                0.5215      1.093793361012
 s    1 1.00
                0.1596                   1
 p    3 1.00
                 9.439   0.056979251590039
                 2.002    0.31320721150073
                0.5456    0.76037674173753
 p    1 1.00
                0.1517                   1
 d    1 1.00
                  0.55                   1

17 0
 s    3 1.00
                 13.01   0.033498726389998
                 1.962    0.23480080117413
                0.4446     0.8136829578829
 s    1 1.00
                 0.122                   1
 p    1 1.00
                 0.727                   1

18 0
 s    3 1.00
                 13.01   0.033498726389998
                 1.962    0.23480080117413
                0.4446     0.8136829578829
 s    1 1.00
                 0.122                   1
 p    1 1.00
                 0.727                   1

19 0
 s    8 1.00
                  6665  0.00069158396281299
                  1000  0.0053257961529341
                   228   0.027060721042034
                 64.71    0.10165684614077
                 21.06     0.2745748236174
                 7.495    0.44829431892377
                 2.797    0.28490261071525
                0.5215   0.015194859206082
 s    8 1.00
                  6665  -0.00029326965268655
                  1000  -0.0023180354739745
                   228  -0.011499786038565
                 64.71  -0.046826727009787
                 21.06   -0.12846616875047
                 7.495   -0.30126627246289
                 2.797   -0.25563070233011
                0.5215      1.093793361012
 s    1 1.00
                0.1596                   1
 p    3 1.00
                 9.439   0.056979251590039
                 2.002    0.31320721150073
                0.5456    0.76037674173753
 p    1 1.00
                0.1517                   1
 d    1 1.00
                  0.55                   1

20 0
 s    3 1.00
                 13.01   0.033498726389998
                 1.962    0.23480080117413
                0.4446     0.8136829578829
 s    1 1.00
                 0.122                   1
 p    1 1.00
                 0.727                   1

21 0
 s    8 1.00
                  6665  0.00069158396281299
                  1000  0.0053257961529341
                   228   0.027060721042034
                 64.71    0.10165684614077
                 21.06     0.2745748236174
                 7.495    0.44829431892377
                 2.797    0.28490261071525
                0.5215   0.015194859206082
 s    8 1.00
                  6665  -0.00029326965268655
                  1000  -0.0023180354739745
                   228  -0.011499786038565
                 64.71  -0.046826727009787
                 21.06   -0.12846616875047
                 7.495   -0.30126627246289
                 2.797   -0.25563070233011
                0.5215      1.093793361012
 s    1 1.00
                0.1596                   1
 p    3 1.00
                 9.439   0.056979251590039
                 2.002    0.31320721150073
                0.5456    0.76037674173753
 p    1 1.00
                0.1517                   1
 d    1 1.00
                  0.55                   1

22 0
 s    3 1.00
                 13.01   0.033498726389998
                 1.962    0.23480080117413
                0.4446     0.8136829578829
 s    1 1.00
                 0.122                   1
 p    1 1.00
                 0.727                   1

23 0
 s    3 1.00
                 13.01   0.033498726389998
                 1.962    0.23480080117413
                0.4446     0.8136829578829
 s    1 1.00
                 0.122                   1
 p    1 1.00
                 0.727                   1

24 0
 s    3 1.00
                 13.01   0.033498726389998
                 1.962    0.23480080117413
                0.4446     0.8136829578829
 s    1 1.00
                 0.122                   1
 p    1 1.00
                 0.727                   1

25 0
 s    8 1.00
                  6665  0.00069158396281299
                  1000  0.0053257961529341
                   228   0.027060721042034
                 64.71    0.10165684614077
                 21.06     0.2745748236174
                 7.495    0.44829431892377
                 2.797    0.28490261071525
                0.5215   0.015194859206082
 s    8 1.00
                  6665  -0.00029326965268655
                  1000  -0.0023180354739745
                   228  -0.011499786038565
                 64.71  -0.046826727009787
                 21.06   -0.12846616875047
                 7.495   -0.30126627246289
                 2.797   -0.25563070233011
                0.5215      1.093793361012
 s    1 1.00
                0.1596                   1
 p    3 1.00
                 9.439   0.056979251590039
                 2.002    0.31320721150073
                0.5456    0.76037674173753
 p    1 1.00
                0.1517                   1
 d    1 1.00
                  0.55                   1

26 0
 s    3 1.00
                 13.01   0.033498726389998
                 1.962    0.23480080117413
                0.4446     0.8136829578829
 s    1 1.00
                 0.122                   1
 p    1 1.00
                 0.727                   1

27 0
 s    3 1.00
                 13.01   0.033498726389998
                 1.962    0.23480080117413
                0.4446     0.8136829578829
 s    1 1.00
                 0.122                   1
 p    1 1.00
                 0.727                   1

28 0
 s    8 1.00
                  6665  0.00069158396281299
                  1000  0.0053257961529341
                   228   0.027060721042034
                 64.71    0.10165684614077
                 21.06     0.2745748236174
                 7.495    0.44829431892377
                 2.797    0.28490261071525
                0.5215   0.015194859206082
 s    8 1.00
                  6665  -0.00029326965268655
                  1000  -0.0023180354739745
                   228  -0.011499786038565
                 64.71  -0.046826727009787
                 21.06   -0.12846616875047
                 7.495   -0.30126627246289
                 2.797   -0.25563070233011
                0.5215      1.093793361012
 s    1 1.00
                0.1596                   1
 p    3 1.00
                 9.439   0.056979251590039
                 2.002    0.31320721150073
                0.5456    0.76037674173753
 p    1 1.00
                0.1517                   1
 d    1 1.00
                  0.55                   1

29 0
 s    3 1.00
                 13.01   0.033498726389998
                 1.962    0.23480080117413
                0.4446     0.8136829578829
 s    1 1.00
                 0.122                   1
 p    1 1.00
                 0.727                   1

30 0
 s    3 1.00
                 13.01   0.033498726389998
                 1.962    0.23480080117413
                0.4446     0.8136829578829
 s    1 1.00
                 0.122                   1
 p    1 1.00
                 0.727                   1

31 0
 s    8 1.00
                  6665  0.00069158396281299
                  1000  0.0053257961529341
                   228   0.027060721042034
                 64.71    0.10165684614077
                 21.06     0.2745748236174
                 7.495    0.44829431892377
                 2.797    0.28490261071525
                0.5215   0.015194859206082
 s    8 1.00
                  6665  -0.00029326965268655
                  1000  -0.0023180354739745
                   228  -0.011499786038565
                 64.71  -0.046826727009787
                 21.06   -0.12846616875047
                 7.495   -0.30126627246289
                 2.797   -0.25563070233011
                0.5215      1.093793361012
 s    1 1.00
                0.1596                   1
 p    3 1.00
                 9.439   0.056979251590039
                 2.002    0.31320721150073
                0.5456    0.76037674173753
 p    1 1.00
                0.1517                   1
 d    1 1.00
                  0.55                   1

32 0
 s    3 1.00
                 13.01   0.033498726389998
                 1.962    0.23480080117413
                0.4446     0.8136829578829
 s    1 1.00
                 0.122                   1
 p    1 1.00
                 0.727                   1

33 0
 s    3 1.00
                 13.01   0.033498726389998
                 1.962    0.23480080117413
                0.4446     0.8136829578829
 s    1 1.00
                 0.122                   1
 p    1 1.00
                 0.727                   1

34 0
 s    3 1.00
                 13.01   0.033498726389998
                 1.962    0.23480080117413
                0.4446     0.8136829578829
 s    1 1.00
                 0.122                   1
 p    1 1.00
                 0.727                   1

35 0
 s    3 1.00
                 13.01   0.033498726389998
                 1.962    0.23480080117413
                0.4446     0.8136829578829
 s    1 1.00
                 0.122                   1
 p    1 1.00
                 0.727                   1

36 0
 s    3 1.00
                 13.01   0.033498726389998
                 1.962    0.23480080117413
                0.4446     0.8136829578829
 s    1 1.00
                 0.122                   1
 p    1 1.00
                 0.727                   1

37 0
 s    3 1.00
                 13.01   0.033498726389998
                 1.962    0.23480080117413
                0.4446     0.8136829578829
 s    1 1.00
                 0.122                   1
 p    1 1.00
                 0.727                   1

[5d]
[7f]
[9g]

[MO]
 Sym= A
 Ene=               0
 Spin= Alpha
 Occup=    1.00000
   1    -7.2662279503987e-07
   2    -1.4028227219382e-06
   3    9.3966581359266e-06
   4    1.2833484033929e-05
   5    -1.0706267271627e-06
   6    -6.4213987483351e-06
   7    1.0332113011299e-05
   8    -2.2094227319069e-06
   9    -1.0783208633771e-05
  10    1.7076840521433e-06
  11    -1.6375174205138e-07
  12    -2.7601632595689e-07
  13    1.4782092397664e-07
  14    2.9537451604768e-07
  15    3.1897021900817e-07
  16    -1.5089846754662e-05
  17    7.9051927776207e-07
  18    -7.834587990632e-08
  19    -6.4350957018272e-06
  20    -2.915921199695e-06
  21    5.8299332415029e-06
  22    5.3073615693274e-07
  23    -1.421682435383e-07
  24    -1.1388012862752e-07
  25    -1.3073168830299e-07
  26    -3.8430023894993e-05
  27    7.8726509769651e-06
  28    0.00012150669754017
  29    -4.0857661769594e-05
  30    -6.038335277072e-05
  31    6.4279681920143e-05
  32    -1.3998019727909e-06
  33    -7.1626878180447e-05
  34    2.9021082420023e-06
  35    -7.8428258667983e-06
  36     3.15144028205e-06
  37    -2.5325940368966e-06
  38    3.6147562140963e-06
  39    2.2291792361164e-05
  40    -3.904185324622e-05
  41    -0.00042639478866009
  42    0.00016622842324841
  43    -0.00010199093604769
  44    0.00011569937424671
  45    0.00059019269282929
  46    -0.00036763836183922
  47    -3.1069966342386e-05
  48    -1.283195945606e-05
  49    -2.3691624857433e-05
  50    2.1769438037472e-05
  51    -5.5238746363853e-06
  52    1.4805133149762e-05
  53    2.7514684817115e-05
  54    7.550006439869e-05
  55    -0.00037843684642966
  56    -6.1348975655177e-05
  57    4.8168301762785e-05
  58    1.5577080358534e-06
  59    7.0063261068543e-05
  60    -0.00011091561193205
  61    -0.00013690957778264
  62    4.2723109304814e-06
  63    3.7437766263394e-06
  64    1.4945870292055e-07
  65    -6.8705071001292e-06
  66    1.118785496319e-05
  67    -1.1636567442697e-05
  68    9.4500822603737e-05
  69    0.00045087578280661
  70    -0.00025635504214394
  71    0.00013515790343621
  72    8.6569367019284e-05
  73    0.00016642446055171
  74    -9.0397143896242e-05
  75    0.00024493657371136
  76    3.7015269204596e-05
  77    -7.705659260231e-06
  78    1.6650623335252e-06
  79    -1.4398537429411e-05
  80    2.8808939248545e-05
  81    -4.3309980730665e-05
  82    -7.5396215932986e-05
  83    5.1363891466168e-06
  84    -2.2289203276406e-07
  85    5.4414710458978e-06
  86    -3.5313306177164e-06
  87    8.7839063843744e-06
  88    9.7453920952714e-05
  89    -1.1342580472369e-05
  90    -7.1183959909733e-06
  91    5.8105827751018e-06
  92    5.209574935597e-05
  93    -4.6052403832093e-05
  94    5.5270504476465e-05
  95    3.6976161053125e-07
  96    -9.6307759093811e-06
  97    3.7483050040455e-06
  98    3.8245576314302e-06
  99    2.2288084685608e-06
 100    1.7084079140114e-05
 101    -1.4812385283826e-05
 102    -9.1302420774177e-06
 103    4.9454039212303e-06
 104    3.5621402681457e-06
 105    5.732024652612e-05
 106    3.707422464301e-05
 107    -2.5690109385619e-05
 108    1.7686961890462e-05
 109    -8.7730776448756e-06
 110    5.6750261293258e-05
 111    -1.0492174145777e-05
 112    -2.5334067916022e-05
 113    1.2999804589044e-05
 114    -9.7391851441025e-06
 115    9.0760566536034e-05
 116    -0.00023365645825388
 117    -0.0016374652233402
 118    0.00091248801848367
 119    -0.00063607865676261
 120    0.00060758626756133
 121    0.0011008153488643
 122    -0.0007832913672665
 123    0.00064849606853349
 124    3.5614569031797e-05
 125    -9.8009425313911e-05
 126    7.7420736806876e-05
 127    -1.063322591347e-05
 128    8.4582046925091e-05
 129    -6.7283056300299e-06
 130    -8.1431998332336e-06
 131    -4.8123598858455e-06
 132    1.6257309116726e-06
 133    -1.8705041284472e-06
 134    5.8579962670753e-06
 135    4.7542818388661e-05
 136    4.8350581433787e-06
 137    -2.1496004002236e-06
 138    3.8828920322405e-06
 139    6.3801304313423e-06
 140    1.2349882610831e-05
 141    -5.7662151459186e-05
 142    -1.7665494743437e-06
 143    4.1906343659067e-06
 144    5.4562452822787e-06
 145    4.9305837741379e-05
 146    1.8442703515648e-06
 147    -7.79842733288e-05
 148    -1.5514711801157e-06
 149    3.6261890076399e-06
 150    -2.6300796037116e-06
 151    -5.5888010484083e-07
 152    2.8075480853751e-06
 153    0.00027429639528529
 154    0.00016111544537203
 155    -5.35149932701e-06
 156    -2.1228555806809e-06
 157    -1.897016164946e-06
 158    0.00020099435301294
 159    7.3793086211051e-05
 160    1.5300744474605e-06
 161    5.2593703408932e-06
 162    4.0908499293005e-06
 163    8.9734752157977e-05
 164    -0.00011560984055422
 165    5.0103175777614e-05
 166    -0.00090000680355779
 167    0.00043754819490508
 168    -0.001106913097574
 169    0.00072637786728155
 170    -0.00057925103164648
 171    1.946044663405e-05
 172    6.4549859878377e-06
 173    7.4344296155114e-06
 174    5.3793956546847e-05
 175    -6.5173178814767e-05
 176    0.0001262358744936
 177    5.6553353670778e-06
 178    1.0659508241013e-05
 179    -2.2951261819801e-06
 180    -5.2757159400187e-07
 181    2.043481370541e-06
 182    5.9769100568662e-07
 183    -2.9352288997183e-06
 184    -2.6578522171534e-05
 185    7.4434086985823e-06
 186    1.5185518878656e-06
 187    8.5054906909165e-06
 188    1.095006733869e-05
 189    2.0082957800935e-05
 190    -1.1240753123048e-06
 191    8.1727744909121e-07
 192    2.5127722634196e-07
 193    1.1484134427844e-06
 194    7.4764110175488e-07
 195    -1.5097888625416e-06
 196    -1.1382656906524e-06
 197    -1.5758548203156e-05
 198    -2.0897316555143e-06
 199    -2.2399760485732e-06
 200    2.3482536935122e-06
 201    0.00074026749740402
 202    0.00056078922470293
 203    -7.7704620409569e-05
 204    0.00011781658981777
 205    -1.0450757288474e-05
 206    0.00030612813567656
 207    0.00035569194686685
 208    -0.00012853641529414
 209    3.1786361672156e-05
 210    -5.376493362523e-05
 211      0.10178621464445
 212    0.00045330344526763
 213    -0.0028432859973268
 214    2.1504744997666e-05
 215    -1.5590183789883e-05
 216    -2.6920147821867e-05
 217    0.0011384620428134
 218    -0.00077908284252881
 219    0.00049828636358931
 220    6.177172058405e-05
 221    5.0224106599907e-05
 222    -6.0793521001649e-05
 223    2.0165812260898e-05
 224    -8.4715863095187e-05
 225    4.6761391441728e-06
 226    -2.8173964468944e-06
 227    3.0222065388725e-07
 228    -9.7167323018664e-07
 229    3.9220545682138e-07
 230    -1.1067366383252e-05
 231    -1.0915744669915e-05
 232    -6.4791027040995e-07
 233    -5.1795412099013e-08
 234    -1.727562787372e-06
 235    0.0012677863016702
 236    8.5942306882004e-06
 237    -1.6249039863533e-05
 238    1.6293000694791e-06
 239    -9.655557656504e-07
 240    1.8031362622283e-06
 241    7.7895687934753e-06
 242    7.2836342434919e-06
 243    -1.0593239864469e-05
 244    3.2740515087427e-07
 245    1.2301477163421e-06
 246    -2.3091903078566e-07
 247    -4.3909527203104e-07
 248    2.5568171402495e-07
 249    0.00011975366508173
 250    8.1725217582571e-05
 251    4.6636527431559e-05
 252    1.6611236776899e-05
 253    7.3475132156731e-05
 254    9.3697204636572e-05
 255    2.5431958734019e-05
 256    -4.3256134203972e-06
 257    -6.7432186757842e-05
 258    5.4228772258854e-05
 259     -0.99724331875584
 260    -0.0048566668540685
 261    0.0099225659788499
 262    0.00012390913604565
 263    -0.00010070121497882