[Molden Format]
made by pyscf v[2.0.1]
[Atoms] (AU)
O   1   8     0.00000000000000     0.00000000000000     7.16229833633744
H   2   1     0.00000000000000     0.00000000000000     5.33889651443647
H   3   1    -0.05031916615174     1.78353065140343     7.53817003280410
O   4   8     0.00000000000000     0.00000000000000     2.31533471513237
C   5   6     0.00000000000000     0.00000000000000     0.00000000000000
C   6   6     2.01118073026938    -1.40227222164369    -1.50774939176400
C   7   6    -2.01249334291722     1.41331050329955    -1.50315905028694
H   8   1     3.32037363730244    -2.26721897153159    -0.13599698591495
C   9   6     3.45899267434009     0.28739631745591    -3.37437943254505
H   10   1     1.07662969841332    -2.94725144642667    -2.56541439481080
H   11   1    -2.67503415753480     0.18421555839588    -3.06194479365997
H   12   1    -1.07974048864772     3.03851734677796    -2.43674295017013
C   13   6    -4.21607110578555     2.32938802552922     0.11994162256091
H   14   1     4.24440173074564     1.93368664142019    -2.34976285512790
H   15   1     2.15020713235517     1.04714335134846    -4.81494497423699
C   16   6     5.60746363007797    -1.12419643481196    -4.70268606082550
H   17   1    -3.46838323670267     3.50951302338067     1.66946842715333
H   18   1    -5.11873485366228     0.68575958301209     1.04047743976495
C   19   6    -6.18314754751344     3.80909592987882    -1.39656589068747
H   20   1     6.93011263717176    -1.87550812453645    -3.26656317360070
C   21   6     7.06356622236532     0.52877932406334    -6.57829775293605
H   22   1     4.82318879258361    -2.78573437948532    -5.70504560381835
H   23   1    -6.91582688743803     2.61304780074712    -2.95074552451969
H   24   1    -5.26532430573853     5.45420349051338    -2.31005832200284
C   25   6    -8.39941882261433     4.73263980500213     0.21800571437956
H   26   1     7.83338371486801     2.19084139882824    -5.57093109900697
H   27   1     5.73544244039420     1.27376866537418    -8.01071492370229
C   28   6     9.21124858443101    -0.89699110072176    -7.88926949186242
H   29   1    -7.66272760055236     5.92277078003992     1.77035591474408
H   30   1    -9.31497248082589     3.08753015622020     1.12614408368786
C   31   6   -10.35481709231879     6.21833079391143    -1.30905206253246
H   32   1    10.58815905329501    -1.61074586756696    -6.49512691622620
H   33   1    10.23506248045667     0.32468009384095    -9.23072870921204
H   34   1     8.47665842847139    -2.53598436989925    -8.94921964622535
H   35   1    -9.48948872868064     7.90013588951020    -2.18823918416067
H   36   1   -11.93332513000955     6.86460487874102    -0.11255798845995
H   37   1   -11.15126291841033     5.04495968327630    -2.83849898862534
[GTO]
1 0
 s    8 1.00
                 11720  0.00070964594651845
                  1759  0.0054672722921914
                 400.8   0.027823118610189
                 113.7    0.10474773971146
                 37.03    0.28292084635691
                 13.27    0.44849523869833
                 5.025    0.27081688521277
                 1.013    0.01545029160744
 s    8 1.00
                 11720  -0.00031444341168873
                  1759  -0.0024821376810179
                 400.8  -0.012316355381583
                 113.7  -0.050538917343672
                 37.03   -0.13938490331632
                 13.27   -0.32507749481778
                 5.025   -0.22984830758785
                 1.013     1.0953793467883
 s    1 1.00
                0.3023                   1
 p    3 1.00
                  17.7   0.062679166281506
                 3.854    0.33353656587936
                 1.046    0.74123964163973
 p    1 1.00
                0.2753                   1
 d    1 1.00
                 1.185                   1

2 0
 s    3 1.00
                 13.01   0.033498726389998
                 1.962    0.23480080117413
                0.4446     0.8136829578829
 s    1 1.00
                 0.122                   1
 p    1 1.00
                 0.727                   1

3 0
 s    3 1.00
                 13.01   0.033498726389998
                 1.962    0.23480080117413
                0.4446     0.8136829578829
 s    1 1.00
                 0.122                   1
 p    1 1.00
                 0.727                   1

4 0
 s    8 1.00
                 11720  0.00070964594651845
                  1759  0.0054672722921914
                 400.8   0.027823118610189
                 113.7    0.10474773971146
                 37.03    0.28292084635691
                 13.27    0.44849523869833
                 5.025    0.27081688521277
                 1.013    0.01545029160744
 s    8 1.00
                 11720  -0.00031444341168873
                  1759  -0.0024821376810179
                 400.8  -0.012316355381583
                 113.7  -0.050538917343672
                 37.03   -0.13938490331632
                 13.27   -0.32507749481778
                 5.025   -0.22984830758785
                 1.013     1.0953793467883
 s    1 1.00
                0.3023                   1
 p    3 1.00
                  17.7   0.062679166281506
                 3.854    0.33353656587936
                 1.046    0.74123964163973
 p    1 1.00
                0.2753                   1
 d    1 1.00
                 1.185                   1

5 0
 s    8 1.00
                  6665  0.00069158396281299
                  1000  0.0053257961529341
                   228   0.027060721042034
                 64.71    0.10165684614077
                 21.06     0.2745748236174
                 7.495    0.44829431892377
                 2.797    0.28490261071525
                0.5215   0.015194859206082
 s    8 1.00
                  6665  -0.00029326965268655
                  1000  -0.0023180354739745
                   228  -0.011499786038565
                 64.71  -0.046826727009787
                 21.06   -0.12846616875047
                 7.495   -0.30126627246289
                 2.797   -0.25563070233011
                0.5215      1.093793361012
 s    1 1.00
                0.1596                   1
 p    3 1.00
                 9.439   0.056979251590039
                 2.002    0.31320721150073
                0.5456    0.76037674173753
 p    1 1.00
                0.1517                   1
 d    1 1.00
                  0.55                   1

6 0
 s    8 1.00
                  6665  0.00069158396281299
                  1000  0.0053257961529341
                   228   0.027060721042034
                 64.71    0.10165684614077
                 21.06     0.2745748236174
                 7.495    0.44829431892377
                 2.797    0.28490261071525
                0.5215   0.015194859206082
 s    8 1.00
                  6665  -0.00029326965268655
                  1000  -0.0023180354739745
                   228  -0.011499786038565
                 64.71  -0.046826727009787
                 21.06   -0.12846616875047
                 7.495   -0.30126627246289
                 2.797   -0.25563070233011
                0.5215      1.093793361012
 s    1 1.00
                0.1596                   1
 p    3 1.00
                 9.439   0.056979251590039
                 2.002    0.31320721150073
                0.5456    0.76037674173753
 p    1 1.00
                0.1517                   1
 d    1 1.00
                  0.55                   1

7 0
 s    8 1.00
                  6665  0.00069158396281299
                  1000  0.0053257961529341
                   228   0.027060721042034
                 64.71    0.10165684614077
                 21.06     0.2745748236174
                 7.495    0.44829431892377
                 2.797    0.28490261071525
                0.5215   0.015194859206082
 s    8 1.00
                  6665  -0.00029326965268655
                  1000  -0.0023180354739745
                   228  -0.011499786038565
                 64.71  -0.046826727009787
                 21.06   -0.12846616875047
                 7.495   -0.30126627246289
                 2.797   -0.25563070233011
                0.5215      1.093793361012
 s    1 1.00
                0.1596                   1
 p    3 1.00
                 9.439   0.056979251590039
                 2.002    0.31320721150073
                0.5456    0.76037674173753
 p    1 1.00
                0.1517                   1
 d    1 1.00
                  0.55                   1

8 0
 s    3 1.00
                 13.01   0.033498726389998
                 1.962    0.23480080117413
                0.4446     0.8136829578829
 s    1 1.00
                 0.122                   1
 p    1 1.00
                 0.727                   1

9 0
 s    8 1.00
                  6665  0.00069158396281299
                  1000  0.0053257961529341
                   228   0.027060721042034
                 64.71    0.10165684614077
                 21.06     0.2745748236174
                 7.495    0.44829431892377
                 2.797    0.28490261071525
                0.5215   0.015194859206082
 s    8 1.00
                  6665  -0.00029326965268655
                  1000  -0.0023180354739745
                   228  -0.011499786038565
                 64.71  -0.046826727009787
                 21.06   -0.12846616875047
                 7.495   -0.30126627246289
                 2.797   -0.25563070233011
                0.5215      1.093793361012
 s    1 1.00
                0.1596                   1
 p    3 1.00
                 9.439   0.056979251590039
                 2.002    0.31320721150073
                0.5456    0.76037674173753
 p    1 1.00
                0.1517                   1
 d    1 1.00
                  0.55                   1

10 0
 s    3 1.00
                 13.01   0.033498726389998
                 1.962    0.23480080117413
                0.4446     0.8136829578829
 s    1 1.00
                 0.122                   1
 p    1 1.00
                 0.727                   1

11 0
 s    3 1.00
                 13.01   0.033498726389998
                 1.962    0.23480080117413
                0.4446     0.8136829578829
 s    1 1.00
                 0.122                   1
 p    1 1.00
                 0.727                   1

12 0
 s    3 1.00
                 13.01   0.033498726389998
                 1.962    0.23480080117413
                0.4446     0.8136829578829
 s    1 1.00
                 0.122                   1
 p    1 1.00
                 0.727                   1

13 0
 s    8 1.00
                  6665  0.00069158396281299
                  1000  0.0053257961529341
                   228   0.027060721042034
                 64.71    0.10165684614077
                 21.06     0.2745748236174
                 7.495    0.44829431892377
                 2.797    0.28490261071525
                0.5215   0.015194859206082
 s    8 1.00
                  6665  -0.00029326965268655
                  1000  -0.0023180354739745
                   228  -0.011499786038565
                 64.71  -0.046826727009787
                 21.06   -0.12846616875047
                 7.495   -0.30126627246289
                 2.797   -0.25563070233011
                0.5215      1.093793361012
 s    1 1.00
                0.1596                   1
 p    3 1.00
                 9.439   0.056979251590039
                 2.002    0.31320721150073
                0.5456    0.76037674173753
 p    1 1.00
                0.1517                   1
 d    1 1.00
                  0.55                   1

14 0
 s    3 1.00
                 13.01   0.033498726389998
                 1.962    0.23480080117413
                0.4446     0.8136829578829
 s    1 1.00
                 0.122                   1
 p    1 1.00
                 0.727                   1

15 0
 s    3 1.00
                 13.01   0.033498726389998
                 1.962    0.23480080117413
                0.4446     0.8136829578829
 s    1 1.00
                 0.122                   1
 p    1 1.00
                 0.727                   1

16 0
 s    8 1.00
                  6665  0.00069158396281299
                  1000  0.0053257961529341
                   228   0.027060721042034
                 64.71    0.10165684614077
                 21.06     0.2745748236174
                 7.495    0.44829431892377
                 2.797    0.28490261071525
                0.5215   0.015194859206082
 s    8 1.00
                  6665  -0.00029326965268655
                  1000  -0.0023180354739745
                   228  -0.011499786038565
                 64.71  -0.046826727009787
                 21.06   -0.12846616875047
                 7.495   -0.30126627246289
                 2.797   -0.25563070233011
                0.5215      1.093793361012
 s    1 1.00
                0.1596                   1
 p    3 1.00
                 9.439   0.056979251590039
                 2.002    0.31320721150073
                0.5456    0.76037674173753
 p    1 1.00
                0.1517                   1
 d    1 1.00
                  0.55                   1

17 0
 s    3 1.00
                 13.01   0.033498726389998
                 1.962    0.23480080117413
                0.4446     0.8136829578829
 s    1 1.00
                 0.122                   1
 p    1 1.00
                 0.727                   1

18 0
 s    3 1.00
                 13.01   0.033498726389998
                 1.962    0.23480080117413
                0.4446     0.8136829578829
 s    1 1.00
                 0.122                   1
 p    1 1.00
                 0.727                   1

19 0
 s    8 1.00
                  6665  0.00069158396281299
                  1000  0.0053257961529341
                   228   0.027060721042034
                 64.71    0.10165684614077
                 21.06     0.2745748236174
                 7.495    0.44829431892377
                 2.797    0.28490261071525
                0.5215   0.015194859206082
 s    8 1.00
                  6665  -0.00029326965268655
                  1000  -0.0023180354739745
                   228  -0.011499786038565
                 64.71  -0.046826727009787
                 21.06   -0.12846616875047
                 7.495   -0.30126627246289
                 2.797   -0.25563070233011
                0.5215      1.093793361012
 s    1 1.00
                0.1596                   1
 p    3 1.00
                 9.439   0.056979251590039
                 2.002    0.31320721150073
                0.5456    0.76037674173753
 p    1 1.00
                0.1517                   1
 d    1 1.00
                  0.55                   1

20 0
 s    3 1.00
                 13.01   0.033498726389998
                 1.962    0.23480080117413
                0.4446     0.8136829578829
 s    1 1.00
                 0.122                   1
 p    1 1.00
                 0.727                   1

21 0
 s    8 1.00
                  6665  0.00069158396281299
                  1000  0.0053257961529341
                   228   0.027060721042034
                 64.71    0.10165684614077
                 21.06     0.2745748236174
                 7.495    0.44829431892377
                 2.797    0.28490261071525
                0.5215   0.015194859206082
 s    8 1.00
                  6665  -0.00029326965268655
                  1000  -0.0023180354739745
                   228  -0.011499786038565
                 64.71  -0.046826727009787
                 21.06   -0.12846616875047
                 7.495   -0.30126627246289
                 2.797   -0.25563070233011
                0.5215      1.093793361012
 s    1 1.00
                0.1596                   1
 p    3 1.00
                 9.439   0.056979251590039
                 2.002    0.31320721150073
                0.5456    0.76037674173753
 p    1 1.00
                0.1517                   1
 d    1 1.00
                  0.55                   1

22 0
 s    3 1.00
                 13.01   0.033498726389998
                 1.962    0.23480080117413
                0.4446     0.8136829578829
 s    1 1.00
                 0.122                   1
 p    1 1.00
                 0.727                   1

23 0
 s    3 1.00
                 13.01   0.033498726389998
                 1.962    0.23480080117413
                0.4446     0.8136829578829
 s    1 1.00
                 0.122                   1
 p    1 1.00
                 0.727                   1

24 0
 s    3 1.00
                 13.01   0.033498726389998
                 1.962    0.23480080117413
                0.4446     0.8136829578829
 s    1 1.00
                 0.122                   1
 p    1 1.00
                 0.727                   1

25 0
 s    8 1.00
                  6665  0.00069158396281299
                  1000  0.0053257961529341
                   228   0.027060721042034
                 64.71    0.10165684614077
                 21.06     0.2745748236174
                 7.495    0.44829431892377
                 2.797    0.28490261071525
                0.5215   0.015194859206082
 s    8 1.00
                  6665  -0.00029326965268655
                  1000  -0.0023180354739745
                   228  -0.011499786038565
                 64.71  -0.046826727009787
                 21.06   -0.12846616875047
                 7.495   -0.30126627246289
                 2.797   -0.25563070233011
                0.5215      1.093793361012
 s    1 1.00
                0.1596                   1
 p    3 1.00
                 9.439   0.056979251590039
                 2.002    0.31320721150073
                0.5456    0.76037674173753
 p    1 1.00
                0.1517                   1
 d    1 1.00
                  0.55                   1

26 0
 s    3 1.00
                 13.01   0.033498726389998
                 1.962    0.23480080117413
                0.4446     0.8136829578829
 s    1 1.00
                 0.122                   1
 p    1 1.00
                 0.727                   1

27 0
 s    3 1.00
                 13.01   0.033498726389998
                 1.962    0.23480080117413
                0.4446     0.8136829578829
 s    1 1.00
                 0.122                   1
 p    1 1.00
                 0.727                   1

28 0
 s    8 1.00
                  6665  0.00069158396281299
                  1000  0.0053257961529341
                   228   0.027060721042034
                 64.71    0.10165684614077
                 21.06     0.2745748236174
                 7.495    0.44829431892377
                 2.797    0.28490261071525
                0.5215   0.015194859206082
 s    8 1.00
                  6665  -0.00029326965268655
                  1000  -0.0023180354739745
                   228  -0.011499786038565
                 64.71  -0.046826727009787
                 21.06   -0.12846616875047
                 7.495   -0.30126627246289
                 2.797   -0.25563070233011
                0.5215      1.093793361012
 s    1 1.00
                0.1596                   1
 p    3 1.00
                 9.439   0.056979251590039
                 2.002    0.31320721150073
                0.5456    0.76037674173753
 p    1 1.00
                0.1517                   1
 d    1 1.00
                  0.55                   1

29 0
 s    3 1.00
                 13.01   0.033498726389998
                 1.962    0.23480080117413
                0.4446     0.8136829578829
 s    1 1.00
                 0.122                   1
 p    1 1.00
                 0.727                   1

30 0
 s    3 1.00
                 13.01   0.033498726389998
                 1.962    0.23480080117413
                0.4446     0.8136829578829
 s    1 1.00
                 0.122                   1
 p    1 1.00
                 0.727                   1

31 0
 s    8 1.00
                  6665  0.00069158396281299
                  1000  0.0053257961529341
                   228   0.027060721042034
                 64.71    0.10165684614077
                 21.06     0.2745748236174
                 7.495    0.44829431892377
                 2.797    0.28490261071525
                0.5215   0.015194859206082
 s    8 1.00
                  6665  -0.00029326965268655
                  1000  -0.0023180354739745
                   228  -0.011499786038565
                 64.71  -0.046826727009787
                 21.06   -0.12846616875047
                 7.495   -0.30126627246289
                 2.797   -0.25563070233011
                0.5215      1.093793361012
 s    1 1.00
                0.1596                   1
 p    3 1.00
                 9.439   0.056979251590039
                 2.002    0.31320721150073
                0.5456    0.76037674173753
 p    1 1.00
                0.1517                   1
 d    1 1.00
                  0.55                   1

32 0
 s    3 1.00
                 13.01   0.033498726389998
                 1.962    0.23480080117413
                0.4446     0.8136829578829
 s    1 1.00
                 0.122                   1
 p    1 1.00
                 0.727                   1

33 0
 s    3 1.00
                 13.01   0.033498726389998
                 1.962    0.23480080117413
                0.4446     0.8136829578829
 s    1 1.00
                 0.122                   1
 p    1 1.00
                 0.727                   1

34 0
 s    3 1.00
                 13.01   0.033498726389998
                 1.962    0.23480080117413
                0.4446     0.8136829578829
 s    1 1.00
                 0.122                   1
 p    1 1.00
                 0.727                   1

35 0
 s    3 1.00
                 13.01   0.033498726389998
                 1.962    0.23480080117413
                0.4446     0.8136829578829
 s    1 1.00
                 0.122                   1
 p    1 1.00
                 0.727                   1

36 0
 s    3 1.00
                 13.01   0.033498726389998
                 1.962    0.23480080117413
                0.4446     0.8136829578829
 s    1 1.00
                 0.122                   1
 p    1 1.00
                 0.727                   1

37 0
 s    3 1.00
                 13.01   0.033498726389998
                 1.962    0.23480080117413
                0.4446     0.8136829578829
 s    1 1.00
                 0.122                   1
 p    1 1.00
                 0.727                   1

[5d]
[7f]
[9g]

[MO]
 Sym= A
 Ene=               0
 Spin= Alpha
 Occup=    1.00000
   1    -1.8192639784842e-06
   2    -3.9199476866842e-06
   3    2.5491397317576e-05
   4    2.7857916819922e-05
   5    -7.0202018379468e-06
   6    -9.7145344269026e-07
   7    2.3088682596231e-05
   8    -7.8917689091963e-06
   9    -1.5253650769697e-05
  10    2.435343754928e-06
  11    -4.3768751932045e-07
  12    -2.7052420339633e-07
  13    3.4353324134489e-07
  14    6.5064107456534e-07
  15    -5.9170392046984e-06
  16    -3.0485840716339e-05
  17    1.5122688057972e-06
  18    -8.2817242950747e-07
  19    -9.9356991165277e-06
  20    -7.4556587082649e-06
  21    9.0798065595484e-06
  22    1.1097267112917e-06
  23    2.0246680333018e-07
  24    5.8217386481495e-07
  25    5.8119149665646e-07
  26    -3.3411481452076e-05
  27    7.1902884455279e-06
  28    0.00012124423131892
  29    -4.1401726479418e-05
  30    -5.5198026590455e-05
  31    6.4696906654673e-05
  32    -1.9362332629307e-06
  33    -6.6641180322277e-05
  34    1.453850028337e-06
  35    -7.5418862448302e-06
  36    3.1168235342518e-06
  37    -2.5041044707262e-06
  38    3.589605629101e-06
  39    2.2731116212478e-05
  40    -3.9659401119579e-05
  41    -0.00043493529076021
  42    0.00016566959155218
  43    -0.00010276070674976
  44    0.00011221433771585
  45    0.00058909684879435
  46    -0.00036842491708853
  47    -1.4261633523791e-05
  48    -1.1911759853029e-05
  49    -2.3817541361144e-05
  50    2.1691558287406e-05
  51    -5.6778823482648e-06
  52    1.5204952049005e-05
  53    2.735197614777e-05
  54    7.5365851947337e-05
  55    -0.00037113594831668
  56    -6.1875800919522e-05
  57    4.8575875773583e-05
  58    1.3268050584471e-06
  59    6.4162701942938e-05
  60    -0.00010696487841197
  61    -0.00014175725860396
  62    3.7908305560361e-06
  63    3.4030207100259e-06
  64    2.8048502699173e-07
  65    -6.7441465629067e-06
  66    1.1024780467201e-05
  67    -1.1738858585953e-05
  68    9.4638210074251e-05
  69    0.00045850640124323
  70    -0.00025403504630353
  71    0.00013441437315151
  72    8.6826431847201e-05
  73    0.00017460813776396
  74    -9.5731572780816e-05
  75    0.00024411592758678
  76    3.6520263050323e-05
  77    -7.3477832840794e-06
  78    1.4785657635215e-06
  79    -1.4398303819707e-05
  80    2.8486443239604e-05
  81    -4.3043729041816e-05
  82    -7.1132294673885e-05
  83    5.1517002047912e-06
  84    -2.3087089702147e-07
  85    5.1355766396641e-06
  86    -3.4606114585209e-06
  87    8.9576648821049e-06
  88    9.367113623214e-05
  89    -1.123357438415e-05
  90    -7.2621921588298e-06
  91     5.96333679562e-06
  92    5.2797663594824e-05
  93    -4.2325144217333e-05
  94    5.7406038790615e-05
  95    4.3135942262288e-07
  96    -9.550344300213e-06
  97    3.7919318625433e-06
  98    3.8027153798102e-06
  99    2.1216996861354e-06
 100    1.6545386128157e-05
 101    -1.5884145032158e-05
 102    -9.1326644647749e-06
 103    4.8209841474398e-06
 104    3.8578231131714e-06
 105    5.6692870176045e-05
 106    3.5666734028696e-05
 107    -2.5842216807104e-05
 108    1.767151115226e-05
 109    -8.637615169216e-06
 110    5.7253437593201e-05
 111    -1.0551693067867e-05
 112    -2.5397381752805e-05
 113    1.3048245577634e-05
 114    -9.503787134605e-06
 115    9.0864508625298e-05
 116    -0.00023290738177999
 117    -0.0016409799738788
 118    0.00090869136903784
 119    -0.00063366228232028
 120    0.00060543144926239
 121    0.0011018490126063
 122    -0.00078413100230802
 123    0.00064886382833245
 124    3.5349096652471e-05
 125    -9.7922421928954e-05
 126    7.7428051347986e-05
 127    -1.0312174509702e-05
 128    8.4349673762237e-05
 129    -7.0155969334516e-06
 130    -9.7162961817424e-06
 131    -4.7618293026985e-06
 132    1.6412867603779e-06
 133    -1.8522478815673e-06
 134    5.8917470726844e-06
 135    4.6819511524636e-05
 136    4.9032395350196e-06
 137    -2.25442842817e-06
 138    3.568154584531e-06
 139    6.1335140121628e-06
 140    1.1779683502406e-05
 141    -5.4419295452617e-05
 142    -1.779036734269e-06
 143    3.983562808923e-06
 144    5.9207490449804e-06
 145    4.6515595060174e-05
 146    1.7615504733369e-06
 147    -7.7168352227148e-05
 148    -1.546649120114e-06
 149    3.5958354115445e-06
 150    -2.66740111946e-06
 151    -4.4057039817592e-07
 152    2.702230392919e-06
 153    0.00027278664014857
 154    0.00016180913968609
 155    -5.42788647149e-06
 156    -2.1514832594778e-06
 157    -2.0835228076901e-06
 158    0.00019926178721395
 159    7.2730866318518e-05
 160    1.3485490121326e-06
 161    5.3925791290396e-06
 162    3.912236493619e-06
 163    8.9844249328838e-05
 164    -0.00011837924673918
 165    5.4104280379764e-05
 166    -0.0008942849435528
 167    0.00043060151922585
 168    -0.0011039144983765
 169    0.00073405676511717
 170    -0.0005861983630388
 171    2.1882672109742e-05
 172    6.5106731968526e-06
 173    8.2589780026144e-06
 174    5.3477768471381e-05
 175    -6.5373447889963e-05
 176    0.00012615439312579
 177    5.9745876936415e-06
 178    1.1127999371532e-05
 179    -2.2175637837084e-06
 180    -4.923449646649e-07
 181    2.0087998955676e-06
 182    6.3531630120535e-07
 183    -2.5695262323398e-06
 184    -2.6675829618546e-05
 185    6.8584764450699e-06
 186    2.0358403290634e-06
 187    7.519922801759e-06
 188    1.1037119774993e-05
 189    2.0134227967145e-05
 190    -1.0955707447691e-06
 191    8.8368859908561e-07
 192    3.2818607624325e-07
 193    1.0871855550734e-06
 194    7.3716848921056e-07
 195    -1.5648155390798e-06
 196    -1.510043635146e-06
 197    -1.6145594546662e-05
 198    -2.0268414696852e-06
 199    -2.2500865443087e-06
 200    2.3414356900325e-06
 201    0.00073862537374747
 202     0.000560272788081
 203    -7.7780140088508e-05
 204    0.00011759576830176
 205    -1.0526643199147e-05
 206    0.00030096454111755
 207    0.0003540693399879
 208    -0.00012834658692305
 209    3.2159126734097e-05
 210    -5.3896529614151e-05
 211      0.10193688794081
 212    0.00044916356016861
 213    -0.0028444041796504
 214    1.886574203208e-05
 215    -1.5138052201431e-05
 216    -2.4518137697908e-05
 217    0.0011370642982005
 218    -0.00077807578152099
 219    0.00049920274935348
 220    6.1449754157065e-05
 221    5.0925267475141e-05
 222    -6.1075600248706e-05
 223    2.0171087732148e-05
 224    -8.5139573553746e-05
 225    4.5592279341249e-06
 226    -2.9528582735843e-06
 227    2.6533074146032e-07
 228    -9.5134569579594e-07
 229    3.4429248070225e-07
 230    -9.7235971860238e-06
 231    -9.8337159037691e-06
 232    -5.7754464135218e-07
 233    -8.903495845004e-08
 234    -1.6414351345785e-06
 235    0.0012642693134551
 236    8.3702995817091e-06
 237    -1.6054518728801e-05
 238    1.6029004498947e-06
 239    -9.276228625533e-07
 240    1.5861487810979e-06
 241    7.4272636395246e-06
 242    7.0351859391112e-06
 243    -1.039977462176e-05
 244    2.8582677427643e-07
 245    1.2400934000139e-06
 246    -2.5449595367756e-07
 247    -4.0294571737161e-07
 248    2.0707210928302e-07
 249    0.00011873268448825
 250    8.0939141160998e-05
 251    4.6635409172397e-05
 252    1.6699923162894e-05
 253    7.3674557926993e-05
 254    9.3123736124034e-05
 255    2.5347592564395e-05
 256    -4.4038266875506e-06
 257    -6.7470845868125e-05
 258    5.4331871469326e-05
 259     -0.99722797637099
 260    -0.0048573249684171
 261    0.0099231903152338
 262    0.00012133095205972
 263    -9.9256359709392e-05