[Molden Format]
made by pyscf v[2.0.1]
[Atoms] (AU)
O   1   8     0.00000000000000     0.00000000000000    11.69764103529358
H   2   1     0.00000000000000     0.00000000000000     9.87423921339262
H   3   1    -0.05031916615174     1.78353065140343    12.07351273176025
O   4   8     0.00000000000000     0.00000000000000     2.31533471513237
C   5   6     0.00000000000000     0.00000000000000     0.00000000000000
C   6   6     2.01118073026938    -1.40227222164369    -1.50774939176400
C   7   6    -2.01249334291722     1.41331050329955    -1.50315905028694
H   8   1     3.32037363730244    -2.26721897153159    -0.13599698591495
C   9   6     3.45899267434009     0.28739631745591    -3.37437943254505
H   10   1     1.07662969841332    -2.94725144642667    -2.56541439481080
H   11   1    -2.67503415753480     0.18421555839588    -3.06194479365997
H   12   1    -1.07974048864772     3.03851734677796    -2.43674295017013
C   13   6    -4.21607110578555     2.32938802552922     0.11994162256091
H   14   1     4.24440173074564     1.93368664142019    -2.34976285512790
H   15   1     2.15020713235517     1.04714335134846    -4.81494497423699
C   16   6     5.60746363007797    -1.12419643481196    -4.70268606082550
H   17   1    -3.46838323670267     3.50951302338067     1.66946842715333
H   18   1    -5.11873485366228     0.68575958301209     1.04047743976495
C   19   6    -6.18314754751344     3.80909592987882    -1.39656589068747
H   20   1     6.93011263717176    -1.87550812453645    -3.26656317360070
C   21   6     7.06356622236532     0.52877932406334    -6.57829775293605
H   22   1     4.82318879258361    -2.78573437948532    -5.70504560381835
H   23   1    -6.91582688743803     2.61304780074712    -2.95074552451969
H   24   1    -5.26532430573853     5.45420349051338    -2.31005832200284
C   25   6    -8.39941882261433     4.73263980500213     0.21800571437956
H   26   1     7.83338371486801     2.19084139882824    -5.57093109900697
H   27   1     5.73544244039420     1.27376866537418    -8.01071492370229
C   28   6     9.21124858443101    -0.89699110072176    -7.88926949186242
H   29   1    -7.66272760055236     5.92277078003992     1.77035591474408
H   30   1    -9.31497248082589     3.08753015622020     1.12614408368786
C   31   6   -10.35481709231879     6.21833079391143    -1.30905206253246
H   32   1    10.58815905329501    -1.61074586756696    -6.49512691622620
H   33   1    10.23506248045667     0.32468009384095    -9.23072870921204
H   34   1     8.47665842847139    -2.53598436989925    -8.94921964622535
H   35   1    -9.48948872868064     7.90013588951020    -2.18823918416067
H   36   1   -11.93332513000955     6.86460487874102    -0.11255798845995
H   37   1   -11.15126291841033     5.04495968327630    -2.83849898862534
[GTO]
1 0
 s    8 1.00
                 11720  0.00070964594651845
                  1759  0.0054672722921914
                 400.8   0.027823118610189
                 113.7    0.10474773971146
                 37.03    0.28292084635691
                 13.27    0.44849523869833
                 5.025    0.27081688521277
                 1.013    0.01545029160744
 s    8 1.00
                 11720  -0.00031444341168873
                  1759  -0.0024821376810179
                 400.8  -0.012316355381583
                 113.7  -0.050538917343672
                 37.03   -0.13938490331632
                 13.27   -0.32507749481778
                 5.025   -0.22984830758785
                 1.013     1.0953793467883
 s    1 1.00
                0.3023                   1
 p    3 1.00
                  17.7   0.062679166281506
                 3.854    0.33353656587936
                 1.046    0.74123964163973
 p    1 1.00
                0.2753                   1
 d    1 1.00
                 1.185                   1

2 0
 s    3 1.00
                 13.01   0.033498726389998
                 1.962    0.23480080117413
                0.4446     0.8136829578829
 s    1 1.00
                 0.122                   1
 p    1 1.00
                 0.727                   1

3 0
 s    3 1.00
                 13.01   0.033498726389998
                 1.962    0.23480080117413
                0.4446     0.8136829578829
 s    1 1.00
                 0.122                   1
 p    1 1.00
                 0.727                   1

4 0
 s    8 1.00
                 11720  0.00070964594651845
                  1759  0.0054672722921914
                 400.8   0.027823118610189
                 113.7    0.10474773971146
                 37.03    0.28292084635691
                 13.27    0.44849523869833
                 5.025    0.27081688521277
                 1.013    0.01545029160744
 s    8 1.00
                 11720  -0.00031444341168873
                  1759  -0.0024821376810179
                 400.8  -0.012316355381583
                 113.7  -0.050538917343672
                 37.03   -0.13938490331632
                 13.27   -0.32507749481778
                 5.025   -0.22984830758785
                 1.013     1.0953793467883
 s    1 1.00
                0.3023                   1
 p    3 1.00
                  17.7   0.062679166281506
                 3.854    0.33353656587936
                 1.046    0.74123964163973
 p    1 1.00
                0.2753                   1
 d    1 1.00
                 1.185                   1

5 0
 s    8 1.00
                  6665  0.00069158396281299
                  1000  0.0053257961529341
                   228   0.027060721042034
                 64.71    0.10165684614077
                 21.06     0.2745748236174
                 7.495    0.44829431892377
                 2.797    0.28490261071525
                0.5215   0.015194859206082
 s    8 1.00
                  6665  -0.00029326965268655
                  1000  -0.0023180354739745
                   228  -0.011499786038565
                 64.71  -0.046826727009787
                 21.06   -0.12846616875047
                 7.495   -0.30126627246289
                 2.797   -0.25563070233011
                0.5215      1.093793361012
 s    1 1.00
                0.1596                   1
 p    3 1.00
                 9.439   0.056979251590039
                 2.002    0.31320721150073
                0.5456    0.76037674173753
 p    1 1.00
                0.1517                   1
 d    1 1.00
                  0.55                   1

6 0
 s    8 1.00
                  6665  0.00069158396281299
                  1000  0.0053257961529341
                   228   0.027060721042034
                 64.71    0.10165684614077
                 21.06     0.2745748236174
                 7.495    0.44829431892377
                 2.797    0.28490261071525
                0.5215   0.015194859206082
 s    8 1.00
                  6665  -0.00029326965268655
                  1000  -0.0023180354739745
                   228  -0.011499786038565
                 64.71  -0.046826727009787
                 21.06   -0.12846616875047
                 7.495   -0.30126627246289
                 2.797   -0.25563070233011
                0.5215      1.093793361012
 s    1 1.00
                0.1596                   1
 p    3 1.00
                 9.439   0.056979251590039
                 2.002    0.31320721150073
                0.5456    0.76037674173753
 p    1 1.00
                0.1517                   1
 d    1 1.00
                  0.55                   1

7 0
 s    8 1.00
                  6665  0.00069158396281299
                  1000  0.0053257961529341
                   228   0.027060721042034
                 64.71    0.10165684614077
                 21.06     0.2745748236174
                 7.495    0.44829431892377
                 2.797    0.28490261071525
                0.5215   0.015194859206082
 s    8 1.00
                  6665  -0.00029326965268655
                  1000  -0.0023180354739745
                   228  -0.011499786038565
                 64.71  -0.046826727009787
                 21.06   -0.12846616875047
                 7.495   -0.30126627246289
                 2.797   -0.25563070233011
                0.5215      1.093793361012
 s    1 1.00
                0.1596                   1
 p    3 1.00
                 9.439   0.056979251590039
                 2.002    0.31320721150073
                0.5456    0.76037674173753
 p    1 1.00
                0.1517                   1
 d    1 1.00
                  0.55                   1

8 0
 s    3 1.00
                 13.01   0.033498726389998
                 1.962    0.23480080117413
                0.4446     0.8136829578829
 s    1 1.00
                 0.122                   1
 p    1 1.00
                 0.727                   1

9 0
 s    8 1.00
                  6665  0.00069158396281299
                  1000  0.0053257961529341
                   228   0.027060721042034
                 64.71    0.10165684614077
                 21.06     0.2745748236174
                 7.495    0.44829431892377
                 2.797    0.28490261071525
                0.5215   0.015194859206082
 s    8 1.00
                  6665  -0.00029326965268655
                  1000  -0.0023180354739745
                   228  -0.011499786038565
                 64.71  -0.046826727009787
                 21.06   -0.12846616875047
                 7.495   -0.30126627246289
                 2.797   -0.25563070233011
                0.5215      1.093793361012
 s    1 1.00
                0.1596                   1
 p    3 1.00
                 9.439   0.056979251590039
                 2.002    0.31320721150073
                0.5456    0.76037674173753
 p    1 1.00
                0.1517                   1
 d    1 1.00
                  0.55                   1

10 0
 s    3 1.00
                 13.01   0.033498726389998
                 1.962    0.23480080117413
                0.4446     0.8136829578829
 s    1 1.00
                 0.122                   1
 p    1 1.00
                 0.727                   1

11 0
 s    3 1.00
                 13.01   0.033498726389998
                 1.962    0.23480080117413
                0.4446     0.8136829578829
 s    1 1.00
                 0.122                   1
 p    1 1.00
                 0.727                   1

12 0
 s    3 1.00
                 13.01   0.033498726389998
                 1.962    0.23480080117413
                0.4446     0.8136829578829
 s    1 1.00
                 0.122                   1
 p    1 1.00
                 0.727                   1

13 0
 s    8 1.00
                  6665  0.00069158396281299
                  1000  0.0053257961529341
                   228   0.027060721042034
                 64.71    0.10165684614077
                 21.06     0.2745748236174
                 7.495    0.44829431892377
                 2.797    0.28490261071525
                0.5215   0.015194859206082
 s    8 1.00
                  6665  -0.00029326965268655
                  1000  -0.0023180354739745
                   228  -0.011499786038565
                 64.71  -0.046826727009787
                 21.06   -0.12846616875047
                 7.495   -0.30126627246289
                 2.797   -0.25563070233011
                0.5215      1.093793361012
 s    1 1.00
                0.1596                   1
 p    3 1.00
                 9.439   0.056979251590039
                 2.002    0.31320721150073
                0.5456    0.76037674173753
 p    1 1.00
                0.1517                   1
 d    1 1.00
                  0.55                   1

14 0
 s    3 1.00
                 13.01   0.033498726389998
                 1.962    0.23480080117413
                0.4446     0.8136829578829
 s    1 1.00
                 0.122                   1
 p    1 1.00
                 0.727                   1

15 0
 s    3 1.00
                 13.01   0.033498726389998
                 1.962    0.23480080117413
                0.4446     0.8136829578829
 s    1 1.00
                 0.122                   1
 p    1 1.00
                 0.727                   1

16 0
 s    8 1.00
                  6665  0.00069158396281299
                  1000  0.0053257961529341
                   228   0.027060721042034
                 64.71    0.10165684614077
                 21.06     0.2745748236174
                 7.495    0.44829431892377
                 2.797    0.28490261071525
                0.5215   0.015194859206082
 s    8 1.00
                  6665  -0.00029326965268655
                  1000  -0.0023180354739745
                   228  -0.011499786038565
                 64.71  -0.046826727009787
                 21.06   -0.12846616875047
                 7.495   -0.30126627246289
                 2.797   -0.25563070233011
                0.5215      1.093793361012
 s    1 1.00
                0.1596                   1
 p    3 1.00
                 9.439   0.056979251590039
                 2.002    0.31320721150073
                0.5456    0.76037674173753
 p    1 1.00
                0.1517                   1
 d    1 1.00
                  0.55                   1

17 0
 s    3 1.00
                 13.01   0.033498726389998
                 1.962    0.23480080117413
                0.4446     0.8136829578829
 s    1 1.00
                 0.122                   1
 p    1 1.00
                 0.727                   1

18 0
 s    3 1.00
                 13.01   0.033498726389998
                 1.962    0.23480080117413
                0.4446     0.8136829578829
 s    1 1.00
                 0.122                   1
 p    1 1.00
                 0.727                   1

19 0
 s    8 1.00
                  6665  0.00069158396281299
                  1000  0.0053257961529341
                   228   0.027060721042034
                 64.71    0.10165684614077
                 21.06     0.2745748236174
                 7.495    0.44829431892377
                 2.797    0.28490261071525
                0.5215   0.015194859206082
 s    8 1.00
                  6665  -0.00029326965268655
                  1000  -0.0023180354739745
                   228  -0.011499786038565
                 64.71  -0.046826727009787
                 21.06   -0.12846616875047
                 7.495   -0.30126627246289
                 2.797   -0.25563070233011
                0.5215      1.093793361012
 s    1 1.00
                0.1596                   1
 p    3 1.00
                 9.439   0.056979251590039
                 2.002    0.31320721150073
                0.5456    0.76037674173753
 p    1 1.00
                0.1517                   1
 d    1 1.00
                  0.55                   1

20 0
 s    3 1.00
                 13.01   0.033498726389998
                 1.962    0.23480080117413
                0.4446     0.8136829578829
 s    1 1.00
                 0.122                   1
 p    1 1.00
                 0.727                   1

21 0
 s    8 1.00
                  6665  0.00069158396281299
                  1000  0.0053257961529341
                   228   0.027060721042034
                 64.71    0.10165684614077
                 21.06     0.2745748236174
                 7.495    0.44829431892377
                 2.797    0.28490261071525
                0.5215   0.015194859206082
 s    8 1.00
                  6665  -0.00029326965268655
                  1000  -0.0023180354739745
                   228  -0.011499786038565
                 64.71  -0.046826727009787
                 21.06   -0.12846616875047
                 7.495   -0.30126627246289
                 2.797   -0.25563070233011
                0.5215      1.093793361012
 s    1 1.00
                0.1596                   1
 p    3 1.00
                 9.439   0.056979251590039
                 2.002    0.31320721150073
                0.5456    0.76037674173753
 p    1 1.00
                0.1517                   1
 d    1 1.00
                  0.55                   1

22 0
 s    3 1.00
                 13.01   0.033498726389998
                 1.962    0.23480080117413
                0.4446     0.8136829578829
 s    1 1.00
                 0.122                   1
 p    1 1.00
                 0.727                   1

23 0
 s    3 1.00
                 13.01   0.033498726389998
                 1.962    0.23480080117413
                0.4446     0.8136829578829
 s    1 1.00
                 0.122                   1
 p    1 1.00
                 0.727                   1

24 0
 s    3 1.00
                 13.01   0.033498726389998
                 1.962    0.23480080117413
                0.4446     0.8136829578829
 s    1 1.00
                 0.122                   1
 p    1 1.00
                 0.727                   1

25 0
 s    8 1.00
                  6665  0.00069158396281299
                  1000  0.0053257961529341
                   228   0.027060721042034
                 64.71    0.10165684614077
                 21.06     0.2745748236174
                 7.495    0.44829431892377
                 2.797    0.28490261071525
                0.5215   0.015194859206082
 s    8 1.00
                  6665  -0.00029326965268655
                  1000  -0.0023180354739745
                   228  -0.011499786038565
                 64.71  -0.046826727009787
                 21.06   -0.12846616875047
                 7.495   -0.30126627246289
                 2.797   -0.25563070233011
                0.5215      1.093793361012
 s    1 1.00
                0.1596                   1
 p    3 1.00
                 9.439   0.056979251590039
                 2.002    0.31320721150073
                0.5456    0.76037674173753
 p    1 1.00
                0.1517                   1
 d    1 1.00
                  0.55                   1

26 0
 s    3 1.00
                 13.01   0.033498726389998
                 1.962    0.23480080117413
                0.4446     0.8136829578829
 s    1 1.00
                 0.122                   1
 p    1 1.00
                 0.727                   1

27 0
 s    3 1.00
                 13.01   0.033498726389998
                 1.962    0.23480080117413
                0.4446     0.8136829578829
 s    1 1.00
                 0.122                   1
 p    1 1.00
                 0.727                   1

28 0
 s    8 1.00
                  6665  0.00069158396281299
                  1000  0.0053257961529341
                   228   0.027060721042034
                 64.71    0.10165684614077
                 21.06     0.2745748236174
                 7.495    0.44829431892377
                 2.797    0.28490261071525
                0.5215   0.015194859206082
 s    8 1.00
                  6665  -0.00029326965268655
                  1000  -0.0023180354739745
                   228  -0.011499786038565
                 64.71  -0.046826727009787
                 21.06   -0.12846616875047
                 7.495   -0.30126627246289
                 2.797   -0.25563070233011
                0.5215      1.093793361012
 s    1 1.00
                0.1596                   1
 p    3 1.00
                 9.439   0.056979251590039
                 2.002    0.31320721150073
                0.5456    0.76037674173753
 p    1 1.00
                0.1517                   1
 d    1 1.00
                  0.55                   1

29 0
 s    3 1.00
                 13.01   0.033498726389998
                 1.962    0.23480080117413
                0.4446     0.8136829578829
 s    1 1.00
                 0.122                   1
 p    1 1.00
                 0.727                   1

30 0
 s    3 1.00
                 13.01   0.033498726389998
                 1.962    0.23480080117413
                0.4446     0.8136829578829
 s    1 1.00
                 0.122                   1
 p    1 1.00
                 0.727                   1

31 0
 s    8 1.00
                  6665  0.00069158396281299
                  1000  0.0053257961529341
                   228   0.027060721042034
                 64.71    0.10165684614077
                 21.06     0.2745748236174
                 7.495    0.44829431892377
                 2.797    0.28490261071525
                0.5215   0.015194859206082
 s    8 1.00
                  6665  -0.00029326965268655
                  1000  -0.0023180354739745
                   228  -0.011499786038565
                 64.71  -0.046826727009787
                 21.06   -0.12846616875047
                 7.495   -0.30126627246289
                 2.797   -0.25563070233011
                0.5215      1.093793361012
 s    1 1.00
                0.1596                   1
 p    3 1.00
                 9.439   0.056979251590039
                 2.002    0.31320721150073
                0.5456    0.76037674173753
 p    1 1.00
                0.1517                   1
 d    1 1.00
                  0.55                   1

32 0
 s    3 1.00
                 13.01   0.033498726389998
                 1.962    0.23480080117413
                0.4446     0.8136829578829
 s    1 1.00
                 0.122                   1
 p    1 1.00
                 0.727                   1

33 0
 s    3 1.00
                 13.01   0.033498726389998
                 1.962    0.23480080117413
                0.4446     0.8136829578829
 s    1 1.00
                 0.122                   1
 p    1 1.00
                 0.727                   1

34 0
 s    3 1.00
                 13.01   0.033498726389998
                 1.962    0.23480080117413
                0.4446     0.8136829578829
 s    1 1.00
                 0.122                   1
 p    1 1.00
                 0.727                   1

35 0
 s    3 1.00
                 13.01   0.033498726389998
                 1.962    0.23480080117413
                0.4446     0.8136829578829
 s    1 1.00
                 0.122                   1
 p    1 1.00
                 0.727                   1

36 0
 s    3 1.00
                 13.01   0.033498726389998
                 1.962    0.23480080117413
                0.4446     0.8136829578829
 s    1 1.00
                 0.122                   1
 p    1 1.00
                 0.727                   1

37 0
 s    3 1.00
                 13.01   0.033498726389998
                 1.962    0.23480080117413
                0.4446     0.8136829578829
 s    1 1.00
                 0.122                   1
 p    1 1.00
                 0.727                   1

[5d]
[7f]
[9g]

[MO]
 Sym= A
 Ene=               0
 Spin= Alpha
 Occup=    1.00000
   1    1.713440478713e-08
   2    7.6130477221247e-09
   3    -5.3537735067955e-07
   4    -1.1357928400358e-07
   5    4.4213974201169e-07
   6    9.6845718908375e-08
   7    -9.4395418197903e-08
   8    2.6104214998265e-07
   9    1.4815660128268e-07
  10    -6.4332091929813e-08
  11    1.2700528564477e-09
  12    -1.8581351137048e-10
  13    -1.6613981386253e-08
  14    -3.5108694016841e-09
  15    -8.9010732965477e-08
  16    6.7181299386749e-08
  17    -1.1103229229661e-08
  18    2.4718537692836e-08
  19    1.4129147304889e-07
  20    3.6514906144817e-07
  21    2.1143317037236e-07
  22    -2.9154972838974e-09
  23    -3.5506141826651e-08
  24    -2.1448831788517e-08
  25    -2.2610008782049e-07
  26    -4.119922599126e-05
  27    5.4120641342726e-06
  28    0.00011989327094337
  29    -4.0278859353791e-05
  30    -6.3854927246751e-05
  31    6.260498153696e-05
  32    -8.5632654983466e-07
  33    -7.4407345675886e-05
  34    3.1512179338238e-06
  35    -8.0199624284734e-06
  36    3.2080644212882e-06
  37    -2.5591216591566e-06
  38    3.6209642599665e-06
  39    2.2211749394506e-05
  40    -3.7273192966219e-05
  41    -0.00041936106658282
  42    0.00016685175034496
  43    -0.00010187953396565
  44    0.00011769354229135
  45    0.00059264542247587
  46    -0.00036799747551918
  47    -3.9145019362546e-05
  48    -1.3052948949333e-05
  49    -2.3923864212389e-05
  50    2.1934088401276e-05
  51    -5.4352138309311e-06
  52    1.4485833054228e-05
  53    2.7661283777265e-05
  54    7.6330538547331e-05
  55    -0.00038272474778047
  56    -6.1712087919897e-05
  57    4.855030688874e-05
  58    3.3121152434353e-06
  59    7.2891536641871e-05
  60    -0.00011297156458957
  61    -0.00013429126621866
  62    4.5270937103429e-06
  63    3.9066858785413e-06
  64    1.0353370249907e-07
  65    -6.9287061030678e-06
  66    1.1246119169431e-05
  67    -1.1713625988576e-05
  68    9.4657895628287e-05
  69    0.00044792215708905
  70    -0.00025921622580079
  71    0.00013631342305866
  72    8.6972324600406e-05
  73    0.00015968745913478
  74    -8.6986019339476e-05
  75    0.00024544281698838
  76    3.7311318847413e-05
  77    -8.0779866418795e-06
  78    1.8039715747577e-06
  79    -1.430887835382e-05
  80    2.8935528924759e-05
  81    -4.2901438080011e-05
  82    -7.7884028743133e-05
  83    5.0725142476237e-06
  84    -1.5865703803011e-07
  85    5.5720534444566e-06
  86    -3.6009325807095e-06
  87    8.5220009220243e-06
  88    9.9700003315162e-05
  89    -1.1143868569859e-05
  90    -6.7893459185074e-06
  91    5.3555110775666e-06
  92    5.196034470841e-05
  93    -4.7848082292478e-05
  94    5.4042588733043e-05
  95    3.9257265387901e-07
  96    -9.6935980978051e-06
  97    3.7520091653392e-06
  98    3.8834253487248e-06
  99    2.1904871610612e-06
 100    1.6825222947057e-05
 101    -1.4645473440099e-05
 102    -9.1981297303787e-06
 103    4.9826742248344e-06
 104    3.4772722831876e-06
 105    5.763151868031e-05
 106    3.7989554310641e-05
 107    -2.5630278179446e-05
 108    1.7701309257127e-05
 109    -8.798106154809e-06
 110    5.636346095372e-05
 111    -9.9472187875642e-06
 112    -2.5313561578342e-05
 113    1.2994737158542e-05
 114    -9.8150578825756e-06
 115    9.0861351007421e-05
 116    -0.00023350329122893
 117    -0.0016316230578918
 118    0.0009189654970033
 119    -0.00064014877806432
 120    0.00061282156473663
 121    0.0011009228773827
 122    -0.00078083414770156
 123    0.0006487836904593
 124    3.5837690171328e-05
 125    -9.8518623339682e-05
 126    7.7762181582577e-05
 127    -1.1137178322898e-05
 128    8.5235958856001e-05
 129    -6.6217688340089e-06
 130    -7.5838868561994e-06
 131    -4.8238680458148e-06
 132    1.624900138337e-06
 133    -1.8897263278881e-06
 134    5.9276955527426e-06
 135    4.8047797306563e-05
 136    4.8113746801771e-06
 137    -2.1010712559637e-06
 138    4.0147889922812e-06
 139    6.5063276581319e-06
 140    1.2706305136774e-05
 141    -5.9137340208902e-05
 142    -2.1136213504785e-06
 143    4.1185078289865e-06
 144    5.4397093945505e-06
 145    5.0783240257699e-05
 146    1.881473716021e-06
 147    -7.8449536339173e-05
 148    -1.5744454751196e-06
 149    3.6906165298381e-06
 150    -2.6094325271138e-06
 151    -6.2551341352155e-07
 152    2.8519145355991e-06
 153    0.00027753416533801
 154    0.00015897960852359
 155    -5.4124256225606e-06
 156    -2.1652297520573e-06
 157    -1.7656905669087e-06
 158    0.00020460227888325
 159    7.7052366184619e-05
 160    1.8366081648383e-06
 161    5.2242338336712e-06
 162    4.2789379443744e-06
 163    8.9338692370994e-05
 164    -0.00011238660080341
 165    4.4101226416518e-05
 166    -0.00091305139690317
 167    0.00044782749547341
 168    -0.0011101928146206
 169    0.00071400742328086
 170    -0.00056969511575886
 171    1.5942182720139e-05
 172    6.4223882588114e-06
 173    6.2135635631724e-06
 174    5.4366355313059e-05
 175    -6.464607360226e-05
 176    0.0001260368974981
 177    5.5390144890449e-06
 178    1.0364595106908e-05
 179    -2.3506791276366e-06
 180    -5.5739316491456e-07
 181    2.0758866381126e-06
 182    5.8881115098855e-07
 183    -3.027213526943e-06
 184    -2.687543671963e-05
 185    8.002219210917e-06
 186    1.7132278261939e-06
 187    8.8607277159623e-06
 188    1.105405496089e-05
 189    2.0352331121716e-05
 190    -1.3231781456563e-06
 191    7.749240532007e-07
 192    2.2693693334359e-07
 193    1.2077487705991e-06
 194    7.5919617679524e-07
 195    -1.4899992393448e-06
 196    -7.1731164580804e-07
 197    -1.5463659309618e-05
 198    -2.1281807495366e-06
 199    -2.2244332946459e-06
 200    2.3718818640528e-06
 201    0.00074331671067517
 202    0.00056277187787399
 203    -7.7783741055736e-05
 204    0.0001182155427684
 205    -1.0231199236156e-05
 206    0.00031109048899638
 207    0.00035723994197699
 208    -0.00012892626844654
 209    3.1441492152424e-05
 210    -5.3609479670162e-05
 211      0.10156580304235
 212    0.00046213779634707
 213    -0.0028394121331015
 214    2.6919900843674e-05
 215    -1.7403374139678e-05
 216    -3.1817241276425e-05
 217    0.0011419856635424
 218    -0.00078133502995581
 219    0.00049638060580743
 220    6.2326838804965e-05
 221    4.8852921294875e-05
 222    -6.0142059608978e-05
 223    2.0103729305986e-05
 224    -8.3978052351848e-05
 225    5.1399766455162e-06
 226    -2.5374805882561e-06
 227    3.1270941778402e-07
 228    -1.0063504754974e-06
 229    3.9301199174119e-07
 230    -1.1639820079034e-05
 231    -1.1447154151785e-05
 232    -6.6928249117533e-07
 233    -2.5113488676158e-08
 234    -1.7578754161337e-06
 235    0.0012723920482841
 236    8.7655201496665e-06
 237    -1.6286099034836e-05
 238    1.6289966473733e-06
 239    -9.1306431601869e-07
 240    1.9377170473674e-06
 241    7.9702129525229e-06
 242    7.4685254078499e-06
 243    -1.0662978607861e-05
 244    3.4388905170154e-07
 245    1.2350799625893e-06
 246    -2.0620229583149e-07
 247    -4.7366432631063e-07
 248    2.6464276645892e-07
 249    0.00012170959412353
 250    8.2890858391651e-05
 251    4.6644073990639e-05
 252    1.6432410141379e-05
 253    7.3093121816165e-05
 254    9.5190790557123e-05
 255    2.5194648041777e-05
 256    -4.1852378663075e-06
 257    -6.7372827162064e-05
 258    5.4034764348318e-05
 259     -0.99726584321995
 260    -0.0048555616662647
 261    0.0099219565984162
 262    0.00012914914673519
 263    -0.0001034118704936