[Molden Format]
made by pyscf v[2.0.1]
[Atoms] (AU)
O   1   8     0.00000000000000     0.00000000000000     9.42996968581551
H   2   1     0.00000000000000     0.00000000000000     7.60656786391454
H   3   1    -0.05031916615174     1.78353065140343     9.80584138228218
O   4   8     0.00000000000000     0.00000000000000     2.31533471513237
C   5   6     0.00000000000000     0.00000000000000     0.00000000000000
C   6   6     2.01118073026938    -1.40227222164369    -1.50774939176400
C   7   6    -2.01249334291722     1.41331050329955    -1.50315905028694
H   8   1     3.32037363730244    -2.26721897153159    -0.13599698591495
C   9   6     3.45899267434009     0.28739631745591    -3.37437943254505
H   10   1     1.07662969841332    -2.94725144642667    -2.56541439481080
H   11   1    -2.67503415753480     0.18421555839588    -3.06194479365997
H   12   1    -1.07974048864772     3.03851734677796    -2.43674295017013
C   13   6    -4.21607110578555     2.32938802552922     0.11994162256091
H   14   1     4.24440173074564     1.93368664142019    -2.34976285512790
H   15   1     2.15020713235517     1.04714335134846    -4.81494497423699
C   16   6     5.60746363007797    -1.12419643481196    -4.70268606082550
H   17   1    -3.46838323670267     3.50951302338067     1.66946842715333
H   18   1    -5.11873485366228     0.68575958301209     1.04047743976495
C   19   6    -6.18314754751344     3.80909592987882    -1.39656589068747
H   20   1     6.93011263717176    -1.87550812453645    -3.26656317360070
C   21   6     7.06356622236532     0.52877932406334    -6.57829775293605
H   22   1     4.82318879258361    -2.78573437948532    -5.70504560381835
H   23   1    -6.91582688743803     2.61304780074712    -2.95074552451969
H   24   1    -5.26532430573853     5.45420349051338    -2.31005832200284
C   25   6    -8.39941882261433     4.73263980500213     0.21800571437956
H   26   1     7.83338371486801     2.19084139882824    -5.57093109900697
H   27   1     5.73544244039420     1.27376866537418    -8.01071492370229
C   28   6     9.21124858443101    -0.89699110072176    -7.88926949186242
H   29   1    -7.66272760055236     5.92277078003992     1.77035591474408
H   30   1    -9.31497248082589     3.08753015622020     1.12614408368786
C   31   6   -10.35481709231879     6.21833079391143    -1.30905206253246
H   32   1    10.58815905329501    -1.61074586756696    -6.49512691622620
H   33   1    10.23506248045667     0.32468009384095    -9.23072870921204
H   34   1     8.47665842847139    -2.53598436989925    -8.94921964622535
H   35   1    -9.48948872868064     7.90013588951020    -2.18823918416067
H   36   1   -11.93332513000955     6.86460487874102    -0.11255798845995
H   37   1   -11.15126291841033     5.04495968327630    -2.83849898862534
[GTO]
1 0
 s    8 1.00
                 11720  0.00070964594651845
                  1759  0.0054672722921914
                 400.8   0.027823118610189
                 113.7    0.10474773971146
                 37.03    0.28292084635691
                 13.27    0.44849523869833
                 5.025    0.27081688521277
                 1.013    0.01545029160744
 s    8 1.00
                 11720  -0.00031444341168873
                  1759  -0.0024821376810179
                 400.8  -0.012316355381583
                 113.7  -0.050538917343672
                 37.03   -0.13938490331632
                 13.27   -0.32507749481778
                 5.025   -0.22984830758785
                 1.013     1.0953793467883
 s    1 1.00
                0.3023                   1
 p    3 1.00
                  17.7   0.062679166281506
                 3.854    0.33353656587936
                 1.046    0.74123964163973
 p    1 1.00
                0.2753                   1
 d    1 1.00
                 1.185                   1

2 0
 s    3 1.00
                 13.01   0.033498726389998
                 1.962    0.23480080117413
                0.4446     0.8136829578829
 s    1 1.00
                 0.122                   1
 p    1 1.00
                 0.727                   1

3 0
 s    3 1.00
                 13.01   0.033498726389998
                 1.962    0.23480080117413
                0.4446     0.8136829578829
 s    1 1.00
                 0.122                   1
 p    1 1.00
                 0.727                   1

4 0
 s    8 1.00
                 11720  0.00070964594651845
                  1759  0.0054672722921914
                 400.8   0.027823118610189
                 113.7    0.10474773971146
                 37.03    0.28292084635691
                 13.27    0.44849523869833
                 5.025    0.27081688521277
                 1.013    0.01545029160744
 s    8 1.00
                 11720  -0.00031444341168873
                  1759  -0.0024821376810179
                 400.8  -0.012316355381583
                 113.7  -0.050538917343672
                 37.03   -0.13938490331632
                 13.27   -0.32507749481778
                 5.025   -0.22984830758785
                 1.013     1.0953793467883
 s    1 1.00
                0.3023                   1
 p    3 1.00
                  17.7   0.062679166281506
                 3.854    0.33353656587936
                 1.046    0.74123964163973
 p    1 1.00
                0.2753                   1
 d    1 1.00
                 1.185                   1

5 0
 s    8 1.00
                  6665  0.00069158396281299
                  1000  0.0053257961529341
                   228   0.027060721042034
                 64.71    0.10165684614077
                 21.06     0.2745748236174
                 7.495    0.44829431892377
                 2.797    0.28490261071525
                0.5215   0.015194859206082
 s    8 1.00
                  6665  -0.00029326965268655
                  1000  -0.0023180354739745
                   228  -0.011499786038565
                 64.71  -0.046826727009787
                 21.06   -0.12846616875047
                 7.495   -0.30126627246289
                 2.797   -0.25563070233011
                0.5215      1.093793361012
 s    1 1.00
                0.1596                   1
 p    3 1.00
                 9.439   0.056979251590039
                 2.002    0.31320721150073
                0.5456    0.76037674173753
 p    1 1.00
                0.1517                   1
 d    1 1.00
                  0.55                   1

6 0
 s    8 1.00
                  6665  0.00069158396281299
                  1000  0.0053257961529341
                   228   0.027060721042034
                 64.71    0.10165684614077
                 21.06     0.2745748236174
                 7.495    0.44829431892377
                 2.797    0.28490261071525
                0.5215   0.015194859206082
 s    8 1.00
                  6665  -0.00029326965268655
                  1000  -0.0023180354739745
                   228  -0.011499786038565
                 64.71  -0.046826727009787
                 21.06   -0.12846616875047
                 7.495   -0.30126627246289
                 2.797   -0.25563070233011
                0.5215      1.093793361012
 s    1 1.00
                0.1596                   1
 p    3 1.00
                 9.439   0.056979251590039
                 2.002    0.31320721150073
                0.5456    0.76037674173753
 p    1 1.00
                0.1517                   1
 d    1 1.00
                  0.55                   1

7 0
 s    8 1.00
                  6665  0.00069158396281299
                  1000  0.0053257961529341
                   228   0.027060721042034
                 64.71    0.10165684614077
                 21.06     0.2745748236174
                 7.495    0.44829431892377
                 2.797    0.28490261071525
                0.5215   0.015194859206082
 s    8 1.00
                  6665  -0.00029326965268655
                  1000  -0.0023180354739745
                   228  -0.011499786038565
                 64.71  -0.046826727009787
                 21.06   -0.12846616875047
                 7.495   -0.30126627246289
                 2.797   -0.25563070233011
                0.5215      1.093793361012
 s    1 1.00
                0.1596                   1
 p    3 1.00
                 9.439   0.056979251590039
                 2.002    0.31320721150073
                0.5456    0.76037674173753
 p    1 1.00
                0.1517                   1
 d    1 1.00
                  0.55                   1

8 0
 s    3 1.00
                 13.01   0.033498726389998
                 1.962    0.23480080117413
                0.4446     0.8136829578829
 s    1 1.00
                 0.122                   1
 p    1 1.00
                 0.727                   1

9 0
 s    8 1.00
                  6665  0.00069158396281299
                  1000  0.0053257961529341
                   228   0.027060721042034
                 64.71    0.10165684614077
                 21.06     0.2745748236174
                 7.495    0.44829431892377
                 2.797    0.28490261071525
                0.5215   0.015194859206082
 s    8 1.00
                  6665  -0.00029326965268655
                  1000  -0.0023180354739745
                   228  -0.011499786038565
                 64.71  -0.046826727009787
                 21.06   -0.12846616875047
                 7.495   -0.30126627246289
                 2.797   -0.25563070233011
                0.5215      1.093793361012
 s    1 1.00
                0.1596                   1
 p    3 1.00
                 9.439   0.056979251590039
                 2.002    0.31320721150073
                0.5456    0.76037674173753
 p    1 1.00
                0.1517                   1
 d    1 1.00
                  0.55                   1

10 0
 s    3 1.00
                 13.01   0.033498726389998
                 1.962    0.23480080117413
                0.4446     0.8136829578829
 s    1 1.00
                 0.122                   1
 p    1 1.00
                 0.727                   1

11 0
 s    3 1.00
                 13.01   0.033498726389998
                 1.962    0.23480080117413
                0.4446     0.8136829578829
 s    1 1.00
                 0.122                   1
 p    1 1.00
                 0.727                   1

12 0
 s    3 1.00
                 13.01   0.033498726389998
                 1.962    0.23480080117413
                0.4446     0.8136829578829
 s    1 1.00
                 0.122                   1
 p    1 1.00
                 0.727                   1

13 0
 s    8 1.00
                  6665  0.00069158396281299
                  1000  0.0053257961529341
                   228   0.027060721042034
                 64.71    0.10165684614077
                 21.06     0.2745748236174
                 7.495    0.44829431892377
                 2.797    0.28490261071525
                0.5215   0.015194859206082
 s    8 1.00
                  6665  -0.00029326965268655
                  1000  -0.0023180354739745
                   228  -0.011499786038565
                 64.71  -0.046826727009787
                 21.06   -0.12846616875047
                 7.495   -0.30126627246289
                 2.797   -0.25563070233011
                0.5215      1.093793361012
 s    1 1.00
                0.1596                   1
 p    3 1.00
                 9.439   0.056979251590039
                 2.002    0.31320721150073
                0.5456    0.76037674173753
 p    1 1.00
                0.1517                   1
 d    1 1.00
                  0.55                   1

14 0
 s    3 1.00
                 13.01   0.033498726389998
                 1.962    0.23480080117413
                0.4446     0.8136829578829
 s    1 1.00
                 0.122                   1
 p    1 1.00
                 0.727                   1

15 0
 s    3 1.00
                 13.01   0.033498726389998
                 1.962    0.23480080117413
                0.4446     0.8136829578829
 s    1 1.00
                 0.122                   1
 p    1 1.00
                 0.727                   1

16 0
 s    8 1.00
                  6665  0.00069158396281299
                  1000  0.0053257961529341
                   228   0.027060721042034
                 64.71    0.10165684614077
                 21.06     0.2745748236174
                 7.495    0.44829431892377
                 2.797    0.28490261071525
                0.5215   0.015194859206082
 s    8 1.00
                  6665  -0.00029326965268655
                  1000  -0.0023180354739745
                   228  -0.011499786038565
                 64.71  -0.046826727009787
                 21.06   -0.12846616875047
                 7.495   -0.30126627246289
                 2.797   -0.25563070233011
                0.5215      1.093793361012
 s    1 1.00
                0.1596                   1
 p    3 1.00
                 9.439   0.056979251590039
                 2.002    0.31320721150073
                0.5456    0.76037674173753
 p    1 1.00
                0.1517                   1
 d    1 1.00
                  0.55                   1

17 0
 s    3 1.00
                 13.01   0.033498726389998
                 1.962    0.23480080117413
                0.4446     0.8136829578829
 s    1 1.00
                 0.122                   1
 p    1 1.00
                 0.727                   1

18 0
 s    3 1.00
                 13.01   0.033498726389998
                 1.962    0.23480080117413
                0.4446     0.8136829578829
 s    1 1.00
                 0.122                   1
 p    1 1.00
                 0.727                   1

19 0
 s    8 1.00
                  6665  0.00069158396281299
                  1000  0.0053257961529341
                   228   0.027060721042034
                 64.71    0.10165684614077
                 21.06     0.2745748236174
                 7.495    0.44829431892377
                 2.797    0.28490261071525
                0.5215   0.015194859206082
 s    8 1.00
                  6665  -0.00029326965268655
                  1000  -0.0023180354739745
                   228  -0.011499786038565
                 64.71  -0.046826727009787
                 21.06   -0.12846616875047
                 7.495   -0.30126627246289
                 2.797   -0.25563070233011
                0.5215      1.093793361012
 s    1 1.00
                0.1596                   1
 p    3 1.00
                 9.439   0.056979251590039
                 2.002    0.31320721150073
                0.5456    0.76037674173753
 p    1 1.00
                0.1517                   1
 d    1 1.00
                  0.55                   1

20 0
 s    3 1.00
                 13.01   0.033498726389998
                 1.962    0.23480080117413
                0.4446     0.8136829578829
 s    1 1.00
                 0.122                   1
 p    1 1.00
                 0.727                   1

21 0
 s    8 1.00
                  6665  0.00069158396281299
                  1000  0.0053257961529341
                   228   0.027060721042034
                 64.71    0.10165684614077
                 21.06     0.2745748236174
                 7.495    0.44829431892377
                 2.797    0.28490261071525
                0.5215   0.015194859206082
 s    8 1.00
                  6665  -0.00029326965268655
                  1000  -0.0023180354739745
                   228  -0.011499786038565
                 64.71  -0.046826727009787
                 21.06   -0.12846616875047
                 7.495   -0.30126627246289
                 2.797   -0.25563070233011
                0.5215      1.093793361012
 s    1 1.00
                0.1596                   1
 p    3 1.00
                 9.439   0.056979251590039
                 2.002    0.31320721150073
                0.5456    0.76037674173753
 p    1 1.00
                0.1517                   1
 d    1 1.00
                  0.55                   1

22 0
 s    3 1.00
                 13.01   0.033498726389998
                 1.962    0.23480080117413
                0.4446     0.8136829578829
 s    1 1.00
                 0.122                   1
 p    1 1.00
                 0.727                   1

23 0
 s    3 1.00
                 13.01   0.033498726389998
                 1.962    0.23480080117413
                0.4446     0.8136829578829
 s    1 1.00
                 0.122                   1
 p    1 1.00
                 0.727                   1

24 0
 s    3 1.00
                 13.01   0.033498726389998
                 1.962    0.23480080117413
                0.4446     0.8136829578829
 s    1 1.00
                 0.122                   1
 p    1 1.00
                 0.727                   1

25 0
 s    8 1.00
                  6665  0.00069158396281299
                  1000  0.0053257961529341
                   228   0.027060721042034
                 64.71    0.10165684614077
                 21.06     0.2745748236174
                 7.495    0.44829431892377
                 2.797    0.28490261071525
                0.5215   0.015194859206082
 s    8 1.00
                  6665  -0.00029326965268655
                  1000  -0.0023180354739745
                   228  -0.011499786038565
                 64.71  -0.046826727009787
                 21.06   -0.12846616875047
                 7.495   -0.30126627246289
                 2.797   -0.25563070233011
                0.5215      1.093793361012
 s    1 1.00
                0.1596                   1
 p    3 1.00
                 9.439   0.056979251590039
                 2.002    0.31320721150073
                0.5456    0.76037674173753
 p    1 1.00
                0.1517                   1
 d    1 1.00
                  0.55                   1

26 0
 s    3 1.00
                 13.01   0.033498726389998
                 1.962    0.23480080117413
                0.4446     0.8136829578829
 s    1 1.00
                 0.122                   1
 p    1 1.00
                 0.727                   1

27 0
 s    3 1.00
                 13.01   0.033498726389998
                 1.962    0.23480080117413
                0.4446     0.8136829578829
 s    1 1.00
                 0.122                   1
 p    1 1.00
                 0.727                   1

28 0
 s    8 1.00
                  6665  0.00069158396281299
                  1000  0.0053257961529341
                   228   0.027060721042034
                 64.71    0.10165684614077
                 21.06     0.2745748236174
                 7.495    0.44829431892377
                 2.797    0.28490261071525
                0.5215   0.015194859206082
 s    8 1.00
                  6665  -0.00029326965268655
                  1000  -0.0023180354739745
                   228  -0.011499786038565
                 64.71  -0.046826727009787
                 21.06   -0.12846616875047
                 7.495   -0.30126627246289
                 2.797   -0.25563070233011
                0.5215      1.093793361012
 s    1 1.00
                0.1596                   1
 p    3 1.00
                 9.439   0.056979251590039
                 2.002    0.31320721150073
                0.5456    0.76037674173753
 p    1 1.00
                0.1517                   1
 d    1 1.00
                  0.55                   1

29 0
 s    3 1.00
                 13.01   0.033498726389998
                 1.962    0.23480080117413
                0.4446     0.8136829578829
 s    1 1.00
                 0.122                   1
 p    1 1.00
                 0.727                   1

30 0
 s    3 1.00
                 13.01   0.033498726389998
                 1.962    0.23480080117413
                0.4446     0.8136829578829
 s    1 1.00
                 0.122                   1
 p    1 1.00
                 0.727                   1

31 0
 s    8 1.00
                  6665  0.00069158396281299
                  1000  0.0053257961529341
                   228   0.027060721042034
                 64.71    0.10165684614077
                 21.06     0.2745748236174
                 7.495    0.44829431892377
                 2.797    0.28490261071525
                0.5215   0.015194859206082
 s    8 1.00
                  6665  -0.00029326965268655
                  1000  -0.0023180354739745
                   228  -0.011499786038565
                 64.71  -0.046826727009787
                 21.06   -0.12846616875047
                 7.495   -0.30126627246289
                 2.797   -0.25563070233011
                0.5215      1.093793361012
 s    1 1.00
                0.1596                   1
 p    3 1.00
                 9.439   0.056979251590039
                 2.002    0.31320721150073
                0.5456    0.76037674173753
 p    1 1.00
                0.1517                   1
 d    1 1.00
                  0.55                   1

32 0
 s    3 1.00
                 13.01   0.033498726389998
                 1.962    0.23480080117413
                0.4446     0.8136829578829
 s    1 1.00
                 0.122                   1
 p    1 1.00
                 0.727                   1

33 0
 s    3 1.00
                 13.01   0.033498726389998
                 1.962    0.23480080117413
                0.4446     0.8136829578829
 s    1 1.00
                 0.122                   1
 p    1 1.00
                 0.727                   1

34 0
 s    3 1.00
                 13.01   0.033498726389998
                 1.962    0.23480080117413
                0.4446     0.8136829578829
 s    1 1.00
                 0.122                   1
 p    1 1.00
                 0.727                   1

35 0
 s    3 1.00
                 13.01   0.033498726389998
                 1.962    0.23480080117413
                0.4446     0.8136829578829
 s    1 1.00
                 0.122                   1
 p    1 1.00
                 0.727                   1

36 0
 s    3 1.00
                 13.01   0.033498726389998
                 1.962    0.23480080117413
                0.4446     0.8136829578829
 s    1 1.00
                 0.122                   1
 p    1 1.00
                 0.727                   1

37 0
 s    3 1.00
                 13.01   0.033498726389998
                 1.962    0.23480080117413
                0.4446     0.8136829578829
 s    1 1.00
                 0.122                   1
 p    1 1.00
                 0.727                   1

[5d]
[7f]
[9g]

[MO]
 Sym= A
 Ene=               0
 Spin= Alpha
 Occup=    1.00000
   1    -1.9979833976588e-08
   2    -4.5983887871906e-07
   3    -3.1260497794368e-06
   4    8.2924856223111e-07
   5    2.5207826374082e-06
   6    -4.74299887076e-06
   7    5.7601366014232e-07
   8    1.6012860244683e-06
   9    -2.958084826339e-06
  10    1.3951980735272e-08
  11    -3.0552984481733e-09
  12    -1.4127305975021e-07
  13    -3.302595184437e-08
  14    1.5037504783655e-08
  15    2.8816340702548e-06
  16    -8.9864198989257e-07
  17    5.9946270645839e-08
  18    2.3041873480568e-07
  19    6.514478905358e-07
  20    8.3952993012422e-07
  21    1.4317668896951e-06
  22    4.8320884102747e-08
  23    -1.2414950467563e-07
  24    -3.7102044257521e-07
  25    -2.222202820264e-07
  26    -4.1558564743422e-05
  27    5.4419947497087e-06
  28    0.00012061961016545
  29    -4.0342204995061e-05
  30    -6.4848584277922e-05
  31    6.3218759413271e-05
  32    -9.0753931012556e-07
  33    -7.6075906506855e-05
  34    3.2139924821598e-06
  35    -7.9805907402717e-06
  36    3.1784787537597e-06
  37    -2.5539900647174e-06
  38    3.6280794780438e-06
  39    2.2123242874924e-05
  40    -3.7561370997472e-05
  41    -0.00042122820643307
  42    0.00016657140942163
  43    -0.00010170571551762
  44    0.00011820214393745
  45    0.00059172037940215
  46    -0.00036766007723977
  47    -3.8793072113991e-05
  48    -1.3014166265016e-05
  49    -2.3794455058953e-05
  50    2.1880963568409e-05
  51    -5.466659324148e-06
  52    1.4602921320523e-05
  53    2.7638363205921e-05
  54    7.5923484174814e-05
  55    -0.00038235217240969
  56    -6.1406723696721e-05
  57    4.8238999017557e-05
  58    2.3623537285943e-06
  59    7.2800026662944e-05
  60    -0.00011290505245559
  61    -0.00013449521736041
  62    4.5021358439972e-06
  63    3.8776320769214e-06
  64    1.1949113143318e-07
  65    -6.9284500988098e-06
  66    1.1257148342971e-05
  67    -1.1646655902974e-05
  68    9.4475703394516e-05
  69    0.00044764425937157
  70    -0.00025827039851953
  71    0.00013591655380816
  72    8.6633130395366e-05
  73    0.00016133894769977
  74    -8.7602824636914e-05
  75    0.00024539102102879
  76    3.7250319578096e-05
  77    -7.9184677565445e-06
  78    1.7432577754293e-06
  79    -1.4342169043657e-05
  80    2.8921557326541e-05
  81    -4.3266361909827e-05
  82    -7.7691206313243e-05
  83    5.1135975549166e-06
  84    -1.9648858330361e-07
  85    5.566682352501e-06
  86    -3.5889623369832e-06
  87    8.6326551593119e-06
  88    9.9572190526526e-05
  89    -1.1274618568737e-05
  90    -6.9413792491043e-06
  91    5.5995275369836e-06
  92    5.1817212607225e-05
  93    -4.7839094298399e-05
  94    5.4234527378813e-05
  95    3.6062241537079e-07
  96    -9.6834141853465e-06
  97    3.7397223902017e-06
  98    3.8600676492764e-06
  99    2.2414951581523e-06
 100     1.71475368271e-05
 101    -1.4420330414563e-05
 102    -9.1638844169859e-06
 103    4.9991803881019e-06
 104    3.4513631365332e-06
 105    5.7621079681621e-05
 106    3.7887558272453e-05
 107    -2.5627805541677e-05
 108    1.771072695889e-05
 109    -8.8136458054847e-06
 110    5.6456740520055e-05
 111    -1.0154364924334e-05
 112    -2.5314694097409e-05
 113    1.2983500147173e-05
 114    -9.8306338489383e-06
 115    9.0756436789903e-05
 116    -0.00023386707035792
 117    -0.0016337399638673
 118    0.00091629677609402
 119    -0.00063840802713194
 120    0.00061018656180722
 121    0.0011006830460653
 122    -0.00078180718839817
 123    0.00064872123247022
 124    3.5825174903073e-05
 125    -9.823423778226e-05
 126    7.7578741847088e-05
 127    -1.095458462394e-05
 128    8.4959932776866e-05
 129    -6.5820576817371e-06
 130    -7.4646824463756e-06
 131    -4.8299966610643e-06
 132    1.6189993674177e-06
 133    -1.8855045488098e-06
 134    5.8613344688725e-06
 135    4.7906182029832e-05
 136    4.8116715357371e-06
 137    -2.1001382647583e-06
 138    4.0118835532442e-06
 139    6.499098742347e-06
 140    1.2647957714408e-05
 141    -5.9176664188996e-05
 142    -1.9296006681623e-06
 143    4.1833165102521e-06
 144    5.3486405305889e-06
 145    5.0665702262074e-05
 146    1.8558422938001e-06
 147    -7.8387677253863e-05
 148    -1.563712565845e-06
 149    3.663607640899e-06
 150    -2.6092603934035e-06
 151    -6.1650159257079e-07
 152    2.8542409685147e-06
 153    0.00027599586523512
 154    0.00015957852731513
 155    -5.3282406334331e-06
 156    -2.0941266630884e-06
 157    -1.7277040862793e-06
 158    0.00020290356338708
 159    7.5488917246835e-05
 160    1.699932263711e-06
 161    5.183078714109e-06
 162    4.2214769322836e-06
 163    8.9549132451159e-05
 164    -0.00011352992090888
 165    4.6414615891173e-05
 166    -0.00090678551728853
 167    0.00044370648918368
 168    -0.0011093464124557
 169    0.00071931474615945
 170    -0.00057350412574326
 171    1.7131051802687e-05
 172    6.4031820362352e-06
 173    6.7118951215925e-06
 174    5.4109808884405e-05
 175    -6.4905749257596e-05
 176    0.00012616939650624
 177    5.5266349091476e-06
 178    1.0408660536892e-05
 179    -2.3405097577002e-06
 180    -5.4948450925286e-07
 181    2.0661831986446e-06
 182    5.8469780285233e-07
 183    -3.0792853363474e-06
 184    -2.6688822476655e-05
 185    7.887409880412e-06
 186    1.4912242911311e-06
 187    8.9202935680546e-06
 188    1.0967622064309e-05
 189    2.0199378171794e-05
 190    -1.1931189006993e-06
 191    7.8158124259091e-07
 192    2.2002649024001e-07
 193    1.1916848460397e-06
 194    7.5438925915552e-07
 195    -1.486024442364e-06
 196    -8.3969230799346e-07
 197    -1.5515818798678e-05
 198    -2.1210867423621e-06
 199    -2.2294497818911e-06
 200    2.3607221764538e-06
 201    0.00074206332383772
 202    0.00056175845449377
 203    -7.7711884071904e-05
 204    0.00011805283753378
 205    -1.0327726829923e-05
 206    0.00030975857847802
 207    0.00035686035279538
 208    -0.00012876045252567
 209    3.1534130301524e-05
 210    -5.3656563869839e-05
 211      0.10166072708361
 212    0.00045791850158852
 213    -0.0028415161928885
 214    2.4319804921381e-05
 215    -1.6385816137438e-05
 216    -2.9504019240541e-05
 217    0.0011402329886242
 218    -0.00078023618945329
 219    0.00049714939050607
 220    6.2094488699247e-05
 221    4.9476567726726e-05
 222    -6.0459527229791e-05
 223    2.0134337167564e-05
 224    -8.4289907877788e-05
 225    4.9408324135397e-06
 226    -2.642102165743e-06
 227    3.1775548877288e-07
 228    -9.943829207277e-07
 229    4.0275472668355e-07
 230    -1.1694933985136e-05
 231    -1.1429093863989e-05
 232    -6.7461197108553e-07
 233    -2.9672961795818e-08
 234    -1.7637556894119e-06
 235    0.0012716988009332
 236    8.739620211463e-06
 237    -1.628860670736e-05
 238    1.6318332741142e-06
 239    -9.4509019386478e-07
 240    1.9280216584256e-06
 241    7.9553254175969e-06
 242    7.4398265758083e-06
 243    -1.0663597995303e-05
 244    3.4558337578323e-07
 245    1.2292292532943e-06
 246    -2.1285104182638e-07
 247    -4.6474258884878e-07
 248    2.7058463729098e-07
 249    0.00012078634209965
 250    8.2587647534359e-05
 251    4.6645920192188e-05
 252    1.6513143233736e-05
 253    7.3276160044468e-05
 254    9.4425159839086e-05
 255    2.5417047078952e-05
 256    -4.2524316914256e-06
 257    -6.74068004383e-05
 258    5.4132100733031e-05
 259     -0.99725612032548
 260    -0.0048560368422671
 261     0.009922081093955
 262    0.00012671674993253
 263    -0.00010219646844871