[Molden Format]
made by pyscf v[2.0.1]
[Atoms] (AU)
O   1   8     0.00000000000000     0.00000000000000    10.18586013564153
H   2   1     0.00000000000000     0.00000000000000     8.36245831374057
H   3   1    -0.05031916615174     1.78353065140343    10.56173183210820
O   4   8     0.00000000000000     0.00000000000000     2.31533471513237
C   5   6     0.00000000000000     0.00000000000000     0.00000000000000
C   6   6     2.01118073026938    -1.40227222164369    -1.50774939176400
C   7   6    -2.01249334291722     1.41331050329955    -1.50315905028694
H   8   1     3.32037363730244    -2.26721897153159    -0.13599698591495
C   9   6     3.45899267434009     0.28739631745591    -3.37437943254505
H   10   1     1.07662969841332    -2.94725144642667    -2.56541439481080
H   11   1    -2.67503415753480     0.18421555839588    -3.06194479365997
H   12   1    -1.07974048864772     3.03851734677796    -2.43674295017013
C   13   6    -4.21607110578555     2.32938802552922     0.11994162256091
H   14   1     4.24440173074564     1.93368664142019    -2.34976285512790
H   15   1     2.15020713235517     1.04714335134846    -4.81494497423699
C   16   6     5.60746363007797    -1.12419643481196    -4.70268606082550
H   17   1    -3.46838323670267     3.50951302338067     1.66946842715333
H   18   1    -5.11873485366228     0.68575958301209     1.04047743976495
C   19   6    -6.18314754751344     3.80909592987882    -1.39656589068747
H   20   1     6.93011263717176    -1.87550812453645    -3.26656317360070
C   21   6     7.06356622236532     0.52877932406334    -6.57829775293605
H   22   1     4.82318879258361    -2.78573437948532    -5.70504560381835
H   23   1    -6.91582688743803     2.61304780074712    -2.95074552451969
H   24   1    -5.26532430573853     5.45420349051338    -2.31005832200284
C   25   6    -8.39941882261433     4.73263980500213     0.21800571437956
H   26   1     7.83338371486801     2.19084139882824    -5.57093109900697
H   27   1     5.73544244039420     1.27376866537418    -8.01071492370229
C   28   6     9.21124858443101    -0.89699110072176    -7.88926949186242
H   29   1    -7.66272760055236     5.92277078003992     1.77035591474408
H   30   1    -9.31497248082589     3.08753015622020     1.12614408368786
C   31   6   -10.35481709231879     6.21833079391143    -1.30905206253246
H   32   1    10.58815905329501    -1.61074586756696    -6.49512691622620
H   33   1    10.23506248045667     0.32468009384095    -9.23072870921204
H   34   1     8.47665842847139    -2.53598436989925    -8.94921964622535
H   35   1    -9.48948872868064     7.90013588951020    -2.18823918416067
H   36   1   -11.93332513000955     6.86460487874102    -0.11255798845995
H   37   1   -11.15126291841033     5.04495968327630    -2.83849898862534
[GTO]
1 0
 s    8 1.00
                 11720  0.00070964594651845
                  1759  0.0054672722921914
                 400.8   0.027823118610189
                 113.7    0.10474773971146
                 37.03    0.28292084635691
                 13.27    0.44849523869833
                 5.025    0.27081688521277
                 1.013    0.01545029160744
 s    8 1.00
                 11720  -0.00031444341168873
                  1759  -0.0024821376810179
                 400.8  -0.012316355381583
                 113.7  -0.050538917343672
                 37.03   -0.13938490331632
                 13.27   -0.32507749481778
                 5.025   -0.22984830758785
                 1.013     1.0953793467883
 s    1 1.00
                0.3023                   1
 p    3 1.00
                  17.7   0.062679166281506
                 3.854    0.33353656587936
                 1.046    0.74123964163973
 p    1 1.00
                0.2753                   1
 d    1 1.00
                 1.185                   1

2 0
 s    3 1.00
                 13.01   0.033498726389998
                 1.962    0.23480080117413
                0.4446     0.8136829578829
 s    1 1.00
                 0.122                   1
 p    1 1.00
                 0.727                   1

3 0
 s    3 1.00
                 13.01   0.033498726389998
                 1.962    0.23480080117413
                0.4446     0.8136829578829
 s    1 1.00
                 0.122                   1
 p    1 1.00
                 0.727                   1

4 0
 s    8 1.00
                 11720  0.00070964594651845
                  1759  0.0054672722921914
                 400.8   0.027823118610189
                 113.7    0.10474773971146
                 37.03    0.28292084635691
                 13.27    0.44849523869833
                 5.025    0.27081688521277
                 1.013    0.01545029160744
 s    8 1.00
                 11720  -0.00031444341168873
                  1759  -0.0024821376810179
                 400.8  -0.012316355381583
                 113.7  -0.050538917343672
                 37.03   -0.13938490331632
                 13.27   -0.32507749481778
                 5.025   -0.22984830758785
                 1.013     1.0953793467883
 s    1 1.00
                0.3023                   1
 p    3 1.00
                  17.7   0.062679166281506
                 3.854    0.33353656587936
                 1.046    0.74123964163973
 p    1 1.00
                0.2753                   1
 d    1 1.00
                 1.185                   1

5 0
 s    8 1.00
                  6665  0.00069158396281299
                  1000  0.0053257961529341
                   228   0.027060721042034
                 64.71    0.10165684614077
                 21.06     0.2745748236174
                 7.495    0.44829431892377
                 2.797    0.28490261071525
                0.5215   0.015194859206082
 s    8 1.00
                  6665  -0.00029326965268655
                  1000  -0.0023180354739745
                   228  -0.011499786038565
                 64.71  -0.046826727009787
                 21.06   -0.12846616875047
                 7.495   -0.30126627246289
                 2.797   -0.25563070233011
                0.5215      1.093793361012
 s    1 1.00
                0.1596                   1
 p    3 1.00
                 9.439   0.056979251590039
                 2.002    0.31320721150073
                0.5456    0.76037674173753
 p    1 1.00
                0.1517                   1
 d    1 1.00
                  0.55                   1

6 0
 s    8 1.00
                  6665  0.00069158396281299
                  1000  0.0053257961529341
                   228   0.027060721042034
                 64.71    0.10165684614077
                 21.06     0.2745748236174
                 7.495    0.44829431892377
                 2.797    0.28490261071525
                0.5215   0.015194859206082
 s    8 1.00
                  6665  -0.00029326965268655
                  1000  -0.0023180354739745
                   228  -0.011499786038565
                 64.71  -0.046826727009787
                 21.06   -0.12846616875047
                 7.495   -0.30126627246289
                 2.797   -0.25563070233011
                0.5215      1.093793361012
 s    1 1.00
                0.1596                   1
 p    3 1.00
                 9.439   0.056979251590039
                 2.002    0.31320721150073
                0.5456    0.76037674173753
 p    1 1.00
                0.1517                   1
 d    1 1.00
                  0.55                   1

7 0
 s    8 1.00
                  6665  0.00069158396281299
                  1000  0.0053257961529341
                   228   0.027060721042034
                 64.71    0.10165684614077
                 21.06     0.2745748236174
                 7.495    0.44829431892377
                 2.797    0.28490261071525
                0.5215   0.015194859206082
 s    8 1.00
                  6665  -0.00029326965268655
                  1000  -0.0023180354739745
                   228  -0.011499786038565
                 64.71  -0.046826727009787
                 21.06   -0.12846616875047
                 7.495   -0.30126627246289
                 2.797   -0.25563070233011
                0.5215      1.093793361012
 s    1 1.00
                0.1596                   1
 p    3 1.00
                 9.439   0.056979251590039
                 2.002    0.31320721150073
                0.5456    0.76037674173753
 p    1 1.00
                0.1517                   1
 d    1 1.00
                  0.55                   1

8 0
 s    3 1.00
                 13.01   0.033498726389998
                 1.962    0.23480080117413
                0.4446     0.8136829578829
 s    1 1.00
                 0.122                   1
 p    1 1.00
                 0.727                   1

9 0
 s    8 1.00
                  6665  0.00069158396281299
                  1000  0.0053257961529341
                   228   0.027060721042034
                 64.71    0.10165684614077
                 21.06     0.2745748236174
                 7.495    0.44829431892377
                 2.797    0.28490261071525
                0.5215   0.015194859206082
 s    8 1.00
                  6665  -0.00029326965268655
                  1000  -0.0023180354739745
                   228  -0.011499786038565
                 64.71  -0.046826727009787
                 21.06   -0.12846616875047
                 7.495   -0.30126627246289
                 2.797   -0.25563070233011
                0.5215      1.093793361012
 s    1 1.00
                0.1596                   1
 p    3 1.00
                 9.439   0.056979251590039
                 2.002    0.31320721150073
                0.5456    0.76037674173753
 p    1 1.00
                0.1517                   1
 d    1 1.00
                  0.55                   1

10 0
 s    3 1.00
                 13.01   0.033498726389998
                 1.962    0.23480080117413
                0.4446     0.8136829578829
 s    1 1.00
                 0.122                   1
 p    1 1.00
                 0.727                   1

11 0
 s    3 1.00
                 13.01   0.033498726389998
                 1.962    0.23480080117413
                0.4446     0.8136829578829
 s    1 1.00
                 0.122                   1
 p    1 1.00
                 0.727                   1

12 0
 s    3 1.00
                 13.01   0.033498726389998
                 1.962    0.23480080117413
                0.4446     0.8136829578829
 s    1 1.00
                 0.122                   1
 p    1 1.00
                 0.727                   1

13 0
 s    8 1.00
                  6665  0.00069158396281299
                  1000  0.0053257961529341
                   228   0.027060721042034
                 64.71    0.10165684614077
                 21.06     0.2745748236174
                 7.495    0.44829431892377
                 2.797    0.28490261071525
                0.5215   0.015194859206082
 s    8 1.00
                  6665  -0.00029326965268655
                  1000  -0.0023180354739745
                   228  -0.011499786038565
                 64.71  -0.046826727009787
                 21.06   -0.12846616875047
                 7.495   -0.30126627246289
                 2.797   -0.25563070233011
                0.5215      1.093793361012
 s    1 1.00
                0.1596                   1
 p    3 1.00
                 9.439   0.056979251590039
                 2.002    0.31320721150073
                0.5456    0.76037674173753
 p    1 1.00
                0.1517                   1
 d    1 1.00
                  0.55                   1

14 0
 s    3 1.00
                 13.01   0.033498726389998
                 1.962    0.23480080117413
                0.4446     0.8136829578829
 s    1 1.00
                 0.122                   1
 p    1 1.00
                 0.727                   1

15 0
 s    3 1.00
                 13.01   0.033498726389998
                 1.962    0.23480080117413
                0.4446     0.8136829578829
 s    1 1.00
                 0.122                   1
 p    1 1.00
                 0.727                   1

16 0
 s    8 1.00
                  6665  0.00069158396281299
                  1000  0.0053257961529341
                   228   0.027060721042034
                 64.71    0.10165684614077
                 21.06     0.2745748236174
                 7.495    0.44829431892377
                 2.797    0.28490261071525
                0.5215   0.015194859206082
 s    8 1.00
                  6665  -0.00029326965268655
                  1000  -0.0023180354739745
                   228  -0.011499786038565
                 64.71  -0.046826727009787
                 21.06   -0.12846616875047
                 7.495   -0.30126627246289
                 2.797   -0.25563070233011
                0.5215      1.093793361012
 s    1 1.00
                0.1596                   1
 p    3 1.00
                 9.439   0.056979251590039
                 2.002    0.31320721150073
                0.5456    0.76037674173753
 p    1 1.00
                0.1517                   1
 d    1 1.00
                  0.55                   1

17 0
 s    3 1.00
                 13.01   0.033498726389998
                 1.962    0.23480080117413
                0.4446     0.8136829578829
 s    1 1.00
                 0.122                   1
 p    1 1.00
                 0.727                   1

18 0
 s    3 1.00
                 13.01   0.033498726389998
                 1.962    0.23480080117413
                0.4446     0.8136829578829
 s    1 1.00
                 0.122                   1
 p    1 1.00
                 0.727                   1

19 0
 s    8 1.00
                  6665  0.00069158396281299
                  1000  0.0053257961529341
                   228   0.027060721042034
                 64.71    0.10165684614077
                 21.06     0.2745748236174
                 7.495    0.44829431892377
                 2.797    0.28490261071525
                0.5215   0.015194859206082
 s    8 1.00
                  6665  -0.00029326965268655
                  1000  -0.0023180354739745
                   228  -0.011499786038565
                 64.71  -0.046826727009787
                 21.06   -0.12846616875047
                 7.495   -0.30126627246289
                 2.797   -0.25563070233011
                0.5215      1.093793361012
 s    1 1.00
                0.1596                   1
 p    3 1.00
                 9.439   0.056979251590039
                 2.002    0.31320721150073
                0.5456    0.76037674173753
 p    1 1.00
                0.1517                   1
 d    1 1.00
                  0.55                   1

20 0
 s    3 1.00
                 13.01   0.033498726389998
                 1.962    0.23480080117413
                0.4446     0.8136829578829
 s    1 1.00
                 0.122                   1
 p    1 1.00
                 0.727                   1

21 0
 s    8 1.00
                  6665  0.00069158396281299
                  1000  0.0053257961529341
                   228   0.027060721042034
                 64.71    0.10165684614077
                 21.06     0.2745748236174
                 7.495    0.44829431892377
                 2.797    0.28490261071525
                0.5215   0.015194859206082
 s    8 1.00
                  6665  -0.00029326965268655
                  1000  -0.0023180354739745
                   228  -0.011499786038565
                 64.71  -0.046826727009787
                 21.06   -0.12846616875047
                 7.495   -0.30126627246289
                 2.797   -0.25563070233011
                0.5215      1.093793361012
 s    1 1.00
                0.1596                   1
 p    3 1.00
                 9.439   0.056979251590039
                 2.002    0.31320721150073
                0.5456    0.76037674173753
 p    1 1.00
                0.1517                   1
 d    1 1.00
                  0.55                   1

22 0
 s    3 1.00
                 13.01   0.033498726389998
                 1.962    0.23480080117413
                0.4446     0.8136829578829
 s    1 1.00
                 0.122                   1
 p    1 1.00
                 0.727                   1

23 0
 s    3 1.00
                 13.01   0.033498726389998
                 1.962    0.23480080117413
                0.4446     0.8136829578829
 s    1 1.00
                 0.122                   1
 p    1 1.00
                 0.727                   1

24 0
 s    3 1.00
                 13.01   0.033498726389998
                 1.962    0.23480080117413
                0.4446     0.8136829578829
 s    1 1.00
                 0.122                   1
 p    1 1.00
                 0.727                   1

25 0
 s    8 1.00
                  6665  0.00069158396281299
                  1000  0.0053257961529341
                   228   0.027060721042034
                 64.71    0.10165684614077
                 21.06     0.2745748236174
                 7.495    0.44829431892377
                 2.797    0.28490261071525
                0.5215   0.015194859206082
 s    8 1.00
                  6665  -0.00029326965268655
                  1000  -0.0023180354739745
                   228  -0.011499786038565
                 64.71  -0.046826727009787
                 21.06   -0.12846616875047
                 7.495   -0.30126627246289
                 2.797   -0.25563070233011
                0.5215      1.093793361012
 s    1 1.00
                0.1596                   1
 p    3 1.00
                 9.439   0.056979251590039
                 2.002    0.31320721150073
                0.5456    0.76037674173753
 p    1 1.00
                0.1517                   1
 d    1 1.00
                  0.55                   1

26 0
 s    3 1.00
                 13.01   0.033498726389998
                 1.962    0.23480080117413
                0.4446     0.8136829578829
 s    1 1.00
                 0.122                   1
 p    1 1.00
                 0.727                   1

27 0
 s    3 1.00
                 13.01   0.033498726389998
                 1.962    0.23480080117413
                0.4446     0.8136829578829
 s    1 1.00
                 0.122                   1
 p    1 1.00
                 0.727                   1

28 0
 s    8 1.00
                  6665  0.00069158396281299
                  1000  0.0053257961529341
                   228   0.027060721042034
                 64.71    0.10165684614077
                 21.06     0.2745748236174
                 7.495    0.44829431892377
                 2.797    0.28490261071525
                0.5215   0.015194859206082
 s    8 1.00
                  6665  -0.00029326965268655
                  1000  -0.0023180354739745
                   228  -0.011499786038565
                 64.71  -0.046826727009787
                 21.06   -0.12846616875047
                 7.495   -0.30126627246289
                 2.797   -0.25563070233011
                0.5215      1.093793361012
 s    1 1.00
                0.1596                   1
 p    3 1.00
                 9.439   0.056979251590039
                 2.002    0.31320721150073
                0.5456    0.76037674173753
 p    1 1.00
                0.1517                   1
 d    1 1.00
                  0.55                   1

29 0
 s    3 1.00
                 13.01   0.033498726389998
                 1.962    0.23480080117413
                0.4446     0.8136829578829
 s    1 1.00
                 0.122                   1
 p    1 1.00
                 0.727                   1

30 0
 s    3 1.00
                 13.01   0.033498726389998
                 1.962    0.23480080117413
                0.4446     0.8136829578829
 s    1 1.00
                 0.122                   1
 p    1 1.00
                 0.727                   1

31 0
 s    8 1.00
                  6665  0.00069158396281299
                  1000  0.0053257961529341
                   228   0.027060721042034
                 64.71    0.10165684614077
                 21.06     0.2745748236174
                 7.495    0.44829431892377
                 2.797    0.28490261071525
                0.5215   0.015194859206082
 s    8 1.00
                  6665  -0.00029326965268655
                  1000  -0.0023180354739745
                   228  -0.011499786038565
                 64.71  -0.046826727009787
                 21.06   -0.12846616875047
                 7.495   -0.30126627246289
                 2.797   -0.25563070233011
                0.5215      1.093793361012
 s    1 1.00
                0.1596                   1
 p    3 1.00
                 9.439   0.056979251590039
                 2.002    0.31320721150073
                0.5456    0.76037674173753
 p    1 1.00
                0.1517                   1
 d    1 1.00
                  0.55                   1

32 0
 s    3 1.00
                 13.01   0.033498726389998
                 1.962    0.23480080117413
                0.4446     0.8136829578829
 s    1 1.00
                 0.122                   1
 p    1 1.00
                 0.727                   1

33 0
 s    3 1.00
                 13.01   0.033498726389998
                 1.962    0.23480080117413
                0.4446     0.8136829578829
 s    1 1.00
                 0.122                   1
 p    1 1.00
                 0.727                   1

34 0
 s    3 1.00
                 13.01   0.033498726389998
                 1.962    0.23480080117413
                0.4446     0.8136829578829
 s    1 1.00
                 0.122                   1
 p    1 1.00
                 0.727                   1

35 0
 s    3 1.00
                 13.01   0.033498726389998
                 1.962    0.23480080117413
                0.4446     0.8136829578829
 s    1 1.00
                 0.122                   1
 p    1 1.00
                 0.727                   1

36 0
 s    3 1.00
                 13.01   0.033498726389998
                 1.962    0.23480080117413
                0.4446     0.8136829578829
 s    1 1.00
                 0.122                   1
 p    1 1.00
                 0.727                   1

37 0
 s    3 1.00
                 13.01   0.033498726389998
                 1.962    0.23480080117413
                0.4446     0.8136829578829
 s    1 1.00
                 0.122                   1
 p    1 1.00
                 0.727                   1

[5d]
[7f]
[9g]

[MO]
 Sym= A
 Ene=               0
 Spin= Alpha
 Occup=    1.00000
   1    1.0087574882494e-08
   2    -1.4258818238115e-07
   3    -2.0733655005482e-06
   4    -1.5349796598551e-07
   5    1.8120615479352e-06
   6    -1.8121714080786e-06
   7    -1.5955881317785e-07
   8    1.1226701867297e-06
   9    -9.9941916610535e-07
  10    -1.1161229704481e-07
  11    3.5538162190866e-09
  12    -5.7910264473805e-08
  13    -4.4776803867212e-08
  14    -6.6358085503253e-09
  15    1.1805433104057e-06
  16    -2.4722555414986e-07
  17    -2.2515497491334e-08
  18    1.4263698630716e-07
  19    6.0036702596178e-07
  20    9.9374529279647e-07
  21    8.8290459782952e-07
  22    1.7505326191826e-09
  23    -1.1051903369085e-07
  24    -1.8374850149359e-07
  25    -2.3552243517908e-07
  26    -4.141785279537e-05
  27    5.5961179335485e-06
  28    0.00012034700140129
  29    -4.0341431938584e-05
  30    -6.4288812965176e-05
  31    6.2980278941208e-05
  32    -9.0943672174528e-07
  33    -7.5340425694327e-05
  34    3.1915910403426e-06
  35    -8.0015023769286e-06
  36    3.1922316228341e-06
  37    -2.5566152733321e-06
  38    3.625363517229e-06
  39    2.2159052766237e-05
  40    -3.7371657801359e-05
  41    -0.00042038294315169
  42    0.00016666074859307
  43    -0.00010174324256576
  44    0.00011781951576047
  45    0.00059219648587162
  46    -0.00036782857561926
  47    -3.9136810134816e-05
  48    -1.3061494950778e-05
  49    -2.3846725602264e-05
  50    2.1903347929816e-05
  51    -5.4516666267392e-06
  52    1.4548018757823e-05
  53    2.7650453908306e-05
  54    7.6108909395292e-05
  55    -0.00038262945686229
  56    -6.1557251874371e-05
  57    4.8386662316359e-05
  58    2.8321747251641e-06
  59    7.2869837647623e-05
  60    -0.00011296347500793
  61    -0.00013437089476629
  62    4.5100425966177e-06
  63    3.8922288572447e-06
  64    1.1240546735568e-07
  65    -6.9264995259689e-06
  66    1.1244034454084e-05
  67    -1.1679578434394e-05
  68    9.4560583458843e-05
  69    0.00044780756821611
  70    -0.00025865082348282
  71    0.0001360567993112
  72    8.6863322956244e-05
  73    0.00016061431271721
  74    -8.7334037373473e-05
  75    0.0002454761768751
  76    3.7264637108074e-05
  77    -7.9812910942397e-06
  78    1.7660479940195e-06
  79    -1.4317118509663e-05
  80    2.8907310240958e-05
  81    -4.3084734863843e-05
  82    -7.7763529064424e-05
  83    5.0930815679431e-06
  84    -1.7781810621775e-07
  85    5.5696955153304e-06
  86    -3.5941484232475e-06
  87    8.5770830681842e-06
  88    9.9649687867716e-05
  89    -1.1205285182008e-05
  90    -6.8593709586529e-06
  91    5.4624236008461e-06
  92    5.1891941084265e-05
  93    -4.7860448589978e-05
  94    5.4121752401632e-05
  95    3.7545595554455e-07
  96    -9.6876170922019e-06
  97    3.7452691454346e-06
  98    3.8710788424344e-06
  99    2.2162828329273e-06
 100    1.6981230440544e-05
 101    -1.4526902682035e-05
 102    -9.1789493027097e-06
 103    4.9909650814627e-06
 104    3.4626701864024e-06
 105    5.756688306953e-05
 106    3.788868504759e-05
 107    -2.563022666494e-05
 108    1.7704202796523e-05
 109    -8.8083858549577e-06
 110    5.6360993510075e-05
 111    -1.0108334248219e-05
 112    -2.5312352457457e-05
 113    1.2990421529606e-05
 114    -9.8240607010854e-06
 115    9.0805821444755e-05
 116    -0.00023369139819753
 117    -0.0016329501790748
 118    0.00091745402413568
 119    -0.00063912472499615
 120    0.00061117145745111
 121    0.0011007857797641
 122    -0.00078140323158543
 123    0.00064873550471767
 124    3.5843001708344e-05
 125    -9.8348048639512e-05
 126    7.7652574624447e-05
 127    -1.1035301132012e-05
 128    8.5082448072216e-05
 129    -6.6030554977268e-06
 130    -7.5081828608819e-06
 131    -4.8274809566399e-06
 132    1.6221491878704e-06
 133    -1.8883527964811e-06
 134    5.9049968942632e-06
 135    4.7980588467788e-05
 136    4.8121651735116e-06
 137    -2.1000993188419e-06
 138    4.0139070792763e-06
 139    6.5036092418118e-06
 140    1.2677433225947e-05
 141    -5.9180712912358e-05
 142    -2.0216563129145e-06
 143    4.1537324285136e-06
 144    5.3996854282556e-06
 145    5.0727607511159e-05
 146    1.860382622139e-06
 147    -7.8414042532117e-05
 148    -1.5689517803872e-06
 149    3.6772901835635e-06
 150    -2.6089735080197e-06
 151    -6.2093548136453e-07
 152    2.8520127080036e-06
 153    0.00027661552443652
 154    0.00015937707963151
 155    -5.3611195886862e-06
 156    -2.120666912519e-06
 157    -1.7375883459714e-06
 158    0.00020356449797452
 159    7.6160876053029e-05
 160    1.7560105451095e-06
 161    5.1968534205191e-06
 162    4.2466856970345e-06
 163    8.9464808592664e-05
 164    -0.00011309239402801
 165    4.5469224217912e-05
 166    -0.0009092515261932
 167    0.00044537383865689
 168    -0.0011098093409687
 169     0.000717202928212
 170    -0.0005719666877113
 171    1.6570478047747e-05
 172    6.4012940270079e-06
 173    6.5133088306106e-06
 174    5.4212773028596e-05
 175    -6.4800163091197e-05
 176    0.00012611458172657
 177    5.5361833864564e-06
 178    1.0387036016926e-05
 179    -2.3455360752617e-06
 180    -5.5306063794348e-07
 181    2.0711431415703e-06
 182    5.8639178878053e-07
 183    -3.0606241788404e-06
 184    -2.6773695926945e-05
 185    7.9483705250346e-06
 186    1.5926493088557e-06
 187    8.8857917226218e-06
 188    1.1010231655222e-05
 189    2.0269176526407e-05
 190    -1.2558091712017e-06
 191    7.7842652488379e-07
 192    2.2263499023211e-07
 193    1.1996005353514e-06
 194    7.5714028833485e-07
 195    -1.4885632674495e-06
 196    -7.846246077209e-07
 197    -1.5492725330555e-05
 198    -2.1247019505263e-06
 199    -2.227177907165e-06
 200    2.3659941509593e-06
 201    0.00074260704549239
 202    0.00056216234442232
 203    -7.7740192365289e-05
 204    0.00011812192970486
 205    -1.0286955261107e-05
 206    0.00031035532464615
 207    0.00035703126117936
 208    -0.00012882944841959
 209    3.1493380353102e-05
 210    -5.3636718117201e-05
 211       0.1016248691582
 212    0.00045954407005384
 213    -0.0028407271164783
 214    2.5304611204143e-05
 215    -1.6759886432833e-05
 216    -3.0390457078534e-05
 217    0.0011408798183674
 218    -0.00078065476972658
 219    0.00049681992369756
 220    6.2192112005327e-05
 221    4.9234002966946e-05
 222    -6.03364799848e-05
 223    2.0117751340988e-05
 224    -8.4159854094635e-05
 225    5.0288052318598e-06
 226    -2.5962979278306e-06
 227    3.1584858784857e-07
 228    -9.9954883469492e-07
 229    3.9828258166208e-07
 230    -1.1672434102006e-05
 231    -1.1438513603149e-05
 232    -6.7225084054602e-07
 233    -2.74955061157e-08
 234    -1.7614636136409e-06
 235    0.0012719482783434
 236    8.7579227364414e-06
 237    -1.6283269319155e-05
 238    1.6266397385817e-06
 239    -9.2776515078858e-07
 240    1.9348547019783e-06
 241    7.9612850475504e-06
 242    7.4554687014827e-06
 243    -1.0663545813012e-05
 244    3.446836920424e-07
 245    1.2320065495453e-06
 246    -2.0967733372736e-07
 247    -4.6895511701106e-07
 248    2.6763739583831e-07
 249    0.00012113890076575
 250    8.2747262975235e-05
 251    4.6648930311456e-05
 252    1.6485381816232e-05
 253    7.3211548260376e-05
 254    9.4712339146298e-05
 255    2.5339602610317e-05
 256    -4.227998158976e-06
 257    -6.7398601683688e-05
 258    5.4097543666108e-05
 259     -0.99725979135523
 260    -0.0048558469839667
 261    0.0099219806604677
 262    0.00012767023766649
 263    -0.00010268392054548