[Molden Format]
made by pyscf v[2.0.1]
[Atoms] (AU)
O   1   8     0.00000000000000     0.00000000000000     6.40640788651141
H   2   1     0.00000000000000     0.00000000000000     4.58300606461044
H   3   1    -0.05031916615174     1.78353439551780     6.78227958297808
O   4   8     0.00000000000000     0.00000000000000     2.31533471513237
C   5   6     0.00000000000000     0.00000000000000     0.00000000000000
C   6   6     2.01118073026938    -1.40227222164369    -1.50774939176400
C   7   6    -2.01249334291722     1.41331050329955    -1.50319235519811
H   8   1     3.32037363730244    -2.26721897153159    -0.13599698591495
C   9   6     3.45899267434009     0.28739631745591    -3.37437943254505
H   10   1     1.07662969841332    -2.94725144642667    -2.56541439481080
H   11   1    -2.67503415753480     0.18421555839588    -3.06194479365997
H   12   1    -1.08005520873877     3.03851734677796    -2.43674295017013
C   13   6    -4.21607110578555     2.32938802552922     0.11994192435017
H   14   1     4.24440173074564     1.93368664387684    -2.34976285512790
H   15   1     2.18907033049676     1.04714335134846    -4.81494497423699
C   16   6     5.60746363007797    -1.12419643481196    -4.70268606082550
H   17   1    -3.46838323670267     3.50951302338067     1.66946842715333
H   18   1    -5.11873485366228     0.68575958301209     1.04047743976495
C   19   6    -6.18314754751344     3.80909592987882    -1.39656589068747
H   20   1     6.93011263717176    -1.87550812453645    -3.26656317360070
C   21   6     7.10306991577580     0.52877932406334    -6.57829775293605
H   22   1     4.82318879258361    -2.78573437948532    -5.70504560381835
H   23   1    -6.91582688743803     2.61304780074712    -2.95074552451969
H   24   1    -5.26532430573853     5.45420349051338    -2.31005832200284
C   25   6    -8.39941882261433     4.73263980500213     0.21800571437956
H   26   1     7.83338371486801     2.19084139882824    -5.57093109900697
H   27   1     5.73544244039420     1.27376866537418    -8.01071492370229
C   28   6     9.21124858443101    -0.89699110072176    -7.88926949186242
H   29   1    -7.66272760055236     5.92277078003992     1.77035591474408
H   30   1    -9.31497248082589     3.08753015622020     1.12614408368786
C   31   6   -10.35481709231879     6.21833079391143    -1.30905206253246
H   32   1    10.58815905329501    -1.61099162890610    -6.52093739071026
H   33   1    10.23506248045667     0.32468009384095    -9.23072870921204
H   34   1     8.47665842847139    -2.53598436989925    -8.94921964622535
H   35   1    -9.48948872868064     7.90013588951020    -2.18823918416067
H   36   1   -11.93332774482359     6.86460487874102    -0.11255798845995
H   37   1   -11.15126291841033     5.04495968327630    -2.83849898862534
[GTO]
1 0
 s    8 1.00
                 11720  0.00070964594651845
                  1759  0.0054672722921914
                 400.8   0.027823118610189
                 113.7    0.10474773971146
                 37.03    0.28292084635691
                 13.27    0.44849523869833
                 5.025    0.27081688521277
                 1.013    0.01545029160744
 s    8 1.00
                 11720  -0.00031444341168873
                  1759  -0.0024821376810179
                 400.8  -0.012316355381583
                 113.7  -0.050538917343672
                 37.03   -0.13938490331632
                 13.27   -0.32507749481778
                 5.025   -0.22984830758785
                 1.013     1.0953793467883
 s    1 1.00
                0.3023                   1
 p    3 1.00
                  17.7   0.062679166281506
                 3.854    0.33353656587936
                 1.046    0.74123964163973
 p    1 1.00
                0.2753                   1
 d    1 1.00
                 1.185                   1

2 0
 s    3 1.00
                 13.01   0.033498726389998
                 1.962    0.23480080117413
                0.4446     0.8136829578829
 s    1 1.00
                 0.122                   1
 p    1 1.00
                 0.727                   1

3 0
 s    3 1.00
                 13.01   0.033498726389998
                 1.962    0.23480080117413
                0.4446     0.8136829578829
 s    1 1.00
                 0.122                   1
 p    1 1.00
                 0.727                   1

4 0
 s    8 1.00
                 11720  0.00070964594651845
                  1759  0.0054672722921914
                 400.8   0.027823118610189
                 113.7    0.10474773971146
                 37.03    0.28292084635691
                 13.27    0.44849523869833
                 5.025    0.27081688521277
                 1.013    0.01545029160744
 s    8 1.00
                 11720  -0.00031444341168873
                  1759  -0.0024821376810179
                 400.8  -0.012316355381583
                 113.7  -0.050538917343672
                 37.03   -0.13938490331632
                 13.27   -0.32507749481778
                 5.025   -0.22984830758785
                 1.013     1.0953793467883
 s    1 1.00
                0.3023                   1
 p    3 1.00
                  17.7   0.062679166281506
                 3.854    0.33353656587936
                 1.046    0.74123964163973
 p    1 1.00
                0.2753                   1
 d    1 1.00
                 1.185                   1

5 0
 s    8 1.00
                  6665  0.00069158396281299
                  1000  0.0053257961529341
                   228   0.027060721042034
                 64.71    0.10165684614077
                 21.06     0.2745748236174
                 7.495    0.44829431892377
                 2.797    0.28490261071525
                0.5215   0.015194859206082
 s    8 1.00
                  6665  -0.00029326965268655
                  1000  -0.0023180354739745
                   228  -0.011499786038565
                 64.71  -0.046826727009787
                 21.06   -0.12846616875047
                 7.495   -0.30126627246289
                 2.797   -0.25563070233011
                0.5215      1.093793361012
 s    1 1.00
                0.1596                   1
 p    3 1.00
                 9.439   0.056979251590039
                 2.002    0.31320721150073
                0.5456    0.76037674173753
 p    1 1.00
                0.1517                   1
 d    1 1.00
                  0.55                   1

6 0
 s    8 1.00
                  6665  0.00069158396281299
                  1000  0.0053257961529341
                   228   0.027060721042034
                 64.71    0.10165684614077
                 21.06     0.2745748236174
                 7.495    0.44829431892377
                 2.797    0.28490261071525
                0.5215   0.015194859206082
 s    8 1.00
                  6665  -0.00029326965268655
                  1000  -0.0023180354739745
                   228  -0.011499786038565
                 64.71  -0.046826727009787
                 21.06   -0.12846616875047
                 7.495   -0.30126627246289
                 2.797   -0.25563070233011
                0.5215      1.093793361012
 s    1 1.00
                0.1596                   1
 p    3 1.00
                 9.439   0.056979251590039
                 2.002    0.31320721150073
                0.5456    0.76037674173753
 p    1 1.00
                0.1517                   1
 d    1 1.00
                  0.55                   1

7 0
 s    8 1.00
                  6665  0.00069158396281299
                  1000  0.0053257961529341
                   228   0.027060721042034
                 64.71    0.10165684614077
                 21.06     0.2745748236174
                 7.495    0.44829431892377
                 2.797    0.28490261071525
                0.5215   0.015194859206082
 s    8 1.00
                  6665  -0.00029326965268655
                  1000  -0.0023180354739745
                   228  -0.011499786038565
                 64.71  -0.046826727009787
                 21.06   -0.12846616875047
                 7.495   -0.30126627246289
                 2.797   -0.25563070233011
                0.5215      1.093793361012
 s    1 1.00
                0.1596                   1
 p    3 1.00
                 9.439   0.056979251590039
                 2.002    0.31320721150073
                0.5456    0.76037674173753
 p    1 1.00
                0.1517                   1
 d    1 1.00
                  0.55                   1

8 0
 s    3 1.00
                 13.01   0.033498726389998
                 1.962    0.23480080117413
                0.4446     0.8136829578829
 s    1 1.00
                 0.122                   1
 p    1 1.00
                 0.727                   1

9 0
 s    8 1.00
                  6665  0.00069158396281299
                  1000  0.0053257961529341
                   228   0.027060721042034
                 64.71    0.10165684614077
                 21.06     0.2745748236174
                 7.495    0.44829431892377
                 2.797    0.28490261071525
                0.5215   0.015194859206082
 s    8 1.00
                  6665  -0.00029326965268655
                  1000  -0.0023180354739745
                   228  -0.011499786038565
                 64.71  -0.046826727009787
                 21.06   -0.12846616875047
                 7.495   -0.30126627246289
                 2.797   -0.25563070233011
                0.5215      1.093793361012
 s    1 1.00
                0.1596                   1
 p    3 1.00
                 9.439   0.056979251590039
                 2.002    0.31320721150073
                0.5456    0.76037674173753
 p    1 1.00
                0.1517                   1
 d    1 1.00
                  0.55                   1

10 0
 s    3 1.00
                 13.01   0.033498726389998
                 1.962    0.23480080117413
                0.4446     0.8136829578829
 s    1 1.00
                 0.122                   1
 p    1 1.00
                 0.727                   1

11 0
 s    3 1.00
                 13.01   0.033498726389998
                 1.962    0.23480080117413
                0.4446     0.8136829578829
 s    1 1.00
                 0.122                   1
 p    1 1.00
                 0.727                   1

12 0
 s    3 1.00
                 13.01   0.033498726389998
                 1.962    0.23480080117413
                0.4446     0.8136829578829
 s    1 1.00
                 0.122                   1
 p    1 1.00
                 0.727                   1

13 0
 s    8 1.00
                  6665  0.00069158396281299
                  1000  0.0053257961529341
                   228   0.027060721042034
                 64.71    0.10165684614077
                 21.06     0.2745748236174
                 7.495    0.44829431892377
                 2.797    0.28490261071525
                0.5215   0.015194859206082
 s    8 1.00
                  6665  -0.00029326965268655
                  1000  -0.0023180354739745
                   228  -0.011499786038565
                 64.71  -0.046826727009787
                 21.06   -0.12846616875047
                 7.495   -0.30126627246289
                 2.797   -0.25563070233011
                0.5215      1.093793361012
 s    1 1.00
                0.1596                   1
 p    3 1.00
                 9.439   0.056979251590039
                 2.002    0.31320721150073
                0.5456    0.76037674173753
 p    1 1.00
                0.1517                   1
 d    1 1.00
                  0.55                   1

14 0
 s    3 1.00
                 13.01   0.033498726389998
                 1.962    0.23480080117413
                0.4446     0.8136829578829
 s    1 1.00
                 0.122                   1
 p    1 1.00
                 0.727                   1

15 0
 s    3 1.00
                 13.01   0.033498726389998
                 1.962    0.23480080117413
                0.4446     0.8136829578829
 s    1 1.00
                 0.122                   1
 p    1 1.00
                 0.727                   1

16 0
 s    8 1.00
                  6665  0.00069158396281299
                  1000  0.0053257961529341
                   228   0.027060721042034
                 64.71    0.10165684614077
                 21.06     0.2745748236174
                 7.495    0.44829431892377
                 2.797    0.28490261071525
                0.5215   0.015194859206082
 s    8 1.00
                  6665  -0.00029326965268655
                  1000  -0.0023180354739745
                   228  -0.011499786038565
                 64.71  -0.046826727009787
                 21.06   -0.12846616875047
                 7.495   -0.30126627246289
                 2.797   -0.25563070233011
                0.5215      1.093793361012
 s    1 1.00
                0.1596                   1
 p    3 1.00
                 9.439   0.056979251590039
                 2.002    0.31320721150073
                0.5456    0.76037674173753
 p    1 1.00
                0.1517                   1
 d    1 1.00
                  0.55                   1

17 0
 s    3 1.00
                 13.01   0.033498726389998
                 1.962    0.23480080117413
                0.4446     0.8136829578829
 s    1 1.00
                 0.122                   1
 p    1 1.00
                 0.727                   1

18 0
 s    3 1.00
                 13.01   0.033498726389998
                 1.962    0.23480080117413
                0.4446     0.8136829578829
 s    1 1.00
                 0.122                   1
 p    1 1.00
                 0.727                   1

19 0
 s    8 1.00
                  6665  0.00069158396281299
                  1000  0.0053257961529341
                   228   0.027060721042034
                 64.71    0.10165684614077
                 21.06     0.2745748236174
                 7.495    0.44829431892377
                 2.797    0.28490261071525
                0.5215   0.015194859206082
 s    8 1.00
                  6665  -0.00029326965268655
                  1000  -0.0023180354739745
                   228  -0.011499786038565
                 64.71  -0.046826727009787
                 21.06   -0.12846616875047
                 7.495   -0.30126627246289
                 2.797   -0.25563070233011
                0.5215      1.093793361012
 s    1 1.00
                0.1596                   1
 p    3 1.00
                 9.439   0.056979251590039
                 2.002    0.31320721150073
                0.5456    0.76037674173753
 p    1 1.00
                0.1517                   1
 d    1 1.00
                  0.55                   1

20 0
 s    3 1.00
                 13.01   0.033498726389998
                 1.962    0.23480080117413
                0.4446     0.8136829578829
 s    1 1.00
                 0.122                   1
 p    1 1.00
                 0.727                   1

21 0
 s    8 1.00
                  6665  0.00069158396281299
                  1000  0.0053257961529341
                   228   0.027060721042034
                 64.71    0.10165684614077
                 21.06     0.2745748236174
                 7.495    0.44829431892377
                 2.797    0.28490261071525
                0.5215   0.015194859206082
 s    8 1.00
                  6665  -0.00029326965268655
                  1000  -0.0023180354739745
                   228  -0.011499786038565
                 64.71  -0.046826727009787
                 21.06   -0.12846616875047
                 7.495   -0.30126627246289
                 2.797   -0.25563070233011
                0.5215      1.093793361012
 s    1 1.00
                0.1596                   1
 p    3 1.00
                 9.439   0.056979251590039
                 2.002    0.31320721150073
                0.5456    0.76037674173753
 p    1 1.00
                0.1517                   1
 d    1 1.00
                  0.55                   1

22 0
 s    3 1.00
                 13.01   0.033498726389998
                 1.962    0.23480080117413
                0.4446     0.8136829578829
 s    1 1.00
                 0.122                   1
 p    1 1.00
                 0.727                   1

23 0
 s    3 1.00
                 13.01   0.033498726389998
                 1.962    0.23480080117413
                0.4446     0.8136829578829
 s    1 1.00
                 0.122                   1
 p    1 1.00
                 0.727                   1

24 0
 s    3 1.00
                 13.01   0.033498726389998
                 1.962    0.23480080117413
                0.4446     0.8136829578829
 s    1 1.00
                 0.122                   1
 p    1 1.00
                 0.727                   1

25 0
 s    8 1.00
                  6665  0.00069158396281299
                  1000  0.0053257961529341
                   228   0.027060721042034
                 64.71    0.10165684614077
                 21.06     0.2745748236174
                 7.495    0.44829431892377
                 2.797    0.28490261071525
                0.5215   0.015194859206082
 s    8 1.00
                  6665  -0.00029326965268655
                  1000  -0.0023180354739745
                   228  -0.011499786038565
                 64.71  -0.046826727009787
                 21.06   -0.12846616875047
                 7.495   -0.30126627246289
                 2.797   -0.25563070233011
                0.5215      1.093793361012
 s    1 1.00
                0.1596                   1
 p    3 1.00
                 9.439   0.056979251590039
                 2.002    0.31320721150073
                0.5456    0.76037674173753
 p    1 1.00
                0.1517                   1
 d    1 1.00
                  0.55                   1

26 0
 s    3 1.00
                 13.01   0.033498726389998
                 1.962    0.23480080117413
                0.4446     0.8136829578829
 s    1 1.00
                 0.122                   1
 p    1 1.00
                 0.727                   1

27 0
 s    3 1.00
                 13.01   0.033498726389998
                 1.962    0.23480080117413
                0.4446     0.8136829578829
 s    1 1.00
                 0.122                   1
 p    1 1.00
                 0.727                   1

28 0
 s    8 1.00
                  6665  0.00069158396281299
                  1000  0.0053257961529341
                   228   0.027060721042034
                 64.71    0.10165684614077
                 21.06     0.2745748236174
                 7.495    0.44829431892377
                 2.797    0.28490261071525
                0.5215   0.015194859206082
 s    8 1.00
                  6665  -0.00029326965268655
                  1000  -0.0023180354739745
                   228  -0.011499786038565
                 64.71  -0.046826727009787
                 21.06   -0.12846616875047
                 7.495   -0.30126627246289
                 2.797   -0.25563070233011
                0.5215      1.093793361012
 s    1 1.00
                0.1596                   1
 p    3 1.00
                 9.439   0.056979251590039
                 2.002    0.31320721150073
                0.5456    0.76037674173753
 p    1 1.00
                0.1517                   1
 d    1 1.00
                  0.55                   1

29 0
 s    3 1.00
                 13.01   0.033498726389998
                 1.962    0.23480080117413
                0.4446     0.8136829578829
 s    1 1.00
                 0.122                   1
 p    1 1.00
                 0.727                   1

30 0
 s    3 1.00
                 13.01   0.033498726389998
                 1.962    0.23480080117413
                0.4446     0.8136829578829
 s    1 1.00
                 0.122                   1
 p    1 1.00
                 0.727                   1

31 0
 s    8 1.00
                  6665  0.00069158396281299
                  1000  0.0053257961529341
                   228   0.027060721042034
                 64.71    0.10165684614077
                 21.06     0.2745748236174
                 7.495    0.44829431892377
                 2.797    0.28490261071525
                0.5215   0.015194859206082
 s    8 1.00
                  6665  -0.00029326965268655
                  1000  -0.0023180354739745
                   228  -0.011499786038565
                 64.71  -0.046826727009787
                 21.06   -0.12846616875047
                 7.495   -0.30126627246289
                 2.797   -0.25563070233011
                0.5215      1.093793361012
 s    1 1.00
                0.1596                   1
 p    3 1.00
                 9.439   0.056979251590039
                 2.002    0.31320721150073
                0.5456    0.76037674173753
 p    1 1.00
                0.1517                   1
 d    1 1.00
                  0.55                   1

32 0
 s    3 1.00
                 13.01   0.033498726389998
                 1.962    0.23480080117413
                0.4446     0.8136829578829
 s    1 1.00
                 0.122                   1
 p    1 1.00
                 0.727                   1

33 0
 s    3 1.00
                 13.01   0.033498726389998
                 1.962    0.23480080117413
                0.4446     0.8136829578829
 s    1 1.00
                 0.122                   1
 p    1 1.00
                 0.727                   1

34 0
 s    3 1.00
                 13.01   0.033498726389998
                 1.962    0.23480080117413
                0.4446     0.8136829578829
 s    1 1.00
                 0.122                   1
 p    1 1.00
                 0.727                   1

35 0
 s    3 1.00
                 13.01   0.033498726389998
                 1.962    0.23480080117413
                0.4446     0.8136829578829
 s    1 1.00
                 0.122                   1
 p    1 1.00
                 0.727                   1

36 0
 s    3 1.00
                 13.01   0.033498726389998
                 1.962    0.23480080117413
                0.4446     0.8136829578829
 s    1 1.00
                 0.122                   1
 p    1 1.00
                 0.727                   1

37 0
 s    3 1.00
                 13.01   0.033498726389998
                 1.962    0.23480080117413
                0.4446     0.8136829578829
 s    1 1.00
                 0.122                   1
 p    1 1.00
                 0.727                   1

[5d]
[7f]
[9g]

[MO]
 Sym= A
 Ene=               0
 Spin= Alpha
 Occup=    1.00000
   1    -4.2724424861518e-06
   2    -8.2691325303247e-06
   3    5.3821866938165e-05
   4    5.1860183144111e-05
   5    -1.6760683372576e-05
   6    3.2733612606264e-06
   7    4.4128436524345e-05
   8    -1.7266002583141e-05
   9    -2.4110833309344e-05
  10    3.1562285024916e-06
  11    -8.319194849627e-07
  12    -1.9936323256387e-07
  13    7.896903616369e-07
  14    1.2239729055754e-06
  15    -2.0072710157874e-05
  16    -5.6783059934886e-05
  17    3.507257494655e-06
  18    -2.2118405869137e-06
  19    -8.694196540472e-06
  20    -1.5257568243756e-05
  21    1.187443575756e-05
  22    2.186271396238e-06
  23    1.1554643146229e-06
  24    9.1875114380002e-07
  25    1.6032569564667e-06
  26    -3.3675342985787e-05
  27    -8.1955593092837e-06
  28    0.00011410072798264
  29    -3.8423405489184e-05
  30    -5.8468899675255e-05
  31    5.9380377917436e-05
  32    1.0009730692751e-06
  33    -5.1940005410528e-05
  34    -2.6669733159804e-06
  35    -6.6994309024341e-06
  36    3.0588938985779e-06
  37    -2.4476868550759e-06
  38    3.5528580579312e-06
  39    2.3841244675836e-05
  40    -3.699112714756e-05
  41    -0.00043397402658493
  42    0.00016437347549336
  43    -0.00010483130003742
  44    0.00011167977422278
  45    0.00058821295178166
  46    -0.000371481456577
  47    2.1452687099705e-05
  48    -8.4432244429408e-06
  49    -2.4879548874314e-05
  50    2.2030312513043e-05
  51    -5.7613726143562e-06
  52    1.5460985148671e-05
  53    2.7327018623155e-05
  54    7.5959231440825e-05
  55    -0.00036127330937366
  56    -6.3393957944345e-05
  57    4.9903686583107e-05
  58    1.7133584564993e-06
  59    5.5039321735127e-05
  60    -0.00010082016392477
  61    -0.00015146016285094
  62    3.0965932984371e-06
  63    2.9495241866121e-06
  64    3.8368771964151e-07
  65    -6.5469447499967e-06
  66    1.0913193744027e-05
  67    -1.1763276836313e-05
  68    9.4204053094976e-05
  69    0.00046765406687856
  70    -0.00025083521713865
  71    0.00013373963454481
  72    8.6064951775714e-05
  73    0.00018886612062434
  74    -0.00010466167616402
  75    0.00024046380874764
  76    3.5889756656536e-05
  77    -6.7750488900833e-06
  78    1.1167822992446e-06
  79    -1.4483574312522e-05
  80    2.813588457034e-05
  81    -4.2704712075861e-05
  82    -6.4140210050098e-05
  83    5.279501558346e-06
  84    -3.1618276018857e-07
  85    4.5535813118429e-06
  86    -3.5011212907842e-06
  87    8.8374884857084e-06
  88    8.8049647413455e-05
  89    -1.0801331012241e-05
  90    -7.5811269886247e-06
  91    6.4106647562509e-06
  92    5.3835067121192e-05
  93    -3.6492656555839e-05
  94    6.1090314331275e-05
  95    5.1668976228257e-07
  96    -9.5212148590578e-06
  97    3.9576322606327e-06
  98    3.9562417557431e-06
  99    1.7725744288282e-06
 100    1.5382026377953e-05
 101    -1.8383989313956e-05
 102    -9.339144243682e-06
 103    4.6363798728611e-06
 104    4.4727727889468e-06
 105    5.6145854744746e-05
 106    3.4394291525526e-05
 107    -2.6069993105517e-05
 108    1.7630430068114e-05
 109    -8.287441586684e-06
 110    5.8531214143746e-05
 111    -1.0007049674954e-05
 112    -2.5491235596069e-05
 113    1.3151509371375e-05
 114    -9.1051485759765e-06
 115    9.0634059691389e-05
 116    -0.00023254339906742
 117    -0.0016414979874104
 118    0.0009019510219288
 119    -0.00062929001482347
 120    0.00060234037985422
 121    0.0011048110091561
 122    -0.00078450110641516
 123    0.00065015649609651
 124    3.5007534060115e-05
 125    -9.7636756408027e-05
 126    7.7492102556529e-05
 127    -9.804063742796e-06
 128    8.3942983836226e-05
 129    -7.3741616533854e-06
 130    -1.2689181679801e-05
 131    -4.6547860621335e-06
 132    1.6538369139503e-06
 133    -1.8437333011387e-06
 134    5.9962508020855e-06
 135    4.583122724007e-05
 136    4.7434433152167e-06
 137    -2.4078139548298e-06
 138    3.096829197823e-06
 139    5.8047611175917e-06
 140    1.0879871597162e-05
 141    -4.9925696400311e-05
 142    -2.190865015034e-06
 143    3.3676265053663e-06
 144    6.8567137932487e-06
 145    4.2874592396694e-05
 146    1.6416687903802e-06
 147    -7.5761114060045e-05
 148    -1.6084151352943e-06
 149    3.6011541345647e-06
 150    -2.7250920220669e-06
 151    -2.5942797157434e-07
 152    2.6073322081639e-06
 153    0.00027019437816797
 154    0.00015985999481981
 155    -5.4245106231933e-06
 156    -2.0804651754828e-06
 157    -2.1606781608653e-06
 158    0.00019645900256441
 159    7.1009899317755e-05
 160    1.0481674276429e-06
 161    5.5645387644184e-06
 162    3.629374979642e-06
 163    9.0158827166289e-05
 164    -0.00012309735515149
 165    5.9270401377855e-05
 166    -0.00088393822285813
 167    0.00041887391594959
 168    -0.0010992081626146
 169    0.0007469354193444
 170    -0.00059800166966953
 171    2.5499192129503e-05
 172    6.6507504576752e-06
 173    9.6661075312683e-06
 174    5.293646759266e-05
 175    -6.5810826992202e-05
 176    0.0001261308431832
 177    6.2912819510039e-06
 178    1.150752608816e-05
 179    -2.1422695279926e-06
 180    -4.7827936661404e-07
 181    2.0008236993575e-06
 182    7.1454254632586e-07
 183    -1.2329623013271e-06
 184    -2.694209731953e-05
 185    7.2703404233827e-06
 186    3.5380167721779e-06
 187    6.3932954196407e-06
 188    1.2063503744306e-05
 189    2.0687453355666e-05
 190    -6.5821221337004e-07
 191    9.2430527318239e-07
 192    4.8315495856931e-07
 193    1.1232426918496e-06
 194    6.4672898752483e-07
 195    -1.6233130790929e-06
 196    -1.6968784771324e-06
 197    -1.6436033369731e-05
 198    -1.9603444387579e-06
 199    -2.2473703760653e-06
 200    2.335292696566e-06
 201    0.00073586209842268
 202    0.00055947099807981
 203    -7.785959929249e-05
 204    0.00011719652621495
 205    -1.065986894943e-05
 206    0.00029261267444951
 207    0.00035168846816017
 208    -0.00012801250743943
 209    3.277032830153e-05
 210    -5.4103644092253e-05
 211      0.10220644460906
 212    0.00044163554702308
 213    -0.0028467944933217
 214    1.4004742817066e-05
 215    -1.4208034414802e-05
 216    -2.0270003601559e-05
 217    0.0011349840154191
 218    -0.00077641322884878
 219    0.00050076656120468
 220    6.0879697414026e-05
 221    5.2128639439414e-05
 222    -6.1607534425375e-05
 223    2.0198513629984e-05
 224    -8.5888741546101e-05
 225    5.7245808068025e-06
 226    -2.7454694437105e-06
 227    1.8114432363572e-07
 228    -9.6979784254835e-07
 229    2.337747825492e-07
 230    -8.0767700000504e-06
 231    -8.5502310554066e-06
 232    -4.3437553907438e-07
 233    -1.0929704903156e-07
 234    -1.5107440124902e-06
 235    0.0012259548166439
 236    8.4121983727615e-06
 237    -1.4900612008583e-05
 238    1.4254899673392e-06
 239    -5.2350304873771e-07
 240    1.6470860684385e-06
 241    6.5281227786053e-06
 242    6.7811675379928e-06
 243    -1.0075245735214e-05
 244    2.0663710451218e-07
 245    1.2213156619149e-06
 246    -2.3607025241188e-07
 247    -3.5359428096025e-07
 248    7.8457379469277e-08
 249    0.00011684542689173
 250    8.0043528817537e-05
 251    4.6614089664325e-05
 252     1.68120811142e-05
 253    7.3976656307013e-05
 254    9.2024428675092e-05
 255    2.5365538668638e-05
 256    -4.5664502066473e-06
 257    -6.7541155516536e-05
 258    5.4521555765466e-05
 259     -0.99720049285102
 260    -0.0048584490079632
 261    0.0099245737888649
 262    0.00011680003742122
 263    -9.6587589155924e-05