[Molden Format]
made by pyscf v[2.0.1]
[Atoms] (AU)
C   1   6     0.69100024066471     0.64692934207205    -3.48223131169301
H   2   1     2.68052439830868     1.13355088658700    -3.25784032593313
C   3   6    -0.36286361513219     0.85440132524594    -5.97030179418974
H   4   1    -2.35448549047279     0.36322488579172    -6.17995817793143
C   5   6     0.93697958957450     1.61209284601821    -8.05828437677121
H   6   1     0.91018176739439     3.60165715372829    -8.58918788754706
C   7   6     2.36275315943078    -0.07897264779665    -9.62791837868890
H   8   1     2.37293254336653    -2.06644965927173    -9.07154285055885
H   9   1     1.55630230933075    -1.92953025305990    12.99630010416247
C   10   6     0.75233899775814    -2.21270439606481    11.10705728102219
H   11   1    -0.43433408177274    -3.90944857546550    11.22216085340412
C   12   6     2.86362581178706    -2.63237380607947     9.17926416456045
H   13   1     4.39038949912609    -1.24955421540245     9.49899813497433
H   14   1     3.74629220191363    -4.48798724300892     9.47414880959024
C   15   6     2.02478325613682    -2.42177285709634     6.44560829588644
C   16   6     3.88048732735477    -3.58795445234514     4.61402886975252
C   17   6    -0.18412382258602    -1.30464291234259     5.76021113872346
C   18   6    -2.10044360464350    -0.26837831858460     7.71610340967100
C   19   6    -3.08956938670431     2.35282328359417     6.88693925039594
C   20   6    -4.37372924086464    -2.09766595989678     7.93610724222001
C   21   6    -0.83850430601230     0.06372213486173    10.33002307638377
H   22   1     0.38411922151109     1.74281358582432    10.27380136542181
H   23   1    -2.30980003007874     0.45460143924521    11.73986301809809
H   24   1     4.58527064644668    -5.38706904487420     5.36778158031719
H   25   1     5.54944938085014    -2.37631462192748     4.35398898413318
H   26   1     3.06633019150423    -3.94118377050688     2.75255466040884
H   27   1    -4.17727778763735     2.26573369139522     5.12914900961283
H   28   1    -1.52662344944051     3.68001877445626     6.59540397144508
H   29   1    -4.32916174397830     3.13643051467482     8.35225460090378
H   30   1    -5.32329548508442    -2.36691813602939     6.11583672749896
H   31   1    -5.77989366602257    -1.33896741843465     9.25748940450990
H   32   1    -3.79310905208926    -3.96389819310853     8.61386170102686
C   33   6    -1.01100794811226    -1.06331657314144     3.11929490449947
C   34   6     0.37686231036534    -0.33275864505552     1.09165013605873
H   35   1    -3.01671213906703    -1.40297922279997     2.77827895090944
C   36   6    -0.64382707979370    -0.11591880174385    -1.42063131251064
H   37   1     2.35569259782137     0.17174499283897     1.33641070251401
H   38   1    -2.63317482980319    -0.60229203511219    -1.66119700387645
C   39   6     3.68212070775393     0.58885978377309   -11.72315169981470
C   40   6     5.07620914500435    -1.27889558400184   -13.19794995736473
H   41   1     3.74999971153331     2.53578027550937   -12.38092170581109
O   42   8     6.29809885748056    -0.81150016580158   -15.09777920785750
H   43   1     4.95468191731404    -3.24735743289555   -12.45594726186437
[GTO]
1 0
 s    6 1.00
             3047.5249  0.0018347001629433
             457.36951    0.01403730124668
             103.94869   0.068842606114048
             29.210155    0.23218442062076
              9.286663    0.46794134155879
              3.163927    0.36231203217765
 s    3 1.00
             7.8682724   -0.11933240861517
             1.8812885   -0.16085421161283
             0.5442493     1.1434564825515
 s    1 1.00
             0.1687144                   1
 p    3 1.00
             7.8682724   0.068999095584993
             1.8812885    0.31642397975315
             0.5442493    0.74430825237435
 p    1 1.00
             0.1687144                   1
 d    1 1.00
                   0.8                   1

2 0
 s    3 1.00
             18.731137    0.03349459952309
             2.8253937    0.23472694665786
             0.6401217    0.81375731841339
 s    1 1.00
             0.1612778                   1

3 0
 s    6 1.00
             3047.5249  0.0018347001629433
             457.36951    0.01403730124668
             103.94869   0.068842606114048
             29.210155    0.23218442062076
              9.286663    0.46794134155879
              3.163927    0.36231203217765
 s    3 1.00
             7.8682724   -0.11933240861517
             1.8812885   -0.16085421161283
             0.5442493     1.1434564825515
 s    1 1.00
             0.1687144                   1
 p    3 1.00
             7.8682724   0.068999095584993
             1.8812885    0.31642397975315
             0.5442493    0.74430825237435
 p    1 1.00
             0.1687144                   1
 d    1 1.00
                   0.8                   1

4 0
 s    3 1.00
             18.731137    0.03349459952309
             2.8253937    0.23472694665786
             0.6401217    0.81375731841339
 s    1 1.00
             0.1612778                   1

5 0
 s    6 1.00
             3047.5249  0.0018347001629433
             457.36951    0.01403730124668
             103.94869   0.068842606114048
             29.210155    0.23218442062076
              9.286663    0.46794134155879
              3.163927    0.36231203217765
 s    3 1.00
             7.8682724   -0.11933240861517
             1.8812885   -0.16085421161283
             0.5442493     1.1434564825515
 s    1 1.00
             0.1687144                   1
 p    3 1.00
             7.8682724   0.068999095584993
             1.8812885    0.31642397975315
             0.5442493    0.74430825237435
 p    1 1.00
             0.1687144                   1
 d    1 1.00
                   0.8                   1

6 0
 s    3 1.00
             18.731137    0.03349459952309
             2.8253937    0.23472694665786
             0.6401217    0.81375731841339
 s    1 1.00
             0.1612778                   1

7 0
 s    6 1.00
             3047.5249  0.0018347001629433
             457.36951    0.01403730124668
             103.94869   0.068842606114048
             29.210155    0.23218442062076
              9.286663    0.46794134155879
              3.163927    0.36231203217765
 s    3 1.00
             7.8682724   -0.11933240861517
             1.8812885   -0.16085421161283
             0.5442493     1.1434564825515
 s    1 1.00
             0.1687144                   1
 p    3 1.00
             7.8682724   0.068999095584993
             1.8812885    0.31642397975315
             0.5442493    0.74430825237435
 p    1 1.00
             0.1687144                   1
 d    1 1.00
                   0.8                   1

8 0
 s    3 1.00
             18.731137    0.03349459952309
             2.8253937    0.23472694665786
             0.6401217    0.81375731841339
 s    1 1.00
             0.1612778                   1

9 0
 s    3 1.00
             18.731137    0.03349459952309
             2.8253937    0.23472694665786
             0.6401217    0.81375731841339
 s    1 1.00
             0.1612778                   1

10 0
 s    6 1.00
             3047.5249  0.0018347001629433
             457.36951    0.01403730124668
             103.94869   0.068842606114048
             29.210155    0.23218442062076
              9.286663    0.46794134155879
              3.163927    0.36231203217765
 s    3 1.00
             7.8682724   -0.11933240861517
             1.8812885   -0.16085421161283
             0.5442493     1.1434564825515
 s    1 1.00
             0.1687144                   1
 p    3 1.00
             7.8682724   0.068999095584993
             1.8812885    0.31642397975315
             0.5442493    0.74430825237435
 p    1 1.00
             0.1687144                   1
 d    1 1.00
                   0.8                   1

11 0
 s    3 1.00
             18.731137    0.03349459952309
             2.8253937    0.23472694665786
             0.6401217    0.81375731841339
 s    1 1.00
             0.1612778                   1

12 0
 s    6 1.00
             3047.5249  0.0018347001629433
             457.36951    0.01403730124668
             103.94869   0.068842606114048
             29.210155    0.23218442062076
              9.286663    0.46794134155879
              3.163927    0.36231203217765
 s    3 1.00
             7.8682724   -0.11933240861517
             1.8812885   -0.16085421161283
             0.5442493     1.1434564825515
 s    1 1.00
             0.1687144                   1
 p    3 1.00
             7.8682724   0.068999095584993
             1.8812885    0.31642397975315
             0.5442493    0.74430825237435
 p    1 1.00
             0.1687144                   1
 d    1 1.00
                   0.8                   1

13 0
 s    3 1.00
             18.731137    0.03349459952309
             2.8253937    0.23472694665786
             0.6401217    0.81375731841339
 s    1 1.00
             0.1612778                   1

14 0
 s    3 1.00
             18.731137    0.03349459952309
             2.8253937    0.23472694665786
             0.6401217    0.81375731841339
 s    1 1.00
             0.1612778                   1

15 0
 s    6 1.00
             3047.5249  0.0018347001629433
             457.36951    0.01403730124668
             103.94869   0.068842606114048
             29.210155    0.23218442062076
              9.286663    0.46794134155879
              3.163927    0.36231203217765
 s    3 1.00
             7.8682724   -0.11933240861517
             1.8812885   -0.16085421161283
             0.5442493     1.1434564825515
 s    1 1.00
             0.1687144                   1
 p    3 1.00
             7.8682724   0.068999095584993
             1.8812885    0.31642397975315
             0.5442493    0.74430825237435
 p    1 1.00
             0.1687144                   1
 d    1 1.00
                   0.8                   1

16 0
 s    6 1.00
             3047.5249  0.0018347001629433
             457.36951    0.01403730124668
             103.94869   0.068842606114048
             29.210155    0.23218442062076
              9.286663    0.46794134155879
              3.163927    0.36231203217765
 s    3 1.00
             7.8682724   -0.11933240861517
             1.8812885   -0.16085421161283
             0.5442493     1.1434564825515
 s    1 1.00
             0.1687144                   1
 p    3 1.00
             7.8682724   0.068999095584993
             1.8812885    0.31642397975315
             0.5442493    0.74430825237435
 p    1 1.00
             0.1687144                   1
 d    1 1.00
                   0.8                   1

17 0
 s    6 1.00
             3047.5249  0.0018347001629433
             457.36951    0.01403730124668
             103.94869   0.068842606114048
             29.210155    0.23218442062076
              9.286663    0.46794134155879
              3.163927    0.36231203217765
 s    3 1.00
             7.8682724   -0.11933240861517
             1.8812885   -0.16085421161283
             0.5442493     1.1434564825515
 s    1 1.00
             0.1687144                   1
 p    3 1.00
             7.8682724   0.068999095584993
             1.8812885    0.31642397975315
             0.5442493    0.74430825237435
 p    1 1.00
             0.1687144                   1
 d    1 1.00
                   0.8                   1

18 0
 s    6 1.00
             3047.5249  0.0018347001629433
             457.36951    0.01403730124668
             103.94869   0.068842606114048
             29.210155    0.23218442062076
              9.286663    0.46794134155879
              3.163927    0.36231203217765
 s    3 1.00
             7.8682724   -0.11933240861517
             1.8812885   -0.16085421161283
             0.5442493     1.1434564825515
 s    1 1.00
             0.1687144                   1
 p    3 1.00
             7.8682724   0.068999095584993
             1.8812885    0.31642397975315
             0.5442493    0.74430825237435
 p    1 1.00
             0.1687144                   1
 d    1 1.00
                   0.8                   1

19 0
 s    6 1.00
             3047.5249  0.0018347001629433
             457.36951    0.01403730124668
             103.94869   0.068842606114048
             29.210155    0.23218442062076
              9.286663    0.46794134155879
              3.163927    0.36231203217765
 s    3 1.00
             7.8682724   -0.11933240861517
             1.8812885   -0.16085421161283
             0.5442493     1.1434564825515
 s    1 1.00
             0.1687144                   1
 p    3 1.00
             7.8682724   0.068999095584993
             1.8812885    0.31642397975315
             0.5442493    0.74430825237435
 p    1 1.00
             0.1687144                   1
 d    1 1.00
                   0.8                   1

20 0
 s    6 1.00
             3047.5249  0.0018347001629433
             457.36951    0.01403730124668
             103.94869   0.068842606114048
             29.210155    0.23218442062076
              9.286663    0.46794134155879
              3.163927    0.36231203217765
 s    3 1.00
             7.8682724   -0.11933240861517
             1.8812885   -0.16085421161283
             0.5442493     1.1434564825515
 s    1 1.00
             0.1687144                   1
 p    3 1.00
             7.8682724   0.068999095584993
             1.8812885    0.31642397975315
             0.5442493    0.74430825237435
 p    1 1.00
             0.1687144                   1
 d    1 1.00
                   0.8                   1

21 0
 s    6 1.00
             3047.5249  0.0018347001629433
             457.36951    0.01403730124668
             103.94869   0.068842606114048
             29.210155    0.23218442062076
              9.286663    0.46794134155879
              3.163927    0.36231203217765
 s    3 1.00
             7.8682724   -0.11933240861517
             1.8812885   -0.16085421161283
             0.5442493     1.1434564825515
 s    1 1.00
             0.1687144                   1
 p    3 1.00
             7.8682724   0.068999095584993
             1.8812885    0.31642397975315
             0.5442493    0.74430825237435
 p    1 1.00
             0.1687144                   1
 d    1 1.00
                   0.8                   1

22 0
 s    3 1.00
             18.731137    0.03349459952309
             2.8253937    0.23472694665786
             0.6401217    0.81375731841339
 s    1 1.00
             0.1612778                   1

23 0
 s    3 1.00
             18.731137    0.03349459952309
             2.8253937    0.23472694665786
             0.6401217    0.81375731841339
 s    1 1.00
             0.1612778                   1

24 0
 s    3 1.00
             18.731137    0.03349459952309
             2.8253937    0.23472694665786
             0.6401217    0.81375731841339
 s    1 1.00
             0.1612778                   1

25 0
 s    3 1.00
             18.731137    0.03349459952309
             2.8253937    0.23472694665786
             0.6401217    0.81375731841339
 s    1 1.00
             0.1612778                   1

26 0
 s    3 1.00
             18.731137    0.03349459952309
             2.8253937    0.23472694665786
             0.6401217    0.81375731841339
 s    1 1.00
             0.1612778                   1

27 0
 s    3 1.00
             18.731137    0.03349459952309
             2.8253937    0.23472694665786
             0.6401217    0.81375731841339
 s    1 1.00
             0.1612778                   1

28 0
 s    3 1.00
             18.731137    0.03349459952309
             2.8253937    0.23472694665786
             0.6401217    0.81375731841339
 s    1 1.00
             0.1612778                   1

29 0
 s    3 1.00
             18.731137    0.03349459952309
             2.8253937    0.23472694665786
             0.6401217    0.81375731841339
 s    1 1.00
             0.1612778                   1

30 0
 s    3 1.00
             18.731137    0.03349459952309
             2.8253937    0.23472694665786
             0.6401217    0.81375731841339
 s    1 1.00
             0.1612778                   1

31 0
 s    3 1.00
             18.731137    0.03349459952309
             2.8253937    0.23472694665786
             0.6401217    0.81375731841339
 s    1 1.00
             0.1612778                   1

32 0
 s    3 1.00
             18.731137    0.03349459952309
             2.8253937    0.23472694665786
             0.6401217    0.81375731841339
 s    1 1.00
             0.1612778                   1

33 0
 s    6 1.00
             3047.5249  0.0018347001629433
             457.36951    0.01403730124668
             103.94869   0.068842606114048
             29.210155    0.23218442062076
              9.286663    0.46794134155879
              3.163927    0.36231203217765
 s    3 1.00
             7.8682724   -0.11933240861517
             1.8812885   -0.16085421161283
             0.5442493     1.1434564825515
 s    1 1.00
             0.1687144                   1
 p    3 1.00
             7.8682724   0.068999095584993
             1.8812885    0.31642397975315
             0.5442493    0.74430825237435
 p    1 1.00
             0.1687144                   1
 d    1 1.00
                   0.8                   1

34 0
 s    6 1.00
             3047.5249  0.0018347001629433
             457.36951    0.01403730124668
             103.94869   0.068842606114048
             29.210155    0.23218442062076
              9.286663    0.46794134155879
              3.163927    0.36231203217765
 s    3 1.00
             7.8682724   -0.11933240861517
             1.8812885   -0.16085421161283
             0.5442493     1.1434564825515
 s    1 1.00
             0.1687144                   1
 p    3 1.00
             7.8682724   0.068999095584993
             1.8812885    0.31642397975315
             0.5442493    0.74430825237435
 p    1 1.00
             0.1687144                   1
 d    1 1.00
                   0.8                   1

35 0
 s    3 1.00
             18.731137    0.03349459952309
             2.8253937    0.23472694665786
             0.6401217    0.81375731841339
 s    1 1.00
             0.1612778                   1

36 0
 s    6 1.00
             3047.5249  0.0018347001629433
             457.36951    0.01403730124668
             103.94869   0.068842606114048
             29.210155    0.23218442062076
              9.286663    0.46794134155879
              3.163927    0.36231203217765
 s    3 1.00
             7.8682724   -0.11933240861517
             1.8812885   -0.16085421161283
             0.5442493     1.1434564825515
 s    1 1.00
             0.1687144                   1
 p    3 1.00
             7.8682724   0.068999095584993
             1.8812885    0.31642397975315
             0.5442493    0.74430825237435
 p    1 1.00
             0.1687144                   1
 d    1 1.00
                   0.8                   1

37 0
 s    3 1.00
             18.731137    0.03349459952309
             2.8253937    0.23472694665786
             0.6401217    0.81375731841339
 s    1 1.00
             0.1612778                   1

38 0
 s    3 1.00
             18.731137    0.03349459952309
             2.8253937    0.23472694665786
             0.6401217    0.81375731841339
 s    1 1.00
             0.1612778                   1

39 0
 s    6 1.00
             3047.5249  0.0018347001629433
             457.36951    0.01403730124668
             103.94869   0.068842606114048
             29.210155    0.23218442062076
              9.286663    0.46794134155879
              3.163927    0.36231203217765
 s    3 1.00
             7.8682724   -0.11933240861517
             1.8812885   -0.16085421161283
             0.5442493     1.1434564825515
 s    1 1.00
             0.1687144                   1
 p    3 1.00
             7.8682724   0.068999095584993
             1.8812885    0.31642397975315
             0.5442493    0.74430825237435
 p    1 1.00
             0.1687144                   1
 d    1 1.00
                   0.8                   1

40 0
 s    6 1.00
             3047.5249  0.0018347001629433
             457.36951    0.01403730124668
             103.94869   0.068842606114048
             29.210155    0.23218442062076
              9.286663    0.46794134155879
              3.163927    0.36231203217765
 s    3 1.00
             7.8682724   -0.11933240861517
             1.8812885   -0.16085421161283
             0.5442493     1.1434564825515
 s    1 1.00
             0.1687144                   1
 p    3 1.00
             7.8682724   0.068999095584993
             1.8812885    0.31642397975315
             0.5442493    0.74430825237435
 p    1 1.00
             0.1687144                   1
 d    1 1.00
                   0.8                   1

41 0
 s    3 1.00
             18.731137    0.03349459952309
             2.8253937    0.23472694665786
             0.6401217    0.81375731841339
 s    1 1.00
             0.1612778                   1

42 0
 s    6 1.00
             5484.6717   0.001831099805527
             825.23495   0.013950098518422
             188.04696    0.06844509273075
               52.9645    0.23271427528445
              16.89757    0.47019295006289
             5.7996353    0.35852086192309
 s    3 1.00
             15.539616   -0.11077750382508
             3.5999336   -0.14802630511126
             1.0137618     1.1307670390447
 s    1 1.00
             0.2700058                   1
 p    3 1.00
             15.539616   0.070874299543311
             3.5999336    0.33975279781076
             1.0137618    0.72715859531445
 p    1 1.00
             0.2700058                   1
 d    1 1.00
                   0.8                   1

43 0
 s    3 1.00
             18.731137    0.03349459952309
             2.8253937    0.23472694665786
             0.6401217    0.81375731841339
 s    1 1.00
             0.1612778                   1

[5d]
[7f]
[9g]

[MO]
 Sym= A
 Ene=               0
 Spin= Alpha
 Occup=    1.00000
   1      0.01393416847808
   2    -0.001246181812636
   3    0.0078601136292912
   4    0.00042225865344749
   5    -0.00017126040036695
   6    0.0013298958204421
   7    0.00086321724584465
   8    0.0014667609609187
   9    -0.0061729625309049
  10    -0.0010161639483579
  11    -0.00097086997344432
  12    0.00015771802411863
  13    -0.00020805452503833
  14    5.9124578709759e-05
  15    -0.00049094656952607
  16    -0.00093521531030189
  17      0.99476447606997
  18     0.039328597999521
  19     -0.03172396868394
  20    0.0010535863089088
  21    0.0002131451190362
  22    -0.00067630980478281
  23    -0.0041378184296821
  24    -0.0012450332802071
  25    -0.00087582091957948
  26    0.00080576684947552
  27    -0.00032525866113991
  28    -0.00034841804635771
  29    0.0002745827382862
  30    0.00021025406340845
  31    -0.0013165903778064
  32    0.0041905858923137
  33     0.013476633558616
  34    -0.00034976390776042
  35    0.0013859319058027
  36    0.00095942950163188
  37    0.00036916526091044
  38    -0.0012976574323069
  39    -0.0028517808147371
  40    0.0037290619006672
  41    0.0044099678640588
  42    -0.00066640858078218
  43    0.0013284475510038
  44    0.00053648055102088
  45    -0.00039500057834271
  46    -0.00041518328670348
  47    -0.0006092986680385
  48    -0.00063161226391961
  49    0.0002190137630322
  50    -0.00057119802177077
  51    0.0001968503653451
  52    0.00031397955291729
  53    1.6107307595902e-05
  54    -0.0004285609266667
  55    -0.0055847385276343
  56    0.0011264385156038
  57    0.0074634082208628
  58    -0.00017679096514672
  59    -1.5312997934855e-05
  60    0.00015402174324781
  61    -0.00023976081104927
  62    -0.00024543888088212
  63    -0.00053885654914143
  64    0.00022921969026298
  65    -4.6354253085259e-06
  66    -5.6308179709864e-06
  67    1.0125956336395e-06
  68    -4.1516804603746e-06
  69    4.4692889370034e-06
  70    2.5363004472364e-06
  71    -6.4764694266151e-06
  72    1.094843955662e-06
  73    1.0370746502123e-05
  74    2.7704773896817e-05
  75    6.1811305919665e-06
  76    -5.6962136791774e-07
  77    -5.5095591306116e-07
  78    6.8742344768795e-07
  79    6.482315453103e-07
  80    -5.0787035622457e-08
  81    3.4136655057972e-06
  82    1.6196248713029e-05
  83    2.1261844679237e-06
  84    -2.2195536144903e-06
  85    -9.6319016835447e-05
  86    1.019262231275e-05
  87    2.9552301818825e-06
  88    1.8238053211676e-05
  89    3.1282411452239e-05
  90    -7.0378355805648e-05
  91    2.5996056332229e-05
  92    1.3139437690089e-06
  93    -2.3842887954396e-06
  94    4.6493771846686e-06
  95    -3.9361431706135e-07
  96    -7.8247653743504e-07
  97    1.3226960167746e-05
  98    2.3646118250649e-05
  99    -3.0203883784224e-06
 100    -2.1045868059411e-05
 101    -2.9025818797626e-06
 102    -9.8375131138018e-06
 103    0.00022656892924582
 104    -1.5998880547375e-05
 105    -2.2263009022671e-05
 106    -5.6056258846994e-06
 107    -0.00022216369638793
 108    0.00018888241497727
 109    0.00018684518492515
 110    -8.0034647135301e-06
 111    -3.0472006187393e-06
 112    1.0772787237318e-06
 113    1.9266992189581e-06
 114    -6.2854303400912e-06
 115    -6.2986721700665e-06
 116    -3.2437860898031e-05
 117     0.000285445435182
 118    -6.2938955202012e-06
 119    9.0341912182751e-06
 120    1.2049994738642e-05
 121    -6.8338787650306e-05
 122    2.8869926513176e-05
 123    4.4754929871672e-05
 124    9.8823020083409e-07
 125    -3.6695415808602e-06
 126    -2.7914445776561e-06
 127    1.6089191162089e-06
 128    -2.2812437389367e-06
 129    8.0036544556758e-06
 130    -8.3624605917874e-05
 131    0.00013559360598031
 132    2.3096502306858e-05
 133    -8.3296912630412e-07
 134    0.00010557534640435
 135    -0.00034598380538421
 136    3.152603947344e-05
 137    -0.00045363168067719
 138    1.3720742921029e-05
 139    9.8702156494011e-06
 140    4.1889046105678e-06
 141    3.5896224338866e-06
 142    6.2949849086497e-06
 143    -1.103944590928e-05
 144    -1.4212368775736e-05
 145    0.00010726469462295
 146    2.100627366768e-05
 147    -1.0261973176736e-05
 148    -1.9497576158095e-05
 149    5.7238765029589e-05
 150    -2.8055697189516e-05
 151    -7.6306068274641e-05
 152    -1.0118489671233e-05
 153    -5.2590060051409e-06
 154    -3.3036522948572e-06
 155    5.3319729335301e-06
 156    -5.8194680602001e-06
 157    7.8975387024459e-07
 158    1.5294153166362e-05
 159    -2.6708857178752e-05
 160    7.2246032399987e-06
 161    -3.150231823735e-06
 162    1.4990819058736e-06
 163    -5.5416061909428e-05
 164    1.9225115724448e-05
 165    1.5916968646661e-05
 166    3.9060838379139e-06
 167    -1.4966423229741e-06
 168    2.8647790996894e-07
 169    5.4506344251102e-07
 170    1.5082331179675e-06
 171    -1.6437027804817e-06
 172    -1.1951921973354e-05
 173    2.7139324970905e-05
 174    -2.638414056335e-06
 175    1.8361146167775e-06
 176    1.0553598019058e-05
 177    -9.3380507686677e-06
 178    2.0969716215137e-06
 179    -3.5135364146588e-05
 180    1.2875881003253e-06
 181    4.1028107303005e-06
 182    3.6334915668663e-07
 183    -7.7642511089575e-07
 184    1.7072274797804e-06
 185    3.4601456034041e-07
 186    -3.7366671085551e-05
 187    4.8533564700754e-05
 188    2.9780290609422e-06
 189    4.6616686639267e-06
 190    2.5420398632888e-05
 191    7.9506420930588e-06
 192    -5.66051110397e-06
 193    -5.3309985064726e-05
 194    4.0867158668733e-06
 195    4.880452937824e-07
 196    3.4874221574416e-06
 197    -6.0521731345451e-07
 198    3.6351633356007e-07
 199    -7.7448247377949e-06
 200    -3.1023229385084e-07
 201    5.0974244777607e-06
 202    3.8420748184748e-05
 203    -1.4023295209025e-05
 204    -5.5534593903909e-06
 205    3.1387081450703e-06
 206    -2.5422669993928e-05
 207    6.5867725273335e-06
 208    -6.7768697358453e-05
 209    7.9530550837876e-06
 210    -3.3763050807098e-05
 211    5.8974951326631e-06
 212    1.752965640016e-05
 213    2.5909049637447e-06
 214    -1.7561596705408e-05
 215    -6.0065108913332e-06
 216    -4.5457839028742e-05
 217    4.2692973751519e-06
 218    1.5472487352636e-05
 219    -2.5574011208439e-07
 220    1.4767170789787e-06
 221    -8.9482886658524e-05
 222    6.4007478010442e-05
 223     0.001017784770274
 224    0.00010069448608295
 225    5.7516678757268e-05
 226    -0.00020880058067234
 227    0.00069409722462484
 228    0.00034778739326247
 229    -0.0010724141457743
 230    -1.4965135040339e-06
 231    -4.9491794671189e-05
 232    -2.1669594783226e-05
 233    2.6405945911954e-05
 234    2.5450706504212e-05
 235    0.00014671512335889
 236    -0.00033306407092954
 237    -0.00059318574162648
 238    -0.00020500118178906
 239    -0.00017267805402337
 240    0.00056495649990905
 241    0.0002427577113983
 242    0.00030175588820026
 243    -0.0014036236727575
 244    3.0261209845113e-06
 245    6.8464515525922e-05
 246    1.5188511429994e-05
 247    1.5290561173294e-05
 248    -4.4568273104936e-06
 249    -1.9375266402923e-05
 250    0.00031731653104431
 251    -0.00034672755053292
 252    -0.00048729040328498
 253    0.0022936233097392
 254    -0.00047961242186185
 255    -0.00011138223688967
 256    -0.00019517414894424
 257    -0.00014041581656304
 258    0.00035887005990415
 259    -0.0019691473375689
 260    -8.3096511587526e-05
 261    -3.7353875205313e-05
 262    -1.6871068000317e-05
 263    0.00016127231029063
 264    9.6972056447444e-05
 265    -0.00026395246624496
 266    0.00017896662529624
 267    0.00020441502704658
 268    -0.00024246965997032
 269    -2.7227534851663e-05
 270    -0.00055517152939065
 271    0.0073687016603179
 272    -2.467170709672e-05
 273    -0.00014691529678689
 274    9.2994871380817e-05
 275    -0.0015193193342075
 276    -0.0030676404282484
 277    0.0030345595914306
 278    9.7060281998615e-05
 279    -0.00019090001879231
 280    -0.00010390737451719
 281    -2.513476547363e-05