[Molden Format]
made by pyscf v[2.0.1]
[Atoms] (AU)
C   1   6     0.69100024066471     0.64692934207205    -3.48223131169301
H   2   1     2.68052439830868     1.13355088658700    -3.25784032593313
C   3   6    -0.36286361513219     0.85440132524594    -5.97030179418974
H   4   1    -2.35448549047279     0.36322488579172    -6.17995817793143
C   5   6     0.93697958957450     1.61209284601821    -8.05828437677121
H   6   1     2.50035468987728     2.93484935641869    -7.84122146962088
C   7   6     0.36255105159660     0.76050131278393   -10.56848504450332
H   8   1    -1.20802221204617    -0.56532983436663   -10.75608465244450
H   9   1     1.55630230933075    -1.92953025305990    12.99630010416247
C   10   6     0.75233899775814    -2.21270439606481    11.10705728102219
H   11   1    -0.43433408177274    -3.90944857546550    11.22216085340412
C   12   6     2.86362581178706    -2.63237380607947     9.17926416456045
H   13   1     4.39038949912609    -1.24955421540245     9.49899813497433
H   14   1     3.74629220191363    -4.48798724300892     9.47414880959024
C   15   6     2.02478325613682    -2.42177285709634     6.44560829588644
C   16   6     3.88048732735477    -3.58795445234514     4.61402886975252
C   17   6    -0.18412382258602    -1.30464291234259     5.76021113872346
C   18   6    -2.10044360464350    -0.26837831858460     7.71610340967100
C   19   6    -3.08956938670431     2.35282328359417     6.88693925039594
C   20   6    -4.37372924086464    -2.09766595989678     7.93610724222001
C   21   6    -0.83850430601230     0.06372213486173    10.33002307638377
H   22   1     0.38411922151109     1.74281358582432    10.27380136542181
H   23   1    -2.30980003007874     0.45460143924521    11.73986301809809
H   24   1     4.58527064644668    -5.38706904487420     5.36778158031719
H   25   1     5.54944938085014    -2.37631462192748     4.35398898413318
H   26   1     3.06633019150423    -3.94118377050688     2.75255466040884
H   27   1    -4.17727778763735     2.26573369139522     5.12914900961283
H   28   1    -1.52662344944051     3.68001877445626     6.59540397144508
H   29   1    -4.32916174397830     3.13643051467482     8.35225460090378
H   30   1    -5.32329548508442    -2.36691813602939     6.11583672749896
H   31   1    -5.77989366602257    -1.33896741843465     9.25748940450990
H   32   1    -3.79310905208926    -3.96389819310853     8.61386170102686
C   33   6    -1.01100794811226    -1.06331657314144     3.11929490449947
C   34   6     0.37686231036534    -0.33275864505552     1.09165013605873
H   35   1    -3.01671213906703    -1.40297922279997     2.77827895090944
C   36   6    -0.64382707979370    -0.11591880174385    -1.42063131251064
H   37   1     2.35569259782137     0.17174499283897     1.33641070251401
H   38   1    -2.63317482980319    -0.60229203511219    -1.66119700387645
C   39   6     1.60144441070444     1.46482489722556   -12.70057441592292
C   40   6     0.86980516734608     0.48994136718256   -15.17470632539007
H   41   1     3.18180515535191     2.77908821383906   -12.64635086980665
O   42   8     1.89724046327418     1.04291297454121   -17.16453627851552
H   43   1    -0.75645459108880    -0.84958730954869   -15.14122439828819
[GTO]
1 0
 s    6 1.00
             3047.5249  0.0018347001629433
             457.36951    0.01403730124668
             103.94869   0.068842606114048
             29.210155    0.23218442062076
              9.286663    0.46794134155879
              3.163927    0.36231203217765
 s    3 1.00
             7.8682724   -0.11933240861517
             1.8812885   -0.16085421161283
             0.5442493     1.1434564825515
 s    1 1.00
             0.1687144                   1
 p    3 1.00
             7.8682724   0.068999095584993
             1.8812885    0.31642397975315
             0.5442493    0.74430825237435
 p    1 1.00
             0.1687144                   1
 d    1 1.00
                   0.8                   1

2 0
 s    3 1.00
             18.731137    0.03349459952309
             2.8253937    0.23472694665786
             0.6401217    0.81375731841339
 s    1 1.00
             0.1612778                   1

3 0
 s    6 1.00
             3047.5249  0.0018347001629433
             457.36951    0.01403730124668
             103.94869   0.068842606114048
             29.210155    0.23218442062076
              9.286663    0.46794134155879
              3.163927    0.36231203217765
 s    3 1.00
             7.8682724   -0.11933240861517
             1.8812885   -0.16085421161283
             0.5442493     1.1434564825515
 s    1 1.00
             0.1687144                   1
 p    3 1.00
             7.8682724   0.068999095584993
             1.8812885    0.31642397975315
             0.5442493    0.74430825237435
 p    1 1.00
             0.1687144                   1
 d    1 1.00
                   0.8                   1

4 0
 s    3 1.00
             18.731137    0.03349459952309
             2.8253937    0.23472694665786
             0.6401217    0.81375731841339
 s    1 1.00
             0.1612778                   1

5 0
 s    6 1.00
             3047.5249  0.0018347001629433
             457.36951    0.01403730124668
             103.94869   0.068842606114048
             29.210155    0.23218442062076
              9.286663    0.46794134155879
              3.163927    0.36231203217765
 s    3 1.00
             7.8682724   -0.11933240861517
             1.8812885   -0.16085421161283
             0.5442493     1.1434564825515
 s    1 1.00
             0.1687144                   1
 p    3 1.00
             7.8682724   0.068999095584993
             1.8812885    0.31642397975315
             0.5442493    0.74430825237435
 p    1 1.00
             0.1687144                   1
 d    1 1.00
                   0.8                   1

6 0
 s    3 1.00
             18.731137    0.03349459952309
             2.8253937    0.23472694665786
             0.6401217    0.81375731841339
 s    1 1.00
             0.1612778                   1

7 0
 s    6 1.00
             3047.5249  0.0018347001629433
             457.36951    0.01403730124668
             103.94869   0.068842606114048
             29.210155    0.23218442062076
              9.286663    0.46794134155879
              3.163927    0.36231203217765
 s    3 1.00
             7.8682724   -0.11933240861517
             1.8812885   -0.16085421161283
             0.5442493     1.1434564825515
 s    1 1.00
             0.1687144                   1
 p    3 1.00
             7.8682724   0.068999095584993
             1.8812885    0.31642397975315
             0.5442493    0.74430825237435
 p    1 1.00
             0.1687144                   1
 d    1 1.00
                   0.8                   1

8 0
 s    3 1.00
             18.731137    0.03349459952309
             2.8253937    0.23472694665786
             0.6401217    0.81375731841339
 s    1 1.00
             0.1612778                   1

9 0
 s    3 1.00
             18.731137    0.03349459952309
             2.8253937    0.23472694665786
             0.6401217    0.81375731841339
 s    1 1.00
             0.1612778                   1

10 0
 s    6 1.00
             3047.5249  0.0018347001629433
             457.36951    0.01403730124668
             103.94869   0.068842606114048
             29.210155    0.23218442062076
              9.286663    0.46794134155879
              3.163927    0.36231203217765
 s    3 1.00
             7.8682724   -0.11933240861517
             1.8812885   -0.16085421161283
             0.5442493     1.1434564825515
 s    1 1.00
             0.1687144                   1
 p    3 1.00
             7.8682724   0.068999095584993
             1.8812885    0.31642397975315
             0.5442493    0.74430825237435
 p    1 1.00
             0.1687144                   1
 d    1 1.00
                   0.8                   1

11 0
 s    3 1.00
             18.731137    0.03349459952309
             2.8253937    0.23472694665786
             0.6401217    0.81375731841339
 s    1 1.00
             0.1612778                   1

12 0
 s    6 1.00
             3047.5249  0.0018347001629433
             457.36951    0.01403730124668
             103.94869   0.068842606114048
             29.210155    0.23218442062076
              9.286663    0.46794134155879
              3.163927    0.36231203217765
 s    3 1.00
             7.8682724   -0.11933240861517
             1.8812885   -0.16085421161283
             0.5442493     1.1434564825515
 s    1 1.00
             0.1687144                   1
 p    3 1.00
             7.8682724   0.068999095584993
             1.8812885    0.31642397975315
             0.5442493    0.74430825237435
 p    1 1.00
             0.1687144                   1
 d    1 1.00
                   0.8                   1

13 0
 s    3 1.00
             18.731137    0.03349459952309
             2.8253937    0.23472694665786
             0.6401217    0.81375731841339
 s    1 1.00
             0.1612778                   1

14 0
 s    3 1.00
             18.731137    0.03349459952309
             2.8253937    0.23472694665786
             0.6401217    0.81375731841339
 s    1 1.00
             0.1612778                   1

15 0
 s    6 1.00
             3047.5249  0.0018347001629433
             457.36951    0.01403730124668
             103.94869   0.068842606114048
             29.210155    0.23218442062076
              9.286663    0.46794134155879
              3.163927    0.36231203217765
 s    3 1.00
             7.8682724   -0.11933240861517
             1.8812885   -0.16085421161283
             0.5442493     1.1434564825515
 s    1 1.00
             0.1687144                   1
 p    3 1.00
             7.8682724   0.068999095584993
             1.8812885    0.31642397975315
             0.5442493    0.74430825237435
 p    1 1.00
             0.1687144                   1
 d    1 1.00
                   0.8                   1

16 0
 s    6 1.00
             3047.5249  0.0018347001629433
             457.36951    0.01403730124668
             103.94869   0.068842606114048
             29.210155    0.23218442062076
              9.286663    0.46794134155879
              3.163927    0.36231203217765
 s    3 1.00
             7.8682724   -0.11933240861517
             1.8812885   -0.16085421161283
             0.5442493     1.1434564825515
 s    1 1.00
             0.1687144                   1
 p    3 1.00
             7.8682724   0.068999095584993
             1.8812885    0.31642397975315
             0.5442493    0.74430825237435
 p    1 1.00
             0.1687144                   1
 d    1 1.00
                   0.8                   1

17 0
 s    6 1.00
             3047.5249  0.0018347001629433
             457.36951    0.01403730124668
             103.94869   0.068842606114048
             29.210155    0.23218442062076
              9.286663    0.46794134155879
              3.163927    0.36231203217765
 s    3 1.00
             7.8682724   -0.11933240861517
             1.8812885   -0.16085421161283
             0.5442493     1.1434564825515
 s    1 1.00
             0.1687144                   1
 p    3 1.00
             7.8682724   0.068999095584993
             1.8812885    0.31642397975315
             0.5442493    0.74430825237435
 p    1 1.00
             0.1687144                   1
 d    1 1.00
                   0.8                   1

18 0
 s    6 1.00
             3047.5249  0.0018347001629433
             457.36951    0.01403730124668
             103.94869   0.068842606114048
             29.210155    0.23218442062076
              9.286663    0.46794134155879
              3.163927    0.36231203217765
 s    3 1.00
             7.8682724   -0.11933240861517
             1.8812885   -0.16085421161283
             0.5442493     1.1434564825515
 s    1 1.00
             0.1687144                   1
 p    3 1.00
             7.8682724   0.068999095584993
             1.8812885    0.31642397975315
             0.5442493    0.74430825237435
 p    1 1.00
             0.1687144                   1
 d    1 1.00
                   0.8                   1

19 0
 s    6 1.00
             3047.5249  0.0018347001629433
             457.36951    0.01403730124668
             103.94869   0.068842606114048
             29.210155    0.23218442062076
              9.286663    0.46794134155879
              3.163927    0.36231203217765
 s    3 1.00
             7.8682724   -0.11933240861517
             1.8812885   -0.16085421161283
             0.5442493     1.1434564825515
 s    1 1.00
             0.1687144                   1
 p    3 1.00
             7.8682724   0.068999095584993
             1.8812885    0.31642397975315
             0.5442493    0.74430825237435
 p    1 1.00
             0.1687144                   1
 d    1 1.00
                   0.8                   1

20 0
 s    6 1.00
             3047.5249  0.0018347001629433
             457.36951    0.01403730124668
             103.94869   0.068842606114048
             29.210155    0.23218442062076
              9.286663    0.46794134155879
              3.163927    0.36231203217765
 s    3 1.00
             7.8682724   -0.11933240861517
             1.8812885   -0.16085421161283
             0.5442493     1.1434564825515
 s    1 1.00
             0.1687144                   1
 p    3 1.00
             7.8682724   0.068999095584993
             1.8812885    0.31642397975315
             0.5442493    0.74430825237435
 p    1 1.00
             0.1687144                   1
 d    1 1.00
                   0.8                   1

21 0
 s    6 1.00
             3047.5249  0.0018347001629433
             457.36951    0.01403730124668
             103.94869   0.068842606114048
             29.210155    0.23218442062076
              9.286663    0.46794134155879
              3.163927    0.36231203217765
 s    3 1.00
             7.8682724   -0.11933240861517
             1.8812885   -0.16085421161283
             0.5442493     1.1434564825515
 s    1 1.00
             0.1687144                   1
 p    3 1.00
             7.8682724   0.068999095584993
             1.8812885    0.31642397975315
             0.5442493    0.74430825237435
 p    1 1.00
             0.1687144                   1
 d    1 1.00
                   0.8                   1

22 0
 s    3 1.00
             18.731137    0.03349459952309
             2.8253937    0.23472694665786
             0.6401217    0.81375731841339
 s    1 1.00
             0.1612778                   1

23 0
 s    3 1.00
             18.731137    0.03349459952309
             2.8253937    0.23472694665786
             0.6401217    0.81375731841339
 s    1 1.00
             0.1612778                   1

24 0
 s    3 1.00
             18.731137    0.03349459952309
             2.8253937    0.23472694665786
             0.6401217    0.81375731841339
 s    1 1.00
             0.1612778                   1

25 0
 s    3 1.00
             18.731137    0.03349459952309
             2.8253937    0.23472694665786
             0.6401217    0.81375731841339
 s    1 1.00
             0.1612778                   1

26 0
 s    3 1.00
             18.731137    0.03349459952309
             2.8253937    0.23472694665786
             0.6401217    0.81375731841339
 s    1 1.00
             0.1612778                   1

27 0
 s    3 1.00
             18.731137    0.03349459952309
             2.8253937    0.23472694665786
             0.6401217    0.81375731841339
 s    1 1.00
             0.1612778                   1

28 0
 s    3 1.00
             18.731137    0.03349459952309
             2.8253937    0.23472694665786
             0.6401217    0.81375731841339
 s    1 1.00
             0.1612778                   1

29 0
 s    3 1.00
             18.731137    0.03349459952309
             2.8253937    0.23472694665786
             0.6401217    0.81375731841339
 s    1 1.00
             0.1612778                   1

30 0
 s    3 1.00
             18.731137    0.03349459952309
             2.8253937    0.23472694665786
             0.6401217    0.81375731841339
 s    1 1.00
             0.1612778                   1

31 0
 s    3 1.00
             18.731137    0.03349459952309
             2.8253937    0.23472694665786
             0.6401217    0.81375731841339
 s    1 1.00
             0.1612778                   1

32 0
 s    3 1.00
             18.731137    0.03349459952309
             2.8253937    0.23472694665786
             0.6401217    0.81375731841339
 s    1 1.00
             0.1612778                   1

33 0
 s    6 1.00
             3047.5249  0.0018347001629433
             457.36951    0.01403730124668
             103.94869   0.068842606114048
             29.210155    0.23218442062076
              9.286663    0.46794134155879
              3.163927    0.36231203217765
 s    3 1.00
             7.8682724   -0.11933240861517
             1.8812885   -0.16085421161283
             0.5442493     1.1434564825515
 s    1 1.00
             0.1687144                   1
 p    3 1.00
             7.8682724   0.068999095584993
             1.8812885    0.31642397975315
             0.5442493    0.74430825237435
 p    1 1.00
             0.1687144                   1
 d    1 1.00
                   0.8                   1

34 0
 s    6 1.00
             3047.5249  0.0018347001629433
             457.36951    0.01403730124668
             103.94869   0.068842606114048
             29.210155    0.23218442062076
              9.286663    0.46794134155879
              3.163927    0.36231203217765
 s    3 1.00
             7.8682724   -0.11933240861517
             1.8812885   -0.16085421161283
             0.5442493     1.1434564825515
 s    1 1.00
             0.1687144                   1
 p    3 1.00
             7.8682724   0.068999095584993
             1.8812885    0.31642397975315
             0.5442493    0.74430825237435
 p    1 1.00
             0.1687144                   1
 d    1 1.00
                   0.8                   1

35 0
 s    3 1.00
             18.731137    0.03349459952309
             2.8253937    0.23472694665786
             0.6401217    0.81375731841339
 s    1 1.00
             0.1612778                   1

36 0
 s    6 1.00
             3047.5249  0.0018347001629433
             457.36951    0.01403730124668
             103.94869   0.068842606114048
             29.210155    0.23218442062076
              9.286663    0.46794134155879
              3.163927    0.36231203217765
 s    3 1.00
             7.8682724   -0.11933240861517
             1.8812885   -0.16085421161283
             0.5442493     1.1434564825515
 s    1 1.00
             0.1687144                   1
 p    3 1.00
             7.8682724   0.068999095584993
             1.8812885    0.31642397975315
             0.5442493    0.74430825237435
 p    1 1.00
             0.1687144                   1
 d    1 1.00
                   0.8                   1

37 0
 s    3 1.00
             18.731137    0.03349459952309
             2.8253937    0.23472694665786
             0.6401217    0.81375731841339
 s    1 1.00
             0.1612778                   1

38 0
 s    3 1.00
             18.731137    0.03349459952309
             2.8253937    0.23472694665786
             0.6401217    0.81375731841339
 s    1 1.00
             0.1612778                   1

39 0
 s    6 1.00
             3047.5249  0.0018347001629433
             457.36951    0.01403730124668
             103.94869   0.068842606114048
             29.210155    0.23218442062076
              9.286663    0.46794134155879
              3.163927    0.36231203217765
 s    3 1.00
             7.8682724   -0.11933240861517
             1.8812885   -0.16085421161283
             0.5442493     1.1434564825515
 s    1 1.00
             0.1687144                   1
 p    3 1.00
             7.8682724   0.068999095584993
             1.8812885    0.31642397975315
             0.5442493    0.74430825237435
 p    1 1.00
             0.1687144                   1
 d    1 1.00
                   0.8                   1

40 0
 s    6 1.00
             3047.5249  0.0018347001629433
             457.36951    0.01403730124668
             103.94869   0.068842606114048
             29.210155    0.23218442062076
              9.286663    0.46794134155879
              3.163927    0.36231203217765
 s    3 1.00
             7.8682724   -0.11933240861517
             1.8812885   -0.16085421161283
             0.5442493     1.1434564825515
 s    1 1.00
             0.1687144                   1
 p    3 1.00
             7.8682724   0.068999095584993
             1.8812885    0.31642397975315
             0.5442493    0.74430825237435
 p    1 1.00
             0.1687144                   1
 d    1 1.00
                   0.8                   1

41 0
 s    3 1.00
             18.731137    0.03349459952309
             2.8253937    0.23472694665786
             0.6401217    0.81375731841339
 s    1 1.00
             0.1612778                   1

42 0
 s    6 1.00
             5484.6717   0.001831099805527
             825.23495   0.013950098518422
             188.04696    0.06844509273075
               52.9645    0.23271427528445
              16.89757    0.47019295006289
             5.7996353    0.35852086192309
 s    3 1.00
             15.539616   -0.11077750382508
             3.5999336   -0.14802630511126
             1.0137618     1.1307670390447
 s    1 1.00
             0.2700058                   1
 p    3 1.00
             15.539616   0.070874299543311
             3.5999336    0.33975279781076
             1.0137618    0.72715859531445
 p    1 1.00
             0.2700058                   1
 d    1 1.00
                   0.8                   1

43 0
 s    3 1.00
             18.731137    0.03349459952309
             2.8253937    0.23472694665786
             0.6401217    0.81375731841339
 s    1 1.00
             0.1612778                   1

[5d]
[7f]
[9g]

[MO]
 Sym= A
 Ene=               0
 Spin= Alpha
 Occup=    1.00000
   1    -0.010198377808225
   2    0.0013028595907636
   3    -0.0076675637700809
   4    -0.00046175759230551
   5    0.0001014524995335
   6    -0.0013084952895865
   7    -0.0005073911709963
   8    -0.00088694281970333
   9    0.0041594261762054
  10    0.0010826327317059
  11    0.0010327715867098
  12    -0.00014143080206403
  13    0.00024716334630815
  14    -6.2169354056438e-05
  15    0.0004147968775069
  16    0.00085687045489234
  17     -0.99434881021636
  18    -0.038466758901376
  19     0.030266823960527
  20    -0.00079019169749181
  21    -0.00022519579796388
  22    0.0002533802042421
  23     0.003680547682737
  24    0.0011151429011782
  25    0.00021707554589707
  26    -0.00083051812537793
  27    0.00025631973349679
  28    0.00039839116249448
  29    -0.00021445811640799
  30    -0.00013498505020214
  31    0.0012844013811886
  32    -0.0040589840284149
  33    -0.029813096643891
  34    0.00079478467042383
  35    -0.0068120753312808
  36    -0.00092453947163166
  37    -0.00044979355486362
  38    0.0015045579907378
  39    0.00030003512900018
  40    -0.00033823133231165
  41    -0.0050135354802213
  42    0.0007005480529031
  43    -0.0011035578731259
  44    -0.00060741067484976
  45    0.00038401844734608
  46    0.0004369588977239
  47    0.00050527848484669
  48    0.00067527716817257
  49    -0.0095379066905864
  50    2.8630144448029e-05
  51    -0.00024243617671983
  52    -8.1164876093203e-06
  53    -0.00012679196099649
  54    0.00029033941018413
  55    0.00080549734109653
  56    0.00068234061763371
  57    -0.0031883386851704
  58    2.8621494917454e-05
  59    -7.1277046551034e-05
  60    -7.3968572747483e-05
  61    -9.0695539005461e-06
  62    -0.00012141716728303
  63    0.00024602186752944
  64    0.00038647218925947
  65    3.5778395921319e-06
  66    6.1508768084071e-06
  67    -1.1749762470085e-06
  68    2.1632667544077e-06
  69    -1.8277036493992e-06
  70    -7.9082038164592e-07
  71    4.314756455103e-06
  72    -9.7672198526733e-07
  73    -5.0660878676189e-06
  74    -2.1832053228823e-05
  75    -7.0946523035866e-06
  76    7.1417955838052e-07
  77    4.2198661446313e-07
  78    -3.7128243428075e-07
  79    -3.5798073973259e-07
  80    3.327255811768e-08
  81    -2.7599731803144e-06
  82    -1.345913740661e-05
  83    -1.6804810608221e-06
  84    3.8122991738244e-06
  85    6.1013343647694e-05
  86    -8.8236277276467e-06
  87    -2.9567777394148e-06
  88    -1.4764340349559e-05
  89    -1.9008103681452e-05
  90    4.6621742987833e-05
  91    -2.0515636994878e-05
  92    -9.6613260089742e-07
  93    1.1265611575359e-06
  94    -2.873307218026e-06
  95    -3.7728648422572e-08
  96    4.2952984185408e-07
  97    -1.0671716747504e-05
  98    -2.0423166364417e-05
  99    2.5927043635891e-06
 100    1.5703607381791e-05
 101    1.9284471286714e-06
 102    5.3612173136358e-06
 103    -9.7539140940118e-05
 104    1.5805404129862e-05
 105    2.1979295405766e-05
 106    1.440629906571e-06
 107    0.00013607214682551
 108    -0.00010604450247608
 109    -0.0001358099932287
 110    6.9895719249917e-06
 111    3.6213009858847e-06
 112    -1.3759083482244e-06
 113    -2.194600366707e-06
 114    3.1758105930764e-06
 115    5.6076919083686e-06
 116    2.6650723906129e-05
 117    -0.00021778121532248
 118    4.4943979450639e-06
 119    -6.8424060987736e-06
 120    -1.0273332943741e-05
 121    5.5027068812369e-05
 122    -3.2254093524984e-05
 123    -1.7558745913156e-05
 124    -3.6560482293255e-07
 125    2.2132387341475e-06
 126    1.8411705553486e-06
 127    -1.4092270436425e-06
 128    1.2961738486145e-06
 129    -9.0029394638333e-06
 130    7.0338332470109e-05
 131    -1.1094366527112e-05
 132    -1.4434589715174e-05
 133    6.0170603736003e-06
 134    -9.9669335181275e-05
 135    0.00015760007097209
 136    -1.2840649918081e-05
 137    0.0002707140431012
 138    -8.860440912764e-06
 139    -5.3900844856779e-06
 140    -7.5210213702327e-07
 141    -2.8315193202714e-06
 142    -3.4168241680787e-06
 143    1.005980018161e-05
 144    3.345959087968e-06
 145    -0.00011479069855761
 146    -2.0193813286457e-05
 147    9.0900726910206e-06
 148    2.6036403990242e-05
 149    -5.4335310016253e-05
 150    5.7323013418021e-05
 151    3.8538416352794e-05
 152    7.0122097603767e-06
 153    4.1043928188943e-06
 154    6.4469130576142e-07
 155    -3.946094469532e-06
 156    3.4119074117427e-06
 157    3.8204987116769e-07
 158    -7.6153425555885e-06
 159    -1.3041129918472e-05
 160    -5.6249498331986e-06
 161    4.7784166319233e-06
 162    -3.0947372467529e-06
 163    3.0917578232897e-05
 164    -2.3366269523539e-06
 165    -9.6314209737129e-06
 166    -1.6308524984909e-06
 167    7.2898914606539e-07
 168    -1.4042425181861e-07
 169    6.249150542718e-10
 170    -2.1019363494634e-07
 171    1.5502631736829e-06
 172    1.1129141414757e-05
 173    -2.6469272269127e-05
 174    1.5236703936879e-06
 175    -2.0271463247961e-06
 176    -6.505747279391e-06
 177    2.4324595681585e-05
 178    4.2794984210237e-06
 179    3.7859670119245e-05
 180    -1.3917570722077e-06
 181    -1.7428389681221e-06
 182    -9.6798064625874e-08
 183    9.2822206018168e-07
 184    -1.964584185781e-07
 185    -1.7199343533781e-06
 186    2.3459160363729e-05
 187    -2.0337093354941e-06
 188    -4.725995335226e-06
 189    -4.3923605615466e-06
 190    -2.2377037898621e-05
 191    -7.1505612165314e-06
 192    -6.0620428646603e-06
 193    2.2757608967385e-05
 194    -2.6837279302866e-06
 195    5.140453842214e-07
 196    -1.3184073494419e-06
 197     2.35882794573e-07
 198    -7.4383094035117e-08
 199    4.1209664950756e-06
 200    7.9693949058625e-07
 201    -5.2367170716993e-06
 202    -2.9768841805114e-05
 203    1.0584193362904e-05
 204    -1.189095315116e-06
 205    -1.2950656851665e-06
 206    1.6605946131199e-05
 207    -5.5830992328964e-06
 208    6.8467339788166e-05
 209    -2.9772558393508e-06
 210    2.7713481634718e-05
 211    -2.3145256609167e-06
 212    -8.542884169138e-06
 213    -2.0017857328987e-06
 214    9.312206573607e-06
 215    1.5297222784932e-06
 216    6.650339766495e-05
 217    -2.8694009092964e-06
 218    -1.2728309146129e-05
 219    1.5934677783121e-06
 220    -3.0161733872436e-06
 221    8.1704952369285e-05
 222    -0.00010970215828585
 223    -0.00063972937748428
 224    -9.3012821047342e-05
 225    -5.7211463986421e-05
 226    0.00021073334219671
 227    -0.00055859553611253
 228    -0.00022310408614991
 229    0.00055112117405941
 230    7.4035706860158e-06
 231    2.911044272014e-05
 232    1.0849690932508e-05
 233    -1.7002738953609e-05
 234    -1.7196213622601e-05
 235    -0.0001393273025411
 236    0.00035528086817287
 237    -0.00022316856894809
 238    0.00019882807070457
 239    0.00015149600053339
 240    -0.00052748508377884
 241    -1.2293088591738e-05
 242    -0.00020824169356204
 243     0.001230737272928
 244    -2.1172850519774e-05
 245    -4.6815169300359e-05
 246    -5.6163553746199e-06
 247    -9.8242635059507e-06
 248    1.4520394087541e-06
 249    1.9153673497176e-06
 250    -0.00029956542020383
 251    0.0003279366136117
 252    0.00036387285579862
 253    -0.00060545746470149
 254    0.00045354730875645
 255    9.4347006104923e-05
 256    0.00017918433060271
 257    0.00088943229806271
 258    -0.00013584442559995
 259    0.0015562038905027
 260    0.00010354646221393
 261    1.3510484385398e-05
 262    4.8793586152881e-06
 263    -0.00013983949853317
 264    -8.9258476505793e-05
 265    0.00023817802562451
 266    -0.00011377542193674
 267    -0.00018479088538465
 268    0.00040065408455951
 269    -1.4134518112584e-05
 270    0.00018188303128085
 271    -0.0024231568643539
 272    0.00011382623132318
 273    0.00017057675950055
 274    0.00012804903171255
 275    0.0011227073930215
 276    0.00040305969597685
 277    -0.0014529177561926
 278    -2.9678631676533e-05
 279    6.1202222103861e-05
 280    1.0074729775359e-05