[Molden Format]
made by pyscf v[2.0.1]
[Atoms] (AU)
C   1   6     0.69100024066471     0.64692934207205    -3.48223131169301
H   2   1     2.68052439830868     1.13355088658700    -3.25784032593313
C   3   6    -0.36286361513219     0.85440132524594    -5.97030179418974
H   4   1    -2.35448549047279     0.36322488579172    -6.17995817793143
C   5   6     0.93697958957450     1.61209284601821    -8.05828437677121
H   6   1     2.04771873455416     3.34419409619576    -7.97445952172335
C   7   6     0.93181860145248     0.24539724069794   -10.40101785795171
H   8   1    -0.18866463604211    -1.48700602985521   -10.45595821195799
H   9   1     1.55630230933075    -1.92953025305990    12.99630010416247
C   10   6     0.75233899775814    -2.21270439606481    11.10705728102219
H   11   1    -0.43433408177274    -3.90944857546550    11.22216085340412
C   12   6     2.86362581178706    -2.63237380607947     9.17926416456045
H   13   1     4.39038949912609    -1.24955421540245     9.49899813497433
H   14   1     3.74629220191363    -4.48798724300892     9.47414880959024
C   15   6     2.02478325613682    -2.42177285709634     6.44560829588644
C   16   6     3.88048732735477    -3.58795445234514     4.61402886975252
C   17   6    -0.18412382258602    -1.30464291234259     5.76021113872346
C   18   6    -2.10044360464350    -0.26837831858460     7.71610340967100
C   19   6    -3.08956938670431     2.35282328359417     6.88693925039594
C   20   6    -4.37372924086464    -2.09766595989678     7.93610724222001
C   21   6    -0.83850430601230     0.06372213486173    10.33002307638377
H   22   1     0.38411922151109     1.74281358582432    10.27380136542181
H   23   1    -2.30980003007874     0.45460143924521    11.73986301809809
H   24   1     4.58527064644668    -5.38706904487420     5.36778158031719
H   25   1     5.54944938085014    -2.37631462192748     4.35398898413318
H   26   1     3.06633019150423    -3.94118377050688     2.75255466040884
H   27   1    -4.17727778763735     2.26573369139522     5.12914900961283
H   28   1    -1.52662344944051     3.68001877445626     6.59540397144508
H   29   1    -4.32916174397830     3.13643051467482     8.35225460090378
H   30   1    -5.32329548508442    -2.36691813602939     6.11583672749896
H   31   1    -5.77989366602257    -1.33896741843465     9.25748940450990
H   32   1    -3.79310905208926    -3.96389819310853     8.61386170102686
C   33   6    -1.01100794811226    -1.06331657314144     3.11929490449947
C   34   6     0.37686231036534    -0.33275864505552     1.09165013605873
H   35   1    -3.01671213906703    -1.40297922279997     2.77827895090944
C   36   6    -0.64382707979370    -0.11591880174385    -1.42063131251064
H   37   1     2.35569259782137     0.17174499283897     1.33641070251401
H   38   1    -2.63317482980319    -0.60229203511219    -1.66119700387645
C   39   6     2.19331151370285     0.92821726401642   -12.52684146370420
C   40   6     2.06658501336205    -0.59430170292716   -14.82312084011087
H   41   1     3.34297492540252     2.63137484242591   -12.59961951178576
O   42   8     3.14891962090165    -0.09254461622574   -16.79735885819125
H   43   1     0.86886987612456    -2.32059369084518   -14.66320417409860
[GTO]
1 0
 s    6 1.00
             3047.5249  0.0018347001629433
             457.36951    0.01403730124668
             103.94869   0.068842606114048
             29.210155    0.23218442062076
              9.286663    0.46794134155879
              3.163927    0.36231203217765
 s    3 1.00
             7.8682724   -0.11933240861517
             1.8812885   -0.16085421161283
             0.5442493     1.1434564825515
 s    1 1.00
             0.1687144                   1
 p    3 1.00
             7.8682724   0.068999095584993
             1.8812885    0.31642397975315
             0.5442493    0.74430825237435
 p    1 1.00
             0.1687144                   1
 d    1 1.00
                   0.8                   1

2 0
 s    3 1.00
             18.731137    0.03349459952309
             2.8253937    0.23472694665786
             0.6401217    0.81375731841339
 s    1 1.00
             0.1612778                   1

3 0
 s    6 1.00
             3047.5249  0.0018347001629433
             457.36951    0.01403730124668
             103.94869   0.068842606114048
             29.210155    0.23218442062076
              9.286663    0.46794134155879
              3.163927    0.36231203217765
 s    3 1.00
             7.8682724   -0.11933240861517
             1.8812885   -0.16085421161283
             0.5442493     1.1434564825515
 s    1 1.00
             0.1687144                   1
 p    3 1.00
             7.8682724   0.068999095584993
             1.8812885    0.31642397975315
             0.5442493    0.74430825237435
 p    1 1.00
             0.1687144                   1
 d    1 1.00
                   0.8                   1

4 0
 s    3 1.00
             18.731137    0.03349459952309
             2.8253937    0.23472694665786
             0.6401217    0.81375731841339
 s    1 1.00
             0.1612778                   1

5 0
 s    6 1.00
             3047.5249  0.0018347001629433
             457.36951    0.01403730124668
             103.94869   0.068842606114048
             29.210155    0.23218442062076
              9.286663    0.46794134155879
              3.163927    0.36231203217765
 s    3 1.00
             7.8682724   -0.11933240861517
             1.8812885   -0.16085421161283
             0.5442493     1.1434564825515
 s    1 1.00
             0.1687144                   1
 p    3 1.00
             7.8682724   0.068999095584993
             1.8812885    0.31642397975315
             0.5442493    0.74430825237435
 p    1 1.00
             0.1687144                   1
 d    1 1.00
                   0.8                   1

6 0
 s    3 1.00
             18.731137    0.03349459952309
             2.8253937    0.23472694665786
             0.6401217    0.81375731841339
 s    1 1.00
             0.1612778                   1

7 0
 s    6 1.00
             3047.5249  0.0018347001629433
             457.36951    0.01403730124668
             103.94869   0.068842606114048
             29.210155    0.23218442062076
              9.286663    0.46794134155879
              3.163927    0.36231203217765
 s    3 1.00
             7.8682724   -0.11933240861517
             1.8812885   -0.16085421161283
             0.5442493     1.1434564825515
 s    1 1.00
             0.1687144                   1
 p    3 1.00
             7.8682724   0.068999095584993
             1.8812885    0.31642397975315
             0.5442493    0.74430825237435
 p    1 1.00
             0.1687144                   1
 d    1 1.00
                   0.8                   1

8 0
 s    3 1.00
             18.731137    0.03349459952309
             2.8253937    0.23472694665786
             0.6401217    0.81375731841339
 s    1 1.00
             0.1612778                   1

9 0
 s    3 1.00
             18.731137    0.03349459952309
             2.8253937    0.23472694665786
             0.6401217    0.81375731841339
 s    1 1.00
             0.1612778                   1

10 0
 s    6 1.00
             3047.5249  0.0018347001629433
             457.36951    0.01403730124668
             103.94869   0.068842606114048
             29.210155    0.23218442062076
              9.286663    0.46794134155879
              3.163927    0.36231203217765
 s    3 1.00
             7.8682724   -0.11933240861517
             1.8812885   -0.16085421161283
             0.5442493     1.1434564825515
 s    1 1.00
             0.1687144                   1
 p    3 1.00
             7.8682724   0.068999095584993
             1.8812885    0.31642397975315
             0.5442493    0.74430825237435
 p    1 1.00
             0.1687144                   1
 d    1 1.00
                   0.8                   1

11 0
 s    3 1.00
             18.731137    0.03349459952309
             2.8253937    0.23472694665786
             0.6401217    0.81375731841339
 s    1 1.00
             0.1612778                   1

12 0
 s    6 1.00
             3047.5249  0.0018347001629433
             457.36951    0.01403730124668
             103.94869   0.068842606114048
             29.210155    0.23218442062076
              9.286663    0.46794134155879
              3.163927    0.36231203217765
 s    3 1.00
             7.8682724   -0.11933240861517
             1.8812885   -0.16085421161283
             0.5442493     1.1434564825515
 s    1 1.00
             0.1687144                   1
 p    3 1.00
             7.8682724   0.068999095584993
             1.8812885    0.31642397975315
             0.5442493    0.74430825237435
 p    1 1.00
             0.1687144                   1
 d    1 1.00
                   0.8                   1

13 0
 s    3 1.00
             18.731137    0.03349459952309
             2.8253937    0.23472694665786
             0.6401217    0.81375731841339
 s    1 1.00
             0.1612778                   1

14 0
 s    3 1.00
             18.731137    0.03349459952309
             2.8253937    0.23472694665786
             0.6401217    0.81375731841339
 s    1 1.00
             0.1612778                   1

15 0
 s    6 1.00
             3047.5249  0.0018347001629433
             457.36951    0.01403730124668
             103.94869   0.068842606114048
             29.210155    0.23218442062076
              9.286663    0.46794134155879
              3.163927    0.36231203217765
 s    3 1.00
             7.8682724   -0.11933240861517
             1.8812885   -0.16085421161283
             0.5442493     1.1434564825515
 s    1 1.00
             0.1687144                   1
 p    3 1.00
             7.8682724   0.068999095584993
             1.8812885    0.31642397975315
             0.5442493    0.74430825237435
 p    1 1.00
             0.1687144                   1
 d    1 1.00
                   0.8                   1

16 0
 s    6 1.00
             3047.5249  0.0018347001629433
             457.36951    0.01403730124668
             103.94869   0.068842606114048
             29.210155    0.23218442062076
              9.286663    0.46794134155879
              3.163927    0.36231203217765
 s    3 1.00
             7.8682724   -0.11933240861517
             1.8812885   -0.16085421161283
             0.5442493     1.1434564825515
 s    1 1.00
             0.1687144                   1
 p    3 1.00
             7.8682724   0.068999095584993
             1.8812885    0.31642397975315
             0.5442493    0.74430825237435
 p    1 1.00
             0.1687144                   1
 d    1 1.00
                   0.8                   1

17 0
 s    6 1.00
             3047.5249  0.0018347001629433
             457.36951    0.01403730124668
             103.94869   0.068842606114048
             29.210155    0.23218442062076
              9.286663    0.46794134155879
              3.163927    0.36231203217765
 s    3 1.00
             7.8682724   -0.11933240861517
             1.8812885   -0.16085421161283
             0.5442493     1.1434564825515
 s    1 1.00
             0.1687144                   1
 p    3 1.00
             7.8682724   0.068999095584993
             1.8812885    0.31642397975315
             0.5442493    0.74430825237435
 p    1 1.00
             0.1687144                   1
 d    1 1.00
                   0.8                   1

18 0
 s    6 1.00
             3047.5249  0.0018347001629433
             457.36951    0.01403730124668
             103.94869   0.068842606114048
             29.210155    0.23218442062076
              9.286663    0.46794134155879
              3.163927    0.36231203217765
 s    3 1.00
             7.8682724   -0.11933240861517
             1.8812885   -0.16085421161283
             0.5442493     1.1434564825515
 s    1 1.00
             0.1687144                   1
 p    3 1.00
             7.8682724   0.068999095584993
             1.8812885    0.31642397975315
             0.5442493    0.74430825237435
 p    1 1.00
             0.1687144                   1
 d    1 1.00
                   0.8                   1

19 0
 s    6 1.00
             3047.5249  0.0018347001629433
             457.36951    0.01403730124668
             103.94869   0.068842606114048
             29.210155    0.23218442062076
              9.286663    0.46794134155879
              3.163927    0.36231203217765
 s    3 1.00
             7.8682724   -0.11933240861517
             1.8812885   -0.16085421161283
             0.5442493     1.1434564825515
 s    1 1.00
             0.1687144                   1
 p    3 1.00
             7.8682724   0.068999095584993
             1.8812885    0.31642397975315
             0.5442493    0.74430825237435
 p    1 1.00
             0.1687144                   1
 d    1 1.00
                   0.8                   1

20 0
 s    6 1.00
             3047.5249  0.0018347001629433
             457.36951    0.01403730124668
             103.94869   0.068842606114048
             29.210155    0.23218442062076
              9.286663    0.46794134155879
              3.163927    0.36231203217765
 s    3 1.00
             7.8682724   -0.11933240861517
             1.8812885   -0.16085421161283
             0.5442493     1.1434564825515
 s    1 1.00
             0.1687144                   1
 p    3 1.00
             7.8682724   0.068999095584993
             1.8812885    0.31642397975315
             0.5442493    0.74430825237435
 p    1 1.00
             0.1687144                   1
 d    1 1.00
                   0.8                   1

21 0
 s    6 1.00
             3047.5249  0.0018347001629433
             457.36951    0.01403730124668
             103.94869   0.068842606114048
             29.210155    0.23218442062076
              9.286663    0.46794134155879
              3.163927    0.36231203217765
 s    3 1.00
             7.8682724   -0.11933240861517
             1.8812885   -0.16085421161283
             0.5442493     1.1434564825515
 s    1 1.00
             0.1687144                   1
 p    3 1.00
             7.8682724   0.068999095584993
             1.8812885    0.31642397975315
             0.5442493    0.74430825237435
 p    1 1.00
             0.1687144                   1
 d    1 1.00
                   0.8                   1

22 0
 s    3 1.00
             18.731137    0.03349459952309
             2.8253937    0.23472694665786
             0.6401217    0.81375731841339
 s    1 1.00
             0.1612778                   1

23 0
 s    3 1.00
             18.731137    0.03349459952309
             2.8253937    0.23472694665786
             0.6401217    0.81375731841339
 s    1 1.00
             0.1612778                   1

24 0
 s    3 1.00
             18.731137    0.03349459952309
             2.8253937    0.23472694665786
             0.6401217    0.81375731841339
 s    1 1.00
             0.1612778                   1

25 0
 s    3 1.00
             18.731137    0.03349459952309
             2.8253937    0.23472694665786
             0.6401217    0.81375731841339
 s    1 1.00
             0.1612778                   1

26 0
 s    3 1.00
             18.731137    0.03349459952309
             2.8253937    0.23472694665786
             0.6401217    0.81375731841339
 s    1 1.00
             0.1612778                   1

27 0
 s    3 1.00
             18.731137    0.03349459952309
             2.8253937    0.23472694665786
             0.6401217    0.81375731841339
 s    1 1.00
             0.1612778                   1

28 0
 s    3 1.00
             18.731137    0.03349459952309
             2.8253937    0.23472694665786
             0.6401217    0.81375731841339
 s    1 1.00
             0.1612778                   1

29 0
 s    3 1.00
             18.731137    0.03349459952309
             2.8253937    0.23472694665786
             0.6401217    0.81375731841339
 s    1 1.00
             0.1612778                   1

30 0
 s    3 1.00
             18.731137    0.03349459952309
             2.8253937    0.23472694665786
             0.6401217    0.81375731841339
 s    1 1.00
             0.1612778                   1

31 0
 s    3 1.00
             18.731137    0.03349459952309
             2.8253937    0.23472694665786
             0.6401217    0.81375731841339
 s    1 1.00
             0.1612778                   1

32 0
 s    3 1.00
             18.731137    0.03349459952309
             2.8253937    0.23472694665786
             0.6401217    0.81375731841339
 s    1 1.00
             0.1612778                   1

33 0
 s    6 1.00
             3047.5249  0.0018347001629433
             457.36951    0.01403730124668
             103.94869   0.068842606114048
             29.210155    0.23218442062076
              9.286663    0.46794134155879
              3.163927    0.36231203217765
 s    3 1.00
             7.8682724   -0.11933240861517
             1.8812885   -0.16085421161283
             0.5442493     1.1434564825515
 s    1 1.00
             0.1687144                   1
 p    3 1.00
             7.8682724   0.068999095584993
             1.8812885    0.31642397975315
             0.5442493    0.74430825237435
 p    1 1.00
             0.1687144                   1
 d    1 1.00
                   0.8                   1

34 0
 s    6 1.00
             3047.5249  0.0018347001629433
             457.36951    0.01403730124668
             103.94869   0.068842606114048
             29.210155    0.23218442062076
              9.286663    0.46794134155879
              3.163927    0.36231203217765
 s    3 1.00
             7.8682724   -0.11933240861517
             1.8812885   -0.16085421161283
             0.5442493     1.1434564825515
 s    1 1.00
             0.1687144                   1
 p    3 1.00
             7.8682724   0.068999095584993
             1.8812885    0.31642397975315
             0.5442493    0.74430825237435
 p    1 1.00
             0.1687144                   1
 d    1 1.00
                   0.8                   1

35 0
 s    3 1.00
             18.731137    0.03349459952309
             2.8253937    0.23472694665786
             0.6401217    0.81375731841339
 s    1 1.00
             0.1612778                   1

36 0
 s    6 1.00
             3047.5249  0.0018347001629433
             457.36951    0.01403730124668
             103.94869   0.068842606114048
             29.210155    0.23218442062076
              9.286663    0.46794134155879
              3.163927    0.36231203217765
 s    3 1.00
             7.8682724   -0.11933240861517
             1.8812885   -0.16085421161283
             0.5442493     1.1434564825515
 s    1 1.00
             0.1687144                   1
 p    3 1.00
             7.8682724   0.068999095584993
             1.8812885    0.31642397975315
             0.5442493    0.74430825237435
 p    1 1.00
             0.1687144                   1
 d    1 1.00
                   0.8                   1

37 0
 s    3 1.00
             18.731137    0.03349459952309
             2.8253937    0.23472694665786
             0.6401217    0.81375731841339
 s    1 1.00
             0.1612778                   1

38 0
 s    3 1.00
             18.731137    0.03349459952309
             2.8253937    0.23472694665786
             0.6401217    0.81375731841339
 s    1 1.00
             0.1612778                   1

39 0
 s    6 1.00
             3047.5249  0.0018347001629433
             457.36951    0.01403730124668
             103.94869   0.068842606114048
             29.210155    0.23218442062076
              9.286663    0.46794134155879
              3.163927    0.36231203217765
 s    3 1.00
             7.8682724   -0.11933240861517
             1.8812885   -0.16085421161283
             0.5442493     1.1434564825515
 s    1 1.00
             0.1687144                   1
 p    3 1.00
             7.8682724   0.068999095584993
             1.8812885    0.31642397975315
             0.5442493    0.74430825237435
 p    1 1.00
             0.1687144                   1
 d    1 1.00
                   0.8                   1

40 0
 s    6 1.00
             3047.5249  0.0018347001629433
             457.36951    0.01403730124668
             103.94869   0.068842606114048
             29.210155    0.23218442062076
              9.286663    0.46794134155879
              3.163927    0.36231203217765
 s    3 1.00
             7.8682724   -0.11933240861517
             1.8812885   -0.16085421161283
             0.5442493     1.1434564825515
 s    1 1.00
             0.1687144                   1
 p    3 1.00
             7.8682724   0.068999095584993
             1.8812885    0.31642397975315
             0.5442493    0.74430825237435
 p    1 1.00
             0.1687144                   1
 d    1 1.00
                   0.8                   1

41 0
 s    3 1.00
             18.731137    0.03349459952309
             2.8253937    0.23472694665786
             0.6401217    0.81375731841339
 s    1 1.00
             0.1612778                   1

42 0
 s    6 1.00
             5484.6717   0.001831099805527
             825.23495   0.013950098518422
             188.04696    0.06844509273075
               52.9645    0.23271427528445
              16.89757    0.47019295006289
             5.7996353    0.35852086192309
 s    3 1.00
             15.539616   -0.11077750382508
             3.5999336   -0.14802630511126
             1.0137618     1.1307670390447
 s    1 1.00
             0.2700058                   1
 p    3 1.00
             15.539616   0.070874299543311
             3.5999336    0.33975279781076
             1.0137618    0.72715859531445
 p    1 1.00
             0.2700058                   1
 d    1 1.00
                   0.8                   1

43 0
 s    3 1.00
             18.731137    0.03349459952309
             2.8253937    0.23472694665786
             0.6401217    0.81375731841339
 s    1 1.00
             0.1612778                   1

[5d]
[7f]
[9g]

[MO]
 Sym= A
 Ene=               0
 Spin= Alpha
 Occup=    1.00000
   1    -0.011078080138461
   2    0.0012840038068988
   3    -0.0073282603274289
   4    -0.00043817740427794
   5    7.5767597649392e-05
   6    -0.0013384992270505
   7    -0.000723162760561
   8    -0.00084668314471555
   9    0.0044171531061072
  10    0.0010859747499955
  11    0.0010182261966973
  12    -0.00015736095782189
  13    0.00023950832338592
  14    -6.3274390360398e-05
  15    0.00043129382472951
  16    0.00090744686736206
  17     -0.99454037085114
  18    -0.038692771376064
  19     0.030065864599592
  20    -0.00083510035485562
  21    -0.00019149777153408
  22    0.00042408487332652
  23    0.0034463565756575
  24    0.0010500708044224
  25    0.00018721601949157
  26    -0.00085152538002866
  27    0.00026552291882579
  28    0.00040415572498371
  29    -0.00024901677934823
  30    -0.0001144661287292
  31    0.0012412016574471
  32    -0.0041918449364027
  33    -0.024501255769901
  34    0.00056272597536797
  35    -0.0042710220613106
  36    -0.00094262475389048
  37    -0.00040676125559962
  38    0.0014451914941643
  39    0.0005639484743843
  40    -0.0017488293039262
  41    -0.005239297394984
  42    0.00074615601648305
  43    -0.0011493367220205
  44    -0.00055455530034251
  45    0.00039244669372881
  46    0.00047560478533131
  47    0.00053756106462305
  48    0.00061629274143596
  49    -0.0017586603686731
  50    0.00041122727839856
  51    -0.000396953410049
  52    -3.0315948897075e-05
  53    -8.5652930926401e-05
  54    0.00041625880011568
  55    0.0015890561378968
  56    -1.1919957026094e-05
  57    -0.0056267536179651
  58    4.2337363408116e-05
  59    -8.2397076411127e-05
  60    -0.00017854255781462
  61    0.0001194205605205
  62    -0.00011080767361503
  63    0.00036133818325654
  64    8.6910007187368e-05
  65    3.7985974857513e-06
  66    6.0503841430795e-06
  67    -1.1059531270716e-06
  68    2.9444099532873e-06
  69    -5.1924080914508e-06
  70    -1.3028360214788e-06
  71    4.711315454136e-06
  72    -1.0894824204529e-06
  73    -5.3500891071728e-06
  74    -2.1951382428515e-05
  75    -6.6427588332695e-06
  76    7.339034924046e-07
  77    5.6771599591783e-07
  78    -5.2636624275749e-07
  79    -4.6897941152466e-07
  80    9.8401141644201e-08
  81    -2.6757265742889e-06
  82    -1.302111723402e-05
  83    -1.7822718405006e-06
  84    3.247409867935e-06
  85    7.112010648266e-05
  86    -9.2365855619765e-06
  87    -2.9309170732848e-06
  88    -1.5634788728435e-05
  89    -2.4288072169562e-05
  90    5.1163174430633e-05
  91    -2.1453962053151e-05
  92    -1.0369825619511e-06
  93    1.5883764100981e-06
  94    -3.2857912507532e-06
  95    7.8935299818708e-08
  96    4.8797370103927e-07
  97    -1.1192625486516e-05
  98    -2.0533478556576e-05
  99    2.5568801363147e-06
 100    1.6567723462767e-05
 101    2.3469527271041e-06
 102    8.1092726537497e-06
 103    -0.00015025882149075
 104    1.5804564069078e-05
 105    2.1772635144942e-05
 106    2.5763740046355e-06
 107    0.00016727661776244
 108    -0.00012799606273575
 109    -0.00014771249694939
 110    7.0161082353388e-06
 111    3.5458593228218e-06
 112    -1.3837652444298e-06
 113    -2.8894508306998e-06
 114    4.076635511889e-06
 115    5.8025415064202e-06
 116    2.811633719009e-05
 117    -0.00023900357341785
 118    5.2923512681965e-06
 119    -8.4274772379517e-06
 120    -1.0079603194517e-05
 121    5.5946212383468e-05
 122    -2.6974770869758e-05
 123    -2.4073525342182e-05
 124    -5.7971632311745e-07
 125    2.276347144338e-06
 126    2.1076412769748e-06
 127    -1.1078834977585e-06
 128    1.4378213404616e-06
 129    -8.4071469100433e-06
 130    7.5420912516496e-05
 131    -5.1955580966914e-05
 132    -1.641610335976e-05
 133    7.0318759430324e-06
 134    -0.00010091338232914
 135    0.00021930615522152
 136    -3.3951700389605e-05
 137    0.00033434227194882
 138    -1.15330988408e-05
 139    -6.0729282340475e-06
 140    -1.5378812944653e-06
 141    -2.6976293365163e-06
 142    -3.8379117616332e-06
 143    1.0041525386989e-05
 144    3.4018203627491e-06
 145    -0.00010160167753792
 146    -2.0269653244203e-05
 147    8.530462137026e-06
 148    2.5225444091004e-05
 149    -5.58952134912e-05
 150    6.183367527373e-05
 151    3.0545799807328e-05
 152    8.4244205813826e-06
 153    3.8675698436302e-06
 154    9.9294620476072e-07
 155    -4.5191855893753e-06
 156    3.8501032626416e-06
 157    3.893501071257e-07
 158    -7.7450776177163e-06
 159    -1.8367301174177e-05
 160    -6.1406357704719e-06
 161    4.9985840637919e-06
 162    -3.5478671447431e-06
 163    3.3766198945515e-05
 164    7.9370186837198e-08
 165    -8.4729777457975e-06
 166    -1.7940537648193e-06
 167    4.427256991502e-07
 168    -1.8547812320024e-07
 169    2.6957661657495e-07
 170    -4.4991741670851e-07
 171    1.4275014209316e-06
 172    1.0444167693292e-05
 173    -2.3883008964727e-05
 174    1.5883407180958e-06
 175    -1.9638010165067e-06
 176    -6.9458843187125e-06
 177    2.6291712459734e-05
 178    2.5934072449912e-06
 179    3.8953874779091e-05
 180    -1.4663557225401e-06
 181    -1.9815699802549e-06
 182    5.2019616230975e-08
 183    1.2162620416202e-06
 184    -3.23594016433e-07
 185    -1.3756523806661e-06
 186    2.6943783647563e-05
 187    -8.0625260674474e-06
 188    -4.2907511409014e-06
 189    -4.6156284801034e-06
 190    -2.3291138924606e-05
 191    -1.1587321957379e-05
 192    -6.0776980905744e-06
 193    3.0080033639335e-05
 194    -3.2623374147092e-06
 195     4.89292868138e-07
 196    -1.4609862445008e-06
 197    3.8101060319957e-07
 198    -1.8821489836904e-09
 199    5.2133394826123e-06
 200    2.3689955972496e-06
 201    -5.4844310311128e-06
 202    -3.3369215278077e-05
 203    1.2090308343433e-05
 204    3.7779604115675e-06
 205    -1.950063995339e-06
 206    1.8609162160456e-05
 207    -7.1279259784582e-06
 208    7.4726266581273e-05
 209    -3.1776373037835e-06
 210    3.0453303288478e-05
 211    -2.3825604542199e-06
 212    -1.0077233915738e-05
 213    -1.9791815218532e-06
 214    1.0339740193786e-05
 215    1.7540182928246e-06
 216    6.6149294058874e-05
 217    -3.2004771029864e-06
 218    -1.1999944058592e-05
 219     1.19132116902e-06
 220    -4.5296979098767e-06
 221    8.2464939798633e-05
 222    -0.00010463961191105
 223    -0.00062391761562407
 224    -9.3612794572036e-05
 225    -5.8358688702145e-05
 226    0.00020715862252037
 227    -0.00056908024865157
 228    -0.00023595797223474
 229    0.00065621873790189
 230    8.3051832885874e-06
 231    3.2344919437255e-05
 232    1.3145264024236e-05
 233    -1.8213487999258e-05
 234    -1.8949926561668e-05
 235    -0.00014031236072743
 236    0.00035240993898369
 237    -0.00014100986419079
 238    0.0001989699019225
 239    0.00015102971899894
 240    -0.00053100253657306
 241    -1.4499334411528e-05
 242    -0.00019161323010737
 243    0.0012456101062237
 244    -1.9604182818583e-05
 245    -4.9784284327464e-05
 246    -1.0235808408846e-05
 247    -1.0117142933475e-05
 248    -1.0463059569091e-06
 249    6.0715344073031e-06
 250    -0.00030894517358244
 251    0.0003323766617025
 252    0.0003933133282578
 253    -0.00099156696890394
 254    0.0004550241178782
 255    0.00010285526023431
 256    0.00018214626547113
 257    0.0007859374566996
 258    -0.00027967350525359
 259    0.0017218191030404
 260    9.865876150124e-05
 261    1.927605414183e-05
 262    1.5209506591024e-05
 263    -0.0001393514948966
 264    -9.9592012791046e-05
 265    0.00024103438377401
 266    -0.00014132978567388
 267    -0.0001862715048609
 268    0.00039207083257473
 269    3.6945432357352e-06
 270    0.0003385603453404
 271    -0.0044166654272245
 272    5.7504813939036e-05
 273    0.00020006786920239
 274    1.5970694863317e-05
 275    0.0019206795633708
 276    0.0014000642133455
 277    -0.0016873056196246
 278    -5.5249415925962e-05
 279    0.00011965717015662
 280    2.6166980984593e-05
 281    -2.5892146183724e-05