[Molden Format]
made by pyscf v[2.0.1]
[Atoms] (AU)
C   1   6     0.69100024066471     0.64692934207205    -3.48223131169301
H   2   1     2.68052439830868     1.13355088658700    -3.25784032593313
C   3   6    -0.36286361513219     0.85440132524594    -5.97030179418974
H   4   1    -2.35448549047279     0.36322488579172    -6.17995817793143
C   5   6     0.93697958957450     1.61209284601821    -8.05828437677121
H   6   1     0.93570604399073     3.60645829547735    -8.57155587183010
C   7   6     2.33064164489587    -0.08500019610028    -9.65009622470686
H   8   1     2.31545752956704    -2.07726916449957    -9.11124928966168
H   9   1     1.55630230933075    -1.92953025305990    12.99630010416247
C   10   6     0.75233899775814    -2.21270439606481    11.10705728102219
H   11   1    -0.43433408177274    -3.90944857546550    11.22216085340412
C   12   6     2.86362581178706    -2.63237380607947     9.17926416456045
H   13   1     4.39038949912609    -1.24955421540245     9.49899813497433
H   14   1     3.74629220191363    -4.48798724300892     9.47414880959024
C   15   6     2.02478325613682    -2.42177285709634     6.44560829588644
C   16   6     3.88048732735477    -3.58795445234514     4.61402886975252
C   17   6    -0.18412382258602    -1.30464291234259     5.76021113872346
C   18   6    -2.10044360464350    -0.26837831858460     7.71610340967100
C   19   6    -3.08956938670431     2.35282328359417     6.88693925039594
C   20   6    -4.37372924086464    -2.09766595989678     7.93610724222001
C   21   6    -0.83850430601230     0.06372213486173    10.33002307638377
H   22   1     0.38411922151109     1.74281358582432    10.27380136542181
H   23   1    -2.30980003007874     0.45460143924521    11.73986301809809
H   24   1     4.58527064644668    -5.38706904487420     5.36778158031719
H   25   1     5.54944938085014    -2.37631462192748     4.35398898413318
H   26   1     3.06633019150423    -3.94118377050688     2.75255466040884
H   27   1    -4.17727778763735     2.26573369139522     5.12914900961283
H   28   1    -1.52662344944051     3.68001877445626     6.59540397144508
H   29   1    -4.32916174397830     3.13643051467482     8.35225460090378
H   30   1    -5.32329548508442    -2.36691813602939     6.11583672749896
H   31   1    -5.77989366602257    -1.33896741843465     9.25748940450990
H   32   1    -3.79310905208926    -3.96389819310853     8.61386170102686
C   33   6    -1.01100794811226    -1.06331657314144     3.11929490449947
C   34   6     0.37686231036534    -0.33275864505552     1.09165013605873
H   35   1    -3.01671213906703    -1.40297922279997     2.77827895090944
C   36   6    -0.64382707979370    -0.11591880174385    -1.42063131251064
H   37   1     2.35569259782137     0.17174499283897     1.33641070251401
H   38   1    -2.63317482980319    -0.60229203511219    -1.66119700387645
C   39   6     3.64869579482306     0.58263290243353   -11.74621951745329
C   40   6     5.00865186237336    -1.29151691020822   -13.24458681490645
H   41   1     3.74083961582251     2.53414495508714   -12.38721761884598
O   42   8     6.22738846457655    -0.82464446464225   -15.14656876600025
H   43   1     4.86298794977594    -3.26455446446118   -12.51927050350916
[GTO]
1 0
 s    6 1.00
             3047.5249  0.0018347001629433
             457.36951    0.01403730124668
             103.94869   0.068842606114048
             29.210155    0.23218442062076
              9.286663    0.46794134155879
              3.163927    0.36231203217765
 s    3 1.00
             7.8682724   -0.11933240861517
             1.8812885   -0.16085421161283
             0.5442493     1.1434564825515
 s    1 1.00
             0.1687144                   1
 p    3 1.00
             7.8682724   0.068999095584993
             1.8812885    0.31642397975315
             0.5442493    0.74430825237435
 p    1 1.00
             0.1687144                   1
 d    1 1.00
                   0.8                   1

2 0
 s    3 1.00
             18.731137    0.03349459952309
             2.8253937    0.23472694665786
             0.6401217    0.81375731841339
 s    1 1.00
             0.1612778                   1

3 0
 s    6 1.00
             3047.5249  0.0018347001629433
             457.36951    0.01403730124668
             103.94869   0.068842606114048
             29.210155    0.23218442062076
              9.286663    0.46794134155879
              3.163927    0.36231203217765
 s    3 1.00
             7.8682724   -0.11933240861517
             1.8812885   -0.16085421161283
             0.5442493     1.1434564825515
 s    1 1.00
             0.1687144                   1
 p    3 1.00
             7.8682724   0.068999095584993
             1.8812885    0.31642397975315
             0.5442493    0.74430825237435
 p    1 1.00
             0.1687144                   1
 d    1 1.00
                   0.8                   1

4 0
 s    3 1.00
             18.731137    0.03349459952309
             2.8253937    0.23472694665786
             0.6401217    0.81375731841339
 s    1 1.00
             0.1612778                   1

5 0
 s    6 1.00
             3047.5249  0.0018347001629433
             457.36951    0.01403730124668
             103.94869   0.068842606114048
             29.210155    0.23218442062076
              9.286663    0.46794134155879
              3.163927    0.36231203217765
 s    3 1.00
             7.8682724   -0.11933240861517
             1.8812885   -0.16085421161283
             0.5442493     1.1434564825515
 s    1 1.00
             0.1687144                   1
 p    3 1.00
             7.8682724   0.068999095584993
             1.8812885    0.31642397975315
             0.5442493    0.74430825237435
 p    1 1.00
             0.1687144                   1
 d    1 1.00
                   0.8                   1

6 0
 s    3 1.00
             18.731137    0.03349459952309
             2.8253937    0.23472694665786
             0.6401217    0.81375731841339
 s    1 1.00
             0.1612778                   1

7 0
 s    6 1.00
             3047.5249  0.0018347001629433
             457.36951    0.01403730124668
             103.94869   0.068842606114048
             29.210155    0.23218442062076
              9.286663    0.46794134155879
              3.163927    0.36231203217765
 s    3 1.00
             7.8682724   -0.11933240861517
             1.8812885   -0.16085421161283
             0.5442493     1.1434564825515
 s    1 1.00
             0.1687144                   1
 p    3 1.00
             7.8682724   0.068999095584993
             1.8812885    0.31642397975315
             0.5442493    0.74430825237435
 p    1 1.00
             0.1687144                   1
 d    1 1.00
                   0.8                   1

8 0
 s    3 1.00
             18.731137    0.03349459952309
             2.8253937    0.23472694665786
             0.6401217    0.81375731841339
 s    1 1.00
             0.1612778                   1

9 0
 s    3 1.00
             18.731137    0.03349459952309
             2.8253937    0.23472694665786
             0.6401217    0.81375731841339
 s    1 1.00
             0.1612778                   1

10 0
 s    6 1.00
             3047.5249  0.0018347001629433
             457.36951    0.01403730124668
             103.94869   0.068842606114048
             29.210155    0.23218442062076
              9.286663    0.46794134155879
              3.163927    0.36231203217765
 s    3 1.00
             7.8682724   -0.11933240861517
             1.8812885   -0.16085421161283
             0.5442493     1.1434564825515
 s    1 1.00
             0.1687144                   1
 p    3 1.00
             7.8682724   0.068999095584993
             1.8812885    0.31642397975315
             0.5442493    0.74430825237435
 p    1 1.00
             0.1687144                   1
 d    1 1.00
                   0.8                   1

11 0
 s    3 1.00
             18.731137    0.03349459952309
             2.8253937    0.23472694665786
             0.6401217    0.81375731841339
 s    1 1.00
             0.1612778                   1

12 0
 s    6 1.00
             3047.5249  0.0018347001629433
             457.36951    0.01403730124668
             103.94869   0.068842606114048
             29.210155    0.23218442062076
              9.286663    0.46794134155879
              3.163927    0.36231203217765
 s    3 1.00
             7.8682724   -0.11933240861517
             1.8812885   -0.16085421161283
             0.5442493     1.1434564825515
 s    1 1.00
             0.1687144                   1
 p    3 1.00
             7.8682724   0.068999095584993
             1.8812885    0.31642397975315
             0.5442493    0.74430825237435
 p    1 1.00
             0.1687144                   1
 d    1 1.00
                   0.8                   1

13 0
 s    3 1.00
             18.731137    0.03349459952309
             2.8253937    0.23472694665786
             0.6401217    0.81375731841339
 s    1 1.00
             0.1612778                   1

14 0
 s    3 1.00
             18.731137    0.03349459952309
             2.8253937    0.23472694665786
             0.6401217    0.81375731841339
 s    1 1.00
             0.1612778                   1

15 0
 s    6 1.00
             3047.5249  0.0018347001629433
             457.36951    0.01403730124668
             103.94869   0.068842606114048
             29.210155    0.23218442062076
              9.286663    0.46794134155879
              3.163927    0.36231203217765
 s    3 1.00
             7.8682724   -0.11933240861517
             1.8812885   -0.16085421161283
             0.5442493     1.1434564825515
 s    1 1.00
             0.1687144                   1
 p    3 1.00
             7.8682724   0.068999095584993
             1.8812885    0.31642397975315
             0.5442493    0.74430825237435
 p    1 1.00
             0.1687144                   1
 d    1 1.00
                   0.8                   1

16 0
 s    6 1.00
             3047.5249  0.0018347001629433
             457.36951    0.01403730124668
             103.94869   0.068842606114048
             29.210155    0.23218442062076
              9.286663    0.46794134155879
              3.163927    0.36231203217765
 s    3 1.00
             7.8682724   -0.11933240861517
             1.8812885   -0.16085421161283
             0.5442493     1.1434564825515
 s    1 1.00
             0.1687144                   1
 p    3 1.00
             7.8682724   0.068999095584993
             1.8812885    0.31642397975315
             0.5442493    0.74430825237435
 p    1 1.00
             0.1687144                   1
 d    1 1.00
                   0.8                   1

17 0
 s    6 1.00
             3047.5249  0.0018347001629433
             457.36951    0.01403730124668
             103.94869   0.068842606114048
             29.210155    0.23218442062076
              9.286663    0.46794134155879
              3.163927    0.36231203217765
 s    3 1.00
             7.8682724   -0.11933240861517
             1.8812885   -0.16085421161283
             0.5442493     1.1434564825515
 s    1 1.00
             0.1687144                   1
 p    3 1.00
             7.8682724   0.068999095584993
             1.8812885    0.31642397975315
             0.5442493    0.74430825237435
 p    1 1.00
             0.1687144                   1
 d    1 1.00
                   0.8                   1

18 0
 s    6 1.00
             3047.5249  0.0018347001629433
             457.36951    0.01403730124668
             103.94869   0.068842606114048
             29.210155    0.23218442062076
              9.286663    0.46794134155879
              3.163927    0.36231203217765
 s    3 1.00
             7.8682724   -0.11933240861517
             1.8812885   -0.16085421161283
             0.5442493     1.1434564825515
 s    1 1.00
             0.1687144                   1
 p    3 1.00
             7.8682724   0.068999095584993
             1.8812885    0.31642397975315
             0.5442493    0.74430825237435
 p    1 1.00
             0.1687144                   1
 d    1 1.00
                   0.8                   1

19 0
 s    6 1.00
             3047.5249  0.0018347001629433
             457.36951    0.01403730124668
             103.94869   0.068842606114048
             29.210155    0.23218442062076
              9.286663    0.46794134155879
              3.163927    0.36231203217765
 s    3 1.00
             7.8682724   -0.11933240861517
             1.8812885   -0.16085421161283
             0.5442493     1.1434564825515
 s    1 1.00
             0.1687144                   1
 p    3 1.00
             7.8682724   0.068999095584993
             1.8812885    0.31642397975315
             0.5442493    0.74430825237435
 p    1 1.00
             0.1687144                   1
 d    1 1.00
                   0.8                   1

20 0
 s    6 1.00
             3047.5249  0.0018347001629433
             457.36951    0.01403730124668
             103.94869   0.068842606114048
             29.210155    0.23218442062076
              9.286663    0.46794134155879
              3.163927    0.36231203217765
 s    3 1.00
             7.8682724   -0.11933240861517
             1.8812885   -0.16085421161283
             0.5442493     1.1434564825515
 s    1 1.00
             0.1687144                   1
 p    3 1.00
             7.8682724   0.068999095584993
             1.8812885    0.31642397975315
             0.5442493    0.74430825237435
 p    1 1.00
             0.1687144                   1
 d    1 1.00
                   0.8                   1

21 0
 s    6 1.00
             3047.5249  0.0018347001629433
             457.36951    0.01403730124668
             103.94869   0.068842606114048
             29.210155    0.23218442062076
              9.286663    0.46794134155879
              3.163927    0.36231203217765
 s    3 1.00
             7.8682724   -0.11933240861517
             1.8812885   -0.16085421161283
             0.5442493     1.1434564825515
 s    1 1.00
             0.1687144                   1
 p    3 1.00
             7.8682724   0.068999095584993
             1.8812885    0.31642397975315
             0.5442493    0.74430825237435
 p    1 1.00
             0.1687144                   1
 d    1 1.00
                   0.8                   1

22 0
 s    3 1.00
             18.731137    0.03349459952309
             2.8253937    0.23472694665786
             0.6401217    0.81375731841339
 s    1 1.00
             0.1612778                   1

23 0
 s    3 1.00
             18.731137    0.03349459952309
             2.8253937    0.23472694665786
             0.6401217    0.81375731841339
 s    1 1.00
             0.1612778                   1

24 0
 s    3 1.00
             18.731137    0.03349459952309
             2.8253937    0.23472694665786
             0.6401217    0.81375731841339
 s    1 1.00
             0.1612778                   1

25 0
 s    3 1.00
             18.731137    0.03349459952309
             2.8253937    0.23472694665786
             0.6401217    0.81375731841339
 s    1 1.00
             0.1612778                   1

26 0
 s    3 1.00
             18.731137    0.03349459952309
             2.8253937    0.23472694665786
             0.6401217    0.81375731841339
 s    1 1.00
             0.1612778                   1

27 0
 s    3 1.00
             18.731137    0.03349459952309
             2.8253937    0.23472694665786
             0.6401217    0.81375731841339
 s    1 1.00
             0.1612778                   1

28 0
 s    3 1.00
             18.731137    0.03349459952309
             2.8253937    0.23472694665786
             0.6401217    0.81375731841339
 s    1 1.00
             0.1612778                   1

29 0
 s    3 1.00
             18.731137    0.03349459952309
             2.8253937    0.23472694665786
             0.6401217    0.81375731841339
 s    1 1.00
             0.1612778                   1

30 0
 s    3 1.00
             18.731137    0.03349459952309
             2.8253937    0.23472694665786
             0.6401217    0.81375731841339
 s    1 1.00
             0.1612778                   1

31 0
 s    3 1.00
             18.731137    0.03349459952309
             2.8253937    0.23472694665786
             0.6401217    0.81375731841339
 s    1 1.00
             0.1612778                   1

32 0
 s    3 1.00
             18.731137    0.03349459952309
             2.8253937    0.23472694665786
             0.6401217    0.81375731841339
 s    1 1.00
             0.1612778                   1

33 0
 s    6 1.00
             3047.5249  0.0018347001629433
             457.36951    0.01403730124668
             103.94869   0.068842606114048
             29.210155    0.23218442062076
              9.286663    0.46794134155879
              3.163927    0.36231203217765
 s    3 1.00
             7.8682724   -0.11933240861517
             1.8812885   -0.16085421161283
             0.5442493     1.1434564825515
 s    1 1.00
             0.1687144                   1
 p    3 1.00
             7.8682724   0.068999095584993
             1.8812885    0.31642397975315
             0.5442493    0.74430825237435
 p    1 1.00
             0.1687144                   1
 d    1 1.00
                   0.8                   1

34 0
 s    6 1.00
             3047.5249  0.0018347001629433
             457.36951    0.01403730124668
             103.94869   0.068842606114048
             29.210155    0.23218442062076
              9.286663    0.46794134155879
              3.163927    0.36231203217765
 s    3 1.00
             7.8682724   -0.11933240861517
             1.8812885   -0.16085421161283
             0.5442493     1.1434564825515
 s    1 1.00
             0.1687144                   1
 p    3 1.00
             7.8682724   0.068999095584993
             1.8812885    0.31642397975315
             0.5442493    0.74430825237435
 p    1 1.00
             0.1687144                   1
 d    1 1.00
                   0.8                   1

35 0
 s    3 1.00
             18.731137    0.03349459952309
             2.8253937    0.23472694665786
             0.6401217    0.81375731841339
 s    1 1.00
             0.1612778                   1

36 0
 s    6 1.00
             3047.5249  0.0018347001629433
             457.36951    0.01403730124668
             103.94869   0.068842606114048
             29.210155    0.23218442062076
              9.286663    0.46794134155879
              3.163927    0.36231203217765
 s    3 1.00
             7.8682724   -0.11933240861517
             1.8812885   -0.16085421161283
             0.5442493     1.1434564825515
 s    1 1.00
             0.1687144                   1
 p    3 1.00
             7.8682724   0.068999095584993
             1.8812885    0.31642397975315
             0.5442493    0.74430825237435
 p    1 1.00
             0.1687144                   1
 d    1 1.00
                   0.8                   1

37 0
 s    3 1.00
             18.731137    0.03349459952309
             2.8253937    0.23472694665786
             0.6401217    0.81375731841339
 s    1 1.00
             0.1612778                   1

38 0
 s    3 1.00
             18.731137    0.03349459952309
             2.8253937    0.23472694665786
             0.6401217    0.81375731841339
 s    1 1.00
             0.1612778                   1

39 0
 s    6 1.00
             3047.5249  0.0018347001629433
             457.36951    0.01403730124668
             103.94869   0.068842606114048
             29.210155    0.23218442062076
              9.286663    0.46794134155879
              3.163927    0.36231203217765
 s    3 1.00
             7.8682724   -0.11933240861517
             1.8812885   -0.16085421161283
             0.5442493     1.1434564825515
 s    1 1.00
             0.1687144                   1
 p    3 1.00
             7.8682724   0.068999095584993
             1.8812885    0.31642397975315
             0.5442493    0.74430825237435
 p    1 1.00
             0.1687144                   1
 d    1 1.00
                   0.8                   1

40 0
 s    6 1.00
             3047.5249  0.0018347001629433
             457.36951    0.01403730124668
             103.94869   0.068842606114048
             29.210155    0.23218442062076
              9.286663    0.46794134155879
              3.163927    0.36231203217765
 s    3 1.00
             7.8682724   -0.11933240861517
             1.8812885   -0.16085421161283
             0.5442493     1.1434564825515
 s    1 1.00
             0.1687144                   1
 p    3 1.00
             7.8682724   0.068999095584993
             1.8812885    0.31642397975315
             0.5442493    0.74430825237435
 p    1 1.00
             0.1687144                   1
 d    1 1.00
                   0.8                   1

41 0
 s    3 1.00
             18.731137    0.03349459952309
             2.8253937    0.23472694665786
             0.6401217    0.81375731841339
 s    1 1.00
             0.1612778                   1

42 0
 s    6 1.00
             5484.6717   0.001831099805527
             825.23495   0.013950098518422
             188.04696    0.06844509273075
               52.9645    0.23271427528445
              16.89757    0.47019295006289
             5.7996353    0.35852086192309
 s    3 1.00
             15.539616   -0.11077750382508
             3.5999336   -0.14802630511126
             1.0137618     1.1307670390447
 s    1 1.00
             0.2700058                   1
 p    3 1.00
             15.539616   0.070874299543311
             3.5999336    0.33975279781076
             1.0137618    0.72715859531445
 p    1 1.00
             0.2700058                   1
 d    1 1.00
                   0.8                   1

43 0
 s    3 1.00
             18.731137    0.03349459952309
             2.8253937    0.23472694665786
             0.6401217    0.81375731841339
 s    1 1.00
             0.1612778                   1

[5d]
[7f]
[9g]

[MO]
 Sym= A
 Ene=               0
 Spin= Alpha
 Occup=    1.00000
   1     0.013884422442503
   2    -0.0012499493123929
   3    0.0078574938656211
   4    0.00042070228884059
   5    -0.00016734695544596
   6     0.001332148447742
   7    0.00086553839304035
   8    0.0014522657089179
   9    -0.0061798142515103
  10    -0.001016531840497
  11    -0.0009695351241785
  12    0.00015869653191505
  13    -0.00020788231389069
  14    5.9111669688673e-05
  15    -0.0004920728608712
  16    -0.00093280427813327
  17      0.99476645605285
  18     0.039330413480653
  19    -0.031729307613132
  20    0.0010516608856241
  21    0.00021210039487063
  22    -0.00068318821383811
  23    -0.004134098019524
  24    -0.0012392720199532
  25    -0.00087303356390957
  26    0.00080692892164004
  27    -0.00032533319058893
  28    -0.0003496622537424
  29    0.00027546458412708
  30    0.0002073878599513
  31    -0.0013138541996725
  32    0.0041957335094444
  33     0.013381716551111
  34    -0.00034976502225629
  35    0.0013648724642835
  36    0.00095983056470376
  37    0.00036852733512729
  38    -0.0012982193956606
  39    -0.0027982702944099
  40    0.0037521679588598
  41    0.0044587821087177
  42    -0.00067056695994682
  43    0.0013286111390416
  44    0.00053336843783128
  45    -0.00039267465119573
  46    -0.00041727944122598
  47    -0.00060964339028652
  48    -0.00063649700553206
  49    0.00021534972274431
  50    -0.00057343326470053
  51    0.00022175591708349
  52    0.00030735755478483
  53    1.4197286858263e-05
  54    -0.00043372028025749
  55    -0.0055201115185939
  56    0.0011547998312313
  57    0.0075220246323564
  58    -0.00017426625809226
  59    -1.5664508258053e-05
  60    0.00016107164833112
  61    -0.00024566324688869
  62    -0.00023740766473804
  63    -0.00053956237946893
  64    0.00023177536274883
  65    -4.642300840736e-06
  66    -5.6055898804439e-06
  67    1.0078603420074e-06
  68    -4.193004217001e-06
  69    4.6641695591202e-06
  70    2.5654517709751e-06
  71    -6.4859316626192e-06
  72    1.0918328528453e-06
  73    1.0339688994451e-05
  74    2.7647939738817e-05
  75    6.1348290409789e-06
  76    -5.676339161325e-07
  77    -5.5705193787246e-07
  78    6.9539270816325e-07
  79    6.5469221153275e-07
  80    -5.227387118244e-08
  81    3.3958254907066e-06
  82    1.6140671605557e-05
  83    2.1332367938686e-06
  84    -2.157529463812e-06
  85    -9.6364154866017e-05
  86     1.01746603433e-05
  87    2.9583093049897e-06
  88    1.825270117581e-05
  89    3.1497802861193e-05
  90    -7.0489584869216e-05
  91    2.5892787994828e-05
  92    1.3086214245545e-06
  93    -2.3993258498417e-06
  94    4.6598161252278e-06
  95    -4.0388219373151e-07
  96    -7.793754175431e-07
  97    1.3231266840395e-05
  98    2.3629288308387e-05
  99    -3.0272760820418e-06
 100    -2.1057207184594e-05
 101    -2.9328163887033e-06
 102    -1.0030036750688e-05
 103    0.00022982840198291
 104    -1.6029209071608e-05
 105    -2.2217213629112e-05
 106    -5.639376859424e-06
 107    -0.00022320064332337
 108    0.00018939099108177
 109    0.00018594457251966
 110    -7.9721063012479e-06
 111    -3.023347841269e-06
 112    1.0696477659045e-06
 113    1.981247327577e-06
 114    -6.3193565049657e-06
 115    -6.2923608092334e-06
 116    -3.2389972278198e-05
 117    0.00028538666510499
 118    -6.3193947703699e-06
 119    9.1265992159543e-06
 120    1.2002823307407e-05
 121    -6.796642767669e-05
 122    2.8152332700321e-05
 123    4.4714512206197e-05
 124    1.0071228732391e-06
 125    -3.6443414668759e-06
 126    -2.8164899950404e-06
 127    1.5699739308332e-06
 128    -2.2667616571127e-06
 129    7.9966092669785e-06
 130    -8.3658001530407e-05
 131    0.00013582086941206
 132    2.322365740917e-05
 133    -9.1522756684492e-07
 134    0.00010550639047645
 135    -0.00034900625331398
 136    3.3287675749894e-05
 137    -0.00045364899466535
 138    1.3786685055479e-05
 139    9.8262317254629e-06
 140    4.2324424480929e-06
 141    3.5621272481714e-06
 142    6.3174237973519e-06
 143    -1.0996633072143e-05
 144    -1.3923237767742e-05
 145    0.00010481398063344
 146    2.0991652889775e-05
 147    -1.0212582673892e-05
 148    -1.9457438444744e-05
 149    5.652808803084e-05
 150    -2.8268915540946e-05
 151    -7.5273337347201e-05
 152    -1.0172304963436e-05
 153    -5.2135572517093e-06
 154    -3.3176432148817e-06
 155    5.3379633809378e-06
 156    -5.7995529013676e-06
 157    7.8678799739127e-07
 158    1.5254260614121e-05
 159    -2.6164007745582e-05
 160    7.2391851244353e-06
 161    -3.1695907589126e-06
 162    1.5505860250643e-06
 163    -5.5270359555527e-05
 164    1.8953507845985e-05
 165    1.5779537758667e-05
 166    3.8842413255962e-06
 167    -1.4587144954792e-06
 168    2.8898812241795e-07
 169    5.2954379675252e-07
 170    1.5037482992001e-06
 171    -1.6375864838745e-06
 172    -1.1874133103628e-05
 173    2.6898311715994e-05
 174    -2.6155137734627e-06
 175    1.8464410424616e-06
 176    1.0547066458874e-05
 177    -9.416262527841e-06
 178    2.1047509485201e-06
 179    -3.51813317586e-05
 180    1.2914273365361e-06
 181    4.104245233966e-06
 182    3.4021351845852e-07
 183    -7.8114919037074e-07
 184    1.7100294823453e-06
 185    3.3440140841401e-07
 186    -3.7453118804569e-05
 187    4.8832028370815e-05
 188    2.9486270917883e-06
 189    4.6662746293626e-06
 190    2.5411713911735e-05
 191    8.2057614513842e-06
 192    -5.5914073415171e-06
 193    -5.3605823031812e-05
 194    4.1201755857938e-06
 195    4.8833198026053e-07
 196    3.4776747326276e-06
 197    -6.2172776735518e-07
 198    3.6390305091515e-07
 199    -7.7905782574473e-06
 200    -4.1292964463493e-07
 201    5.1144373591895e-06
 202    3.8508889108979e-05
 203    -1.4076552697573e-05
 204    -5.9197484322152e-06
 205    3.1751762254546e-06
 206    -2.5338823870864e-05
 207    6.7454947569871e-06
 208    -6.843323782714e-05
 209    7.9128211885894e-06
 210    -3.3778634956193e-05
 211     5.85722714749e-06
 212     1.75468975681e-05
 213    2.6049117633866e-06
 214    -1.7531310545948e-05
 215    -6.0133103236303e-06
 216    -4.5388239230899e-05
 217    4.2835520544592e-06
 218    1.5407239303677e-05
 219    -2.4476639008741e-07
 220    1.5363529760345e-06
 221    -8.946744290907e-05
 222    6.3871662929701e-05
 223    0.0010179779577498
 224    0.00010061851270893
 225    5.7771216764189e-05
 226    -0.00020864630474626
 227    0.00069445875438876
 228    0.00034751378796097
 229    -0.0010743360852305
 230    -1.5127780949458e-06
 231    -4.9474172729214e-05
 232    -2.1767121229912e-05
 233    2.637076521887e-05
 234    2.5484744860312e-05
 235    0.00014676016354232
 236    -0.00033295548550843
 237    -0.00059751725603212
 238    -0.00020497561614121
 239    -0.00017262981995295
 240    0.00056491783866344
 241    0.00024471997921121
 242    0.00029983156256159
 243    -0.0014023625742927
 244    3.0708692178994e-06
 245    6.8379267166459e-05
 246    1.5552452463594e-05
 247    1.5184149351796e-05
 248    -4.174369536041e-06
 249    -1.9379825596754e-05
 250    0.00031724590047376
 251    -0.00034674764987444
 252    -0.00048739972361736
 253    0.0022992328493274
 254    -0.00047921372673322
 255    -0.0001123365319302
 256    -0.00019586864275272
 257    -0.00013964964352982
 258    0.00036744662692948
 259    -0.0019661491652076
 260    -8.3012299286694e-05
 261    -3.7362222506897e-05
 262    -1.7632862843921e-05
 263    0.00016084186433482
 264    9.7814692464646e-05
 265    -0.00026401219666783
 266    0.00017893688926023
 267    0.00020471319188156
 268    -0.0002421739900406
 269    -2.7234440913227e-05
 270    -0.00055519431433555
 271    0.0073670950833883
 272    -2.5270232905826e-05
 273    -0.00014708799503573
 274    9.2678417165759e-05
 275    -0.001553494214292
 276    -0.0030787413275791
 277    0.0030069695276165
 278    9.5986362167349e-05
 279    -0.00019165359811294
 280    -0.000102424510805
 281    -2.5867272440824e-05