[Molden Format]
made by pyscf v[2.0.1]
[Atoms] (AU)
C   1   6     0.69100024066471     0.64692934207205    -3.48223131169301
H   2   1     2.68052439830868     1.13355088658700    -3.25784032593313
C   3   6    -0.36286361513219     0.85440132524594    -5.97030179418974
H   4   1    -2.35448549047279     0.36322488579172    -6.17995817793143
C   5   6     0.93697958957450     1.61209284601821    -8.05828437677121
H   6   1    -0.10682308805726     2.30253989392639    -9.69373588628611
C   7   6     3.64263503193718     1.55467149193689    -8.23832629511906
H   8   1     4.66272936056768     0.85936926442728    -6.58433578959761
H   9   1     1.55630230933075    -1.92953025305990    12.99630010416247
C   10   6     0.75233899775814    -2.21270439606481    11.10705728102219
H   11   1    -0.43433408177274    -3.90944857546550    11.22216085340412
C   12   6     2.86362581178706    -2.63237380607947     9.17926416456045
H   13   1     4.39038949912609    -1.24955421540245     9.49899813497433
H   14   1     3.74629220191363    -4.48798724300892     9.47414880959024
C   15   6     2.02478325613682    -2.42177285709634     6.44560829588644
C   16   6     3.88048732735477    -3.58795445234514     4.61402886975252
C   17   6    -0.18412382258602    -1.30464291234259     5.76021113872346
C   18   6    -2.10044360464350    -0.26837831858460     7.71610340967100
C   19   6    -3.08956938670431     2.35282328359417     6.88693925039594
C   20   6    -4.37372924086464    -2.09766595989678     7.93610724222001
C   21   6    -0.83850430601230     0.06372213486173    10.33002307638377
H   22   1     0.38411922151109     1.74281358582432    10.27380136542181
H   23   1    -2.30980003007874     0.45460143924521    11.73986301809809
H   24   1     4.58527064644668    -5.38706904487420     5.36778158031719
H   25   1     5.54944938085014    -2.37631462192748     4.35398898413318
H   26   1     3.06633019150423    -3.94118377050688     2.75255466040884
H   27   1    -4.17727778763735     2.26573369139522     5.12914900961283
H   28   1    -1.52662344944051     3.68001877445626     6.59540397144508
H   29   1    -4.32916174397830     3.13643051467482     8.35225460090378
H   30   1    -5.32329548508442    -2.36691813602939     6.11583672749896
H   31   1    -5.77989366602257    -1.33896741843465     9.25748940450990
H   32   1    -3.79310905208926    -3.96389819310853     8.61386170102686
C   33   6    -1.01100794811226    -1.06331657314144     3.11929490449947
C   34   6     0.37686231036534    -0.33275864505552     1.09165013605873
H   35   1    -3.01671213906703    -1.40297922279997     2.77827895090944
C   36   6    -0.64382707979370    -0.11591880174385    -1.42063131251064
H   37   1     2.35569259782137     0.17174499283897     1.33641070251401
H   38   1    -2.63317482980319    -0.60229203511219    -1.66119700387645
C   39   6     5.01588399354044     2.28654094702299   -10.27677863573407
C   40   6     7.77080404832789     2.15450646451281   -10.27454889780196
H   41   1     4.11782812209845     2.99683739506263   -11.98462609656630
O   42   8     9.12060555425099     2.77825484064970   -12.03801083010553
H   43   1     8.60983853061047     1.41663292301779    -8.48800399433497
[GTO]
1 0
 s    6 1.00
             3047.5249  0.0018347001629433
             457.36951    0.01403730124668
             103.94869   0.068842606114048
             29.210155    0.23218442062076
              9.286663    0.46794134155879
              3.163927    0.36231203217765
 s    3 1.00
             7.8682724   -0.11933240861517
             1.8812885   -0.16085421161283
             0.5442493     1.1434564825515
 s    1 1.00
             0.1687144                   1
 p    3 1.00
             7.8682724   0.068999095584993
             1.8812885    0.31642397975315
             0.5442493    0.74430825237435
 p    1 1.00
             0.1687144                   1
 d    1 1.00
                   0.8                   1

2 0
 s    3 1.00
             18.731137    0.03349459952309
             2.8253937    0.23472694665786
             0.6401217    0.81375731841339
 s    1 1.00
             0.1612778                   1

3 0
 s    6 1.00
             3047.5249  0.0018347001629433
             457.36951    0.01403730124668
             103.94869   0.068842606114048
             29.210155    0.23218442062076
              9.286663    0.46794134155879
              3.163927    0.36231203217765
 s    3 1.00
             7.8682724   -0.11933240861517
             1.8812885   -0.16085421161283
             0.5442493     1.1434564825515
 s    1 1.00
             0.1687144                   1
 p    3 1.00
             7.8682724   0.068999095584993
             1.8812885    0.31642397975315
             0.5442493    0.74430825237435
 p    1 1.00
             0.1687144                   1
 d    1 1.00
                   0.8                   1

4 0
 s    3 1.00
             18.731137    0.03349459952309
             2.8253937    0.23472694665786
             0.6401217    0.81375731841339
 s    1 1.00
             0.1612778                   1

5 0
 s    6 1.00
             3047.5249  0.0018347001629433
             457.36951    0.01403730124668
             103.94869   0.068842606114048
             29.210155    0.23218442062076
              9.286663    0.46794134155879
              3.163927    0.36231203217765
 s    3 1.00
             7.8682724   -0.11933240861517
             1.8812885   -0.16085421161283
             0.5442493     1.1434564825515
 s    1 1.00
             0.1687144                   1
 p    3 1.00
             7.8682724   0.068999095584993
             1.8812885    0.31642397975315
             0.5442493    0.74430825237435
 p    1 1.00
             0.1687144                   1
 d    1 1.00
                   0.8                   1

6 0
 s    3 1.00
             18.731137    0.03349459952309
             2.8253937    0.23472694665786
             0.6401217    0.81375731841339
 s    1 1.00
             0.1612778                   1

7 0
 s    6 1.00
             3047.5249  0.0018347001629433
             457.36951    0.01403730124668
             103.94869   0.068842606114048
             29.210155    0.23218442062076
              9.286663    0.46794134155879
              3.163927    0.36231203217765
 s    3 1.00
             7.8682724   -0.11933240861517
             1.8812885   -0.16085421161283
             0.5442493     1.1434564825515
 s    1 1.00
             0.1687144                   1
 p    3 1.00
             7.8682724   0.068999095584993
             1.8812885    0.31642397975315
             0.5442493    0.74430825237435
 p    1 1.00
             0.1687144                   1
 d    1 1.00
                   0.8                   1

8 0
 s    3 1.00
             18.731137    0.03349459952309
             2.8253937    0.23472694665786
             0.6401217    0.81375731841339
 s    1 1.00
             0.1612778                   1

9 0
 s    3 1.00
             18.731137    0.03349459952309
             2.8253937    0.23472694665786
             0.6401217    0.81375731841339
 s    1 1.00
             0.1612778                   1

10 0
 s    6 1.00
             3047.5249  0.0018347001629433
             457.36951    0.01403730124668
             103.94869   0.068842606114048
             29.210155    0.23218442062076
              9.286663    0.46794134155879
              3.163927    0.36231203217765
 s    3 1.00
             7.8682724   -0.11933240861517
             1.8812885   -0.16085421161283
             0.5442493     1.1434564825515
 s    1 1.00
             0.1687144                   1
 p    3 1.00
             7.8682724   0.068999095584993
             1.8812885    0.31642397975315
             0.5442493    0.74430825237435
 p    1 1.00
             0.1687144                   1
 d    1 1.00
                   0.8                   1

11 0
 s    3 1.00
             18.731137    0.03349459952309
             2.8253937    0.23472694665786
             0.6401217    0.81375731841339
 s    1 1.00
             0.1612778                   1

12 0
 s    6 1.00
             3047.5249  0.0018347001629433
             457.36951    0.01403730124668
             103.94869   0.068842606114048
             29.210155    0.23218442062076
              9.286663    0.46794134155879
              3.163927    0.36231203217765
 s    3 1.00
             7.8682724   -0.11933240861517
             1.8812885   -0.16085421161283
             0.5442493     1.1434564825515
 s    1 1.00
             0.1687144                   1
 p    3 1.00
             7.8682724   0.068999095584993
             1.8812885    0.31642397975315
             0.5442493    0.74430825237435
 p    1 1.00
             0.1687144                   1
 d    1 1.00
                   0.8                   1

13 0
 s    3 1.00
             18.731137    0.03349459952309
             2.8253937    0.23472694665786
             0.6401217    0.81375731841339
 s    1 1.00
             0.1612778                   1

14 0
 s    3 1.00
             18.731137    0.03349459952309
             2.8253937    0.23472694665786
             0.6401217    0.81375731841339
 s    1 1.00
             0.1612778                   1

15 0
 s    6 1.00
             3047.5249  0.0018347001629433
             457.36951    0.01403730124668
             103.94869   0.068842606114048
             29.210155    0.23218442062076
              9.286663    0.46794134155879
              3.163927    0.36231203217765
 s    3 1.00
             7.8682724   -0.11933240861517
             1.8812885   -0.16085421161283
             0.5442493     1.1434564825515
 s    1 1.00
             0.1687144                   1
 p    3 1.00
             7.8682724   0.068999095584993
             1.8812885    0.31642397975315
             0.5442493    0.74430825237435
 p    1 1.00
             0.1687144                   1
 d    1 1.00
                   0.8                   1

16 0
 s    6 1.00
             3047.5249  0.0018347001629433
             457.36951    0.01403730124668
             103.94869   0.068842606114048
             29.210155    0.23218442062076
              9.286663    0.46794134155879
              3.163927    0.36231203217765
 s    3 1.00
             7.8682724   -0.11933240861517
             1.8812885   -0.16085421161283
             0.5442493     1.1434564825515
 s    1 1.00
             0.1687144                   1
 p    3 1.00
             7.8682724   0.068999095584993
             1.8812885    0.31642397975315
             0.5442493    0.74430825237435
 p    1 1.00
             0.1687144                   1
 d    1 1.00
                   0.8                   1

17 0
 s    6 1.00
             3047.5249  0.0018347001629433
             457.36951    0.01403730124668
             103.94869   0.068842606114048
             29.210155    0.23218442062076
              9.286663    0.46794134155879
              3.163927    0.36231203217765
 s    3 1.00
             7.8682724   -0.11933240861517
             1.8812885   -0.16085421161283
             0.5442493     1.1434564825515
 s    1 1.00
             0.1687144                   1
 p    3 1.00
             7.8682724   0.068999095584993
             1.8812885    0.31642397975315
             0.5442493    0.74430825237435
 p    1 1.00
             0.1687144                   1
 d    1 1.00
                   0.8                   1

18 0
 s    6 1.00
             3047.5249  0.0018347001629433
             457.36951    0.01403730124668
             103.94869   0.068842606114048
             29.210155    0.23218442062076
              9.286663    0.46794134155879
              3.163927    0.36231203217765
 s    3 1.00
             7.8682724   -0.11933240861517
             1.8812885   -0.16085421161283
             0.5442493     1.1434564825515
 s    1 1.00
             0.1687144                   1
 p    3 1.00
             7.8682724   0.068999095584993
             1.8812885    0.31642397975315
             0.5442493    0.74430825237435
 p    1 1.00
             0.1687144                   1
 d    1 1.00
                   0.8                   1

19 0
 s    6 1.00
             3047.5249  0.0018347001629433
             457.36951    0.01403730124668
             103.94869   0.068842606114048
             29.210155    0.23218442062076
              9.286663    0.46794134155879
              3.163927    0.36231203217765
 s    3 1.00
             7.8682724   -0.11933240861517
             1.8812885   -0.16085421161283
             0.5442493     1.1434564825515
 s    1 1.00
             0.1687144                   1
 p    3 1.00
             7.8682724   0.068999095584993
             1.8812885    0.31642397975315
             0.5442493    0.74430825237435
 p    1 1.00
             0.1687144                   1
 d    1 1.00
                   0.8                   1

20 0
 s    6 1.00
             3047.5249  0.0018347001629433
             457.36951    0.01403730124668
             103.94869   0.068842606114048
             29.210155    0.23218442062076
              9.286663    0.46794134155879
              3.163927    0.36231203217765
 s    3 1.00
             7.8682724   -0.11933240861517
             1.8812885   -0.16085421161283
             0.5442493     1.1434564825515
 s    1 1.00
             0.1687144                   1
 p    3 1.00
             7.8682724   0.068999095584993
             1.8812885    0.31642397975315
             0.5442493    0.74430825237435
 p    1 1.00
             0.1687144                   1
 d    1 1.00
                   0.8                   1

21 0
 s    6 1.00
             3047.5249  0.0018347001629433
             457.36951    0.01403730124668
             103.94869   0.068842606114048
             29.210155    0.23218442062076
              9.286663    0.46794134155879
              3.163927    0.36231203217765
 s    3 1.00
             7.8682724   -0.11933240861517
             1.8812885   -0.16085421161283
             0.5442493     1.1434564825515
 s    1 1.00
             0.1687144                   1
 p    3 1.00
             7.8682724   0.068999095584993
             1.8812885    0.31642397975315
             0.5442493    0.74430825237435
 p    1 1.00
             0.1687144                   1
 d    1 1.00
                   0.8                   1

22 0
 s    3 1.00
             18.731137    0.03349459952309
             2.8253937    0.23472694665786
             0.6401217    0.81375731841339
 s    1 1.00
             0.1612778                   1

23 0
 s    3 1.00
             18.731137    0.03349459952309
             2.8253937    0.23472694665786
             0.6401217    0.81375731841339
 s    1 1.00
             0.1612778                   1

24 0
 s    3 1.00
             18.731137    0.03349459952309
             2.8253937    0.23472694665786
             0.6401217    0.81375731841339
 s    1 1.00
             0.1612778                   1

25 0
 s    3 1.00
             18.731137    0.03349459952309
             2.8253937    0.23472694665786
             0.6401217    0.81375731841339
 s    1 1.00
             0.1612778                   1

26 0
 s    3 1.00
             18.731137    0.03349459952309
             2.8253937    0.23472694665786
             0.6401217    0.81375731841339
 s    1 1.00
             0.1612778                   1

27 0
 s    3 1.00
             18.731137    0.03349459952309
             2.8253937    0.23472694665786
             0.6401217    0.81375731841339
 s    1 1.00
             0.1612778                   1

28 0
 s    3 1.00
             18.731137    0.03349459952309
             2.8253937    0.23472694665786
             0.6401217    0.81375731841339
 s    1 1.00
             0.1612778                   1

29 0
 s    3 1.00
             18.731137    0.03349459952309
             2.8253937    0.23472694665786
             0.6401217    0.81375731841339
 s    1 1.00
             0.1612778                   1

30 0
 s    3 1.00
             18.731137    0.03349459952309
             2.8253937    0.23472694665786
             0.6401217    0.81375731841339
 s    1 1.00
             0.1612778                   1

31 0
 s    3 1.00
             18.731137    0.03349459952309
             2.8253937    0.23472694665786
             0.6401217    0.81375731841339
 s    1 1.00
             0.1612778                   1

32 0
 s    3 1.00
             18.731137    0.03349459952309
             2.8253937    0.23472694665786
             0.6401217    0.81375731841339
 s    1 1.00
             0.1612778                   1

33 0
 s    6 1.00
             3047.5249  0.0018347001629433
             457.36951    0.01403730124668
             103.94869   0.068842606114048
             29.210155    0.23218442062076
              9.286663    0.46794134155879
              3.163927    0.36231203217765
 s    3 1.00
             7.8682724   -0.11933240861517
             1.8812885   -0.16085421161283
             0.5442493     1.1434564825515
 s    1 1.00
             0.1687144                   1
 p    3 1.00
             7.8682724   0.068999095584993
             1.8812885    0.31642397975315
             0.5442493    0.74430825237435
 p    1 1.00
             0.1687144                   1
 d    1 1.00
                   0.8                   1

34 0
 s    6 1.00
             3047.5249  0.0018347001629433
             457.36951    0.01403730124668
             103.94869   0.068842606114048
             29.210155    0.23218442062076
              9.286663    0.46794134155879
              3.163927    0.36231203217765
 s    3 1.00
             7.8682724   -0.11933240861517
             1.8812885   -0.16085421161283
             0.5442493     1.1434564825515
 s    1 1.00
             0.1687144                   1
 p    3 1.00
             7.8682724   0.068999095584993
             1.8812885    0.31642397975315
             0.5442493    0.74430825237435
 p    1 1.00
             0.1687144                   1
 d    1 1.00
                   0.8                   1

35 0
 s    3 1.00
             18.731137    0.03349459952309
             2.8253937    0.23472694665786
             0.6401217    0.81375731841339
 s    1 1.00
             0.1612778                   1

36 0
 s    6 1.00
             3047.5249  0.0018347001629433
             457.36951    0.01403730124668
             103.94869   0.068842606114048
             29.210155    0.23218442062076
              9.286663    0.46794134155879
              3.163927    0.36231203217765
 s    3 1.00
             7.8682724   -0.11933240861517
             1.8812885   -0.16085421161283
             0.5442493     1.1434564825515
 s    1 1.00
             0.1687144                   1
 p    3 1.00
             7.8682724   0.068999095584993
             1.8812885    0.31642397975315
             0.5442493    0.74430825237435
 p    1 1.00
             0.1687144                   1
 d    1 1.00
                   0.8                   1

37 0
 s    3 1.00
             18.731137    0.03349459952309
             2.8253937    0.23472694665786
             0.6401217    0.81375731841339
 s    1 1.00
             0.1612778                   1

38 0
 s    3 1.00
             18.731137    0.03349459952309
             2.8253937    0.23472694665786
             0.6401217    0.81375731841339
 s    1 1.00
             0.1612778                   1

39 0
 s    6 1.00
             3047.5249  0.0018347001629433
             457.36951    0.01403730124668
             103.94869   0.068842606114048
             29.210155    0.23218442062076
              9.286663    0.46794134155879
              3.163927    0.36231203217765
 s    3 1.00
             7.8682724   -0.11933240861517
             1.8812885   -0.16085421161283
             0.5442493     1.1434564825515
 s    1 1.00
             0.1687144                   1
 p    3 1.00
             7.8682724   0.068999095584993
             1.8812885    0.31642397975315
             0.5442493    0.74430825237435
 p    1 1.00
             0.1687144                   1
 d    1 1.00
                   0.8                   1

40 0
 s    6 1.00
             3047.5249  0.0018347001629433
             457.36951    0.01403730124668
             103.94869   0.068842606114048
             29.210155    0.23218442062076
              9.286663    0.46794134155879
              3.163927    0.36231203217765
 s    3 1.00
             7.8682724   -0.11933240861517
             1.8812885   -0.16085421161283
             0.5442493     1.1434564825515
 s    1 1.00
             0.1687144                   1
 p    3 1.00
             7.8682724   0.068999095584993
             1.8812885    0.31642397975315
             0.5442493    0.74430825237435
 p    1 1.00
             0.1687144                   1
 d    1 1.00
                   0.8                   1

41 0
 s    3 1.00
             18.731137    0.03349459952309
             2.8253937    0.23472694665786
             0.6401217    0.81375731841339
 s    1 1.00
             0.1612778                   1

42 0
 s    6 1.00
             5484.6717   0.001831099805527
             825.23495   0.013950098518422
             188.04696    0.06844509273075
               52.9645    0.23271427528445
              16.89757    0.47019295006289
             5.7996353    0.35852086192309
 s    3 1.00
             15.539616   -0.11077750382508
             3.5999336   -0.14802630511126
             1.0137618     1.1307670390447
 s    1 1.00
             0.2700058                   1
 p    3 1.00
             15.539616   0.070874299543311
             3.5999336    0.33975279781076
             1.0137618    0.72715859531445
 p    1 1.00
             0.2700058                   1
 d    1 1.00
                   0.8                   1

43 0
 s    3 1.00
             18.731137    0.03349459952309
             2.8253937    0.23472694665786
             0.6401217    0.81375731841339
 s    1 1.00
             0.1612778                   1

[5d]
[7f]
[9g]

[MO]
 Sym= A
 Ene=               0
 Spin= Alpha
 Occup=    1.00000
   1    0.0046355966540733
   2    -0.0010002014952102
   3    0.0051839233077816
   4    0.00025043253662977
   5    -0.00015177439263091
   6    0.00089795288466501
   7    0.00067471205975959
   8    0.0011403498553845
   9    -0.0038082787551672
  10    -0.00069410581300894
  11    -0.00058309881047761
  12    9.5720646693326e-05
  13    -0.00013804601990609
  14    3.7900796163743e-05
  15    -0.00032574109158993
  16    -0.0010677765023296
  17      0.62733261755507
  18     0.024030155842353
  19    -0.018961313806346
  20    0.00041445965376588
  21    0.00014172862364796
  22    -1.0351215368111e-05
  23    -0.0028598680111508
  24    -0.00051791815800538
  25    -0.0012106685251214
  26    0.00054257466136427
  27    -0.00010642017397789
  28    -0.00033041621001384
  29    0.00015436816114147
  30    8.2380493000663e-05
  31    -0.00088944537272383
  32     0.002482237797261
  33     0.027876564360725
  34    -0.0017189212915453
  35     0.011822579357837
  36    -0.0004818358193574
  37    0.00032276381080428
  38    -0.00076991196774511
  39     0.003038644586311
  40    -0.00012139889518803
  41    0.00090405679342745
  42    0.00018621564390706
  43    0.0007414745886704
  44    0.0003838926532685
  45    -0.0011918778386721
  46    -0.00024183934431297
  47    -0.00054173527835235
  48    4.3425962000488e-06
  49      0.77174550414371
  50     0.029448960804125
  51    -0.026694668915624
  52    -0.00021571685095944
  53    0.00021066565737386
  54    -0.00040039448487189
  55    0.00094913330993351
  56    -0.0017297895859266
  57    0.0035845199541134
  58    0.0001575223382924
  59    -0.00044976843107057
  60    -0.00031439445017057
  61    0.00048695313257833
  62    0.00014215015557261
  63    -0.0011226745113076
  64    0.0035133737223826
  65    -3.5710883728907e-06
  66    -5.4604227716093e-06
  67    6.0469187275565e-07
  68    -1.6582215529108e-06
  69    -3.0247120173031e-07
  70    1.9464761313768e-06
  71    -4.8316625494288e-06
  72    7.2772288391136e-08
  73    9.3380534004481e-06
  74    1.9217066291395e-05
  75    6.5673000617729e-06
  76    -4.6952373878147e-07
  77    -3.2965946498632e-07
  78    4.2534408110929e-07
  79    3.7479944817515e-07
  80    -3.5186901319403e-08
  81    2.7367495832094e-06
  82    1.1580583746168e-05
  83    1.2481215473984e-06
  84    -2.2932605569023e-06
  85    -6.2312878652137e-05
  86    6.425315020141e-06
  87    1.0709422751161e-06
  88    1.2385738348144e-05
  89    1.7925925920938e-05
  90    -4.8592545527293e-05
  91    1.6521040563053e-05
  92    1.2008990233511e-06
  93    -1.7662132095199e-06
  94    2.8858463233083e-06
  95    -2.7943737749466e-07
  96    -7.6952729920329e-07
  97    7.2015621652681e-06
  98    1.4276833791076e-05
  99    -1.0463464637729e-06
 100    -1.3005990191029e-05
 101    -1.2258244847949e-06
 102    -5.5407591803262e-06
 103    0.0001238286669034
 104    -5.7456780799354e-06
 105    -9.1210588180415e-06
 106    -3.8549564492844e-06
 107    -0.00014826915784573
 108    0.00013656268687758
 109    0.00013642877582663
 110    -6.138370365968e-06
 111    -2.2354817807028e-06
 112    6.6263707664561e-07
 113    6.0312572944302e-07
 114    -4.1817780602186e-06
 115    -4.2253142918122e-06
 116    -2.3964570140162e-05
 117    0.00020231040408065
 118    -4.7940596778107e-06
 119    4.8076164941926e-06
 120    8.9342997608359e-06
 121    -4.8130427865961e-05
 122    2.8669997600103e-05
 123    3.8818866576391e-05
 124    5.0603023279366e-07
 125    -2.8823097037528e-06
 126    -1.6579980955419e-06
 127    1.211860011018e-06
 128    -2.2263633852297e-06
 129    5.4537935292349e-06
 130    -5.7499000214945e-05
 131    7.3442958715212e-05
 132    1.5348927396201e-05
 133    3.8200460330369e-06
 134    7.291760852481e-05
 135    -0.0002104329073107
 136    5.9892274405295e-06
 137    -0.00031847262559964
 138    8.6119120761108e-06
 139    7.6683089141212e-06
 140    2.8018327891799e-06
 141    3.1574172358004e-06
 142    4.8984588602031e-06
 143    -8.3104374149122e-06
 144    -1.4966101836015e-05
 145    0.00010534144983266
 146    1.4659730967825e-05
 147    -7.3800363790949e-06
 148    -1.4022407339339e-05
 149    4.7930695017933e-05
 150    -1.6382614014559e-05
 151    -7.259264000488e-05
 152    -6.5582092009656e-06
 153    -4.6070242172913e-06
 154    -2.2080913725264e-06
 155    3.8165912568097e-06
 156    -4.294099851305e-06
 157    4.8194684462659e-07
 158    1.1744587102258e-05
 159    -2.7649829099525e-05
 160    4.4415410350705e-06
 161    -1.6258483453326e-06
 162    -1.2327739242241e-06
 163    -4.1853895367098e-05
 164    1.8339085599383e-05
 165    1.3719664402097e-05
 166    3.1319252850524e-06
 167    -1.4747981292625e-06
 168    3.7389484399416e-09
 169    6.6286530991947e-07
 170    1.1186949427648e-06
 171    -1.3930026128057e-06
 172    -8.8955363055099e-06
 173    2.091935137224e-05
 174    -2.0509065925582e-06
 175    1.0979771560862e-06
 176    8.0206807019809e-06
 177    -3.4788411244783e-06
 178    1.2519861176138e-06
 179    -2.2673770186319e-05
 180    8.0870139610501e-07
 181    3.0412789978903e-06
 182    6.4357699125555e-07
 183    -5.4983907391596e-07
 184    1.205690330751e-06
 185    1.6339112111835e-07
 186    -2.5822086563407e-05
 187    3.6428474291326e-05
 188    2.3062554659377e-06
 189    3.1477520600969e-06
 190    1.8486853000767e-05
 191    1.7601203648503e-06
 192    -6.4749981227611e-06
 193    -3.5670897960713e-05
 194    2.5053143851895e-06
 195    4.1727400780014e-07
 196    2.6112401228061e-06
 197    -1.5170467493043e-07
 198    2.3021482185914e-07
 199    -5.0968098410945e-06
 200    1.0937047706447e-06
 201    3.6959680919447e-06
 202    2.6589552003973e-05
 203    -8.7203276659209e-06
 204    5.5401573780888e-07
 205    1.7790151383345e-06
 206    -2.8692343133971e-05
 207    3.6786012805661e-06
 208    -3.1158723784097e-05
 209    7.0260571334516e-06
 210    -2.1820028670574e-05
 211    5.1030337528461e-06
 212    1.1780010935347e-05
 213    1.1186552736959e-06
 214    -1.4073821873608e-05
 215    -4.5586404356775e-06
 216    -3.0040583566197e-05
 217    2.933743518404e-06
 218    1.202217730485e-05
 219    -7.2386303753071e-08
 220    -1.6840634648271e-07
 221    -5.7071215831536e-05
 222    2.6973361484965e-05
 223    0.00069218892157789
 224    6.5112327683026e-05
 225    2.3154627959508e-05
 226    -0.00013408632893566
 227    0.00049781960776469
 228    0.00023419333279354
 229    -0.00071338911467706
 230    -6.3505895452196e-07
 231    -3.5890997384126e-05
 232    -1.3975522304093e-05
 233    2.0680462920756e-05
 234    1.7804352115824e-05
 235    9.6982846222033e-05
 236    -0.00021017719578272
 237    -0.00030211422667886
 238    -0.00012343351459466
 239    -0.00011732227798886
 240    0.00035719082437019
 241    5.6689424859866e-05
 242    0.00022988259302612
 243    -0.0010464772636088
 244    1.4821119968663e-06
 245    5.284079110697e-05
 246    5.8809309058967e-06
 247    1.1529665110841e-05
 248    -8.9514449179429e-06
 249    -1.3003328069525e-05
 250    0.00022550167094955
 251    -0.0001938015508887
 252    -0.00029521671841308
 253    0.0013878427152178
 254    -0.00030291942585837
 255    -3.3974486342301e-05
 256    -0.00013448528637213
 257    -8.9083759933267e-05
 258    0.00016844949422512
 259    -0.0015254384291999
 260    -3.8556021835913e-05
 261    -4.4465151414995e-05
 262    -1.5785922120718e-05
 263    0.00010975677308401
 264    6.1809768599388e-05
 265    -0.00017553037158518
 266    0.00019992438341118
 267    0.00012006436753813
 268    -0.00014169185978754
 269    -0.00012861245950367
 270    -2.0994052286533e-05
 271      0.01078867041554
 272    0.0013823225561518
 273    0.0010235197994493
 274    -0.0028358258596727
 275    -0.003398233082772
 276    -0.00053842416421389
 277    0.0020707187032742
 278    -0.00055737372478149
 279    0.00085126614647613
 280    0.00045821550044623
 281    -9.2489242980674e-05