[Molden Format]
made by pyscf v[2.0.1]
[Atoms] (AU)
C   1   6     0.69100024066471     0.64692934207205    -3.48223131169301
H   2   1     2.68052439830868     1.13355088658700    -3.25784032593313
C   3   6    -0.36286361513219     0.85440132524594    -5.97030179418974
H   4   1    -2.35448549047279     0.36322488579172    -6.17995817793143
C   5   6     0.93697958957450     1.61209284601821    -8.05828437677121
H   6   1     2.82520634269342     2.40231158819155    -7.83223822317356
C   7   6    -0.04591716574067     1.43050675384137   -10.57963800872440
H   8   1    -1.93966227025444     0.63380613673234   -10.77641154630544
H   9   1     1.55630230933075    -1.92953025305990    12.99630010416247
C   10   6     0.75233899775814    -2.21270439606481    11.10705728102219
H   11   1    -0.43433408177274    -3.90944857546550    11.22216085340412
C   12   6     2.86362581178706    -2.63237380607947     9.17926416456045
H   13   1     4.39038949912609    -1.24955421540245     9.49899813497433
H   14   1     3.74629220191363    -4.48798724300892     9.47414880959024
C   15   6     2.02478325613682    -2.42177285709634     6.44560829588644
C   16   6     3.88048732735477    -3.58795445234514     4.61402886975252
C   17   6    -0.18412382258602    -1.30464291234259     5.76021113872346
C   18   6    -2.10044360464350    -0.26837831858460     7.71610340967100
C   19   6    -3.08956938670431     2.35282328359417     6.88693925039594
C   20   6    -4.37372924086464    -2.09766595989678     7.93610724222001
C   21   6    -0.83850430601230     0.06372213486173    10.33002307638377
H   22   1     0.38411922151109     1.74281358582432    10.27380136542181
H   23   1    -2.30980003007874     0.45460143924521    11.73986301809809
H   24   1     4.58527064644668    -5.38706904487420     5.36778158031719
H   25   1     5.54944938085014    -2.37631462192748     4.35398898413318
H   26   1     3.06633019150423    -3.94118377050688     2.75255466040884
H   27   1    -4.17727778763735     2.26573369139522     5.12914900961283
H   28   1    -1.52662344944051     3.68001877445626     6.59540397144508
H   29   1    -4.32916174397830     3.13643051467482     8.35225460090378
H   30   1    -5.32329548508442    -2.36691813602939     6.11583672749896
H   31   1    -5.77989366602257    -1.33896741843465     9.25748940450990
H   32   1    -3.79310905208926    -3.96389819310853     8.61386170102686
C   33   6    -1.01100794811226    -1.06331657314144     3.11929490449947
C   34   6     0.37686231036534    -0.33275864505552     1.09165013605873
H   35   1    -3.01671213906703    -1.40297922279997     2.77827895090944
C   36   6    -0.64382707979370    -0.11591880174385    -1.42063131251064
H   37   1     2.35569259782137     0.17174499283897     1.33641070251401
H   38   1    -2.63317482980319    -0.60229203511219    -1.66119700387645
C   39   6     1.17709071185639     2.16235266520763   -12.71162929579923
C   40   6     0.01149368127442     1.89967079998079   -15.19747007607967
H   41   1     3.06674924318564     2.97042403350516   -12.64854490967844
O   42   8     1.00001917973751     2.51860460578581   -17.18758625638360
H   43   1    -1.92257659968242     1.06364005135718   -15.17290072571517
[GTO]
1 0
 s    6 1.00
             3047.5249  0.0018347001629433
             457.36951    0.01403730124668
             103.94869   0.068842606114048
             29.210155    0.23218442062076
              9.286663    0.46794134155879
              3.163927    0.36231203217765
 s    3 1.00
             7.8682724   -0.11933240861517
             1.8812885   -0.16085421161283
             0.5442493     1.1434564825515
 s    1 1.00
             0.1687144                   1
 p    3 1.00
             7.8682724   0.068999095584993
             1.8812885    0.31642397975315
             0.5442493    0.74430825237435
 p    1 1.00
             0.1687144                   1
 d    1 1.00
                   0.8                   1

2 0
 s    3 1.00
             18.731137    0.03349459952309
             2.8253937    0.23472694665786
             0.6401217    0.81375731841339
 s    1 1.00
             0.1612778                   1

3 0
 s    6 1.00
             3047.5249  0.0018347001629433
             457.36951    0.01403730124668
             103.94869   0.068842606114048
             29.210155    0.23218442062076
              9.286663    0.46794134155879
              3.163927    0.36231203217765
 s    3 1.00
             7.8682724   -0.11933240861517
             1.8812885   -0.16085421161283
             0.5442493     1.1434564825515
 s    1 1.00
             0.1687144                   1
 p    3 1.00
             7.8682724   0.068999095584993
             1.8812885    0.31642397975315
             0.5442493    0.74430825237435
 p    1 1.00
             0.1687144                   1
 d    1 1.00
                   0.8                   1

4 0
 s    3 1.00
             18.731137    0.03349459952309
             2.8253937    0.23472694665786
             0.6401217    0.81375731841339
 s    1 1.00
             0.1612778                   1

5 0
 s    6 1.00
             3047.5249  0.0018347001629433
             457.36951    0.01403730124668
             103.94869   0.068842606114048
             29.210155    0.23218442062076
              9.286663    0.46794134155879
              3.163927    0.36231203217765
 s    3 1.00
             7.8682724   -0.11933240861517
             1.8812885   -0.16085421161283
             0.5442493     1.1434564825515
 s    1 1.00
             0.1687144                   1
 p    3 1.00
             7.8682724   0.068999095584993
             1.8812885    0.31642397975315
             0.5442493    0.74430825237435
 p    1 1.00
             0.1687144                   1
 d    1 1.00
                   0.8                   1

6 0
 s    3 1.00
             18.731137    0.03349459952309
             2.8253937    0.23472694665786
             0.6401217    0.81375731841339
 s    1 1.00
             0.1612778                   1

7 0
 s    6 1.00
             3047.5249  0.0018347001629433
             457.36951    0.01403730124668
             103.94869   0.068842606114048
             29.210155    0.23218442062076
              9.286663    0.46794134155879
              3.163927    0.36231203217765
 s    3 1.00
             7.8682724   -0.11933240861517
             1.8812885   -0.16085421161283
             0.5442493     1.1434564825515
 s    1 1.00
             0.1687144                   1
 p    3 1.00
             7.8682724   0.068999095584993
             1.8812885    0.31642397975315
             0.5442493    0.74430825237435
 p    1 1.00
             0.1687144                   1
 d    1 1.00
                   0.8                   1

8 0
 s    3 1.00
             18.731137    0.03349459952309
             2.8253937    0.23472694665786
             0.6401217    0.81375731841339
 s    1 1.00
             0.1612778                   1

9 0
 s    3 1.00
             18.731137    0.03349459952309
             2.8253937    0.23472694665786
             0.6401217    0.81375731841339
 s    1 1.00
             0.1612778                   1

10 0
 s    6 1.00
             3047.5249  0.0018347001629433
             457.36951    0.01403730124668
             103.94869   0.068842606114048
             29.210155    0.23218442062076
              9.286663    0.46794134155879
              3.163927    0.36231203217765
 s    3 1.00
             7.8682724   -0.11933240861517
             1.8812885   -0.16085421161283
             0.5442493     1.1434564825515
 s    1 1.00
             0.1687144                   1
 p    3 1.00
             7.8682724   0.068999095584993
             1.8812885    0.31642397975315
             0.5442493    0.74430825237435
 p    1 1.00
             0.1687144                   1
 d    1 1.00
                   0.8                   1

11 0
 s    3 1.00
             18.731137    0.03349459952309
             2.8253937    0.23472694665786
             0.6401217    0.81375731841339
 s    1 1.00
             0.1612778                   1

12 0
 s    6 1.00
             3047.5249  0.0018347001629433
             457.36951    0.01403730124668
             103.94869   0.068842606114048
             29.210155    0.23218442062076
              9.286663    0.46794134155879
              3.163927    0.36231203217765
 s    3 1.00
             7.8682724   -0.11933240861517
             1.8812885   -0.16085421161283
             0.5442493     1.1434564825515
 s    1 1.00
             0.1687144                   1
 p    3 1.00
             7.8682724   0.068999095584993
             1.8812885    0.31642397975315
             0.5442493    0.74430825237435
 p    1 1.00
             0.1687144                   1
 d    1 1.00
                   0.8                   1

13 0
 s    3 1.00
             18.731137    0.03349459952309
             2.8253937    0.23472694665786
             0.6401217    0.81375731841339
 s    1 1.00
             0.1612778                   1

14 0
 s    3 1.00
             18.731137    0.03349459952309
             2.8253937    0.23472694665786
             0.6401217    0.81375731841339
 s    1 1.00
             0.1612778                   1

15 0
 s    6 1.00
             3047.5249  0.0018347001629433
             457.36951    0.01403730124668
             103.94869   0.068842606114048
             29.210155    0.23218442062076
              9.286663    0.46794134155879
              3.163927    0.36231203217765
 s    3 1.00
             7.8682724   -0.11933240861517
             1.8812885   -0.16085421161283
             0.5442493     1.1434564825515
 s    1 1.00
             0.1687144                   1
 p    3 1.00
             7.8682724   0.068999095584993
             1.8812885    0.31642397975315
             0.5442493    0.74430825237435
 p    1 1.00
             0.1687144                   1
 d    1 1.00
                   0.8                   1

16 0
 s    6 1.00
             3047.5249  0.0018347001629433
             457.36951    0.01403730124668
             103.94869   0.068842606114048
             29.210155    0.23218442062076
              9.286663    0.46794134155879
              3.163927    0.36231203217765
 s    3 1.00
             7.8682724   -0.11933240861517
             1.8812885   -0.16085421161283
             0.5442493     1.1434564825515
 s    1 1.00
             0.1687144                   1
 p    3 1.00
             7.8682724   0.068999095584993
             1.8812885    0.31642397975315
             0.5442493    0.74430825237435
 p    1 1.00
             0.1687144                   1
 d    1 1.00
                   0.8                   1

17 0
 s    6 1.00
             3047.5249  0.0018347001629433
             457.36951    0.01403730124668
             103.94869   0.068842606114048
             29.210155    0.23218442062076
              9.286663    0.46794134155879
              3.163927    0.36231203217765
 s    3 1.00
             7.8682724   -0.11933240861517
             1.8812885   -0.16085421161283
             0.5442493     1.1434564825515
 s    1 1.00
             0.1687144                   1
 p    3 1.00
             7.8682724   0.068999095584993
             1.8812885    0.31642397975315
             0.5442493    0.74430825237435
 p    1 1.00
             0.1687144                   1
 d    1 1.00
                   0.8                   1

18 0
 s    6 1.00
             3047.5249  0.0018347001629433
             457.36951    0.01403730124668
             103.94869   0.068842606114048
             29.210155    0.23218442062076
              9.286663    0.46794134155879
              3.163927    0.36231203217765
 s    3 1.00
             7.8682724   -0.11933240861517
             1.8812885   -0.16085421161283
             0.5442493     1.1434564825515
 s    1 1.00
             0.1687144                   1
 p    3 1.00
             7.8682724   0.068999095584993
             1.8812885    0.31642397975315
             0.5442493    0.74430825237435
 p    1 1.00
             0.1687144                   1
 d    1 1.00
                   0.8                   1

19 0
 s    6 1.00
             3047.5249  0.0018347001629433
             457.36951    0.01403730124668
             103.94869   0.068842606114048
             29.210155    0.23218442062076
              9.286663    0.46794134155879
              3.163927    0.36231203217765
 s    3 1.00
             7.8682724   -0.11933240861517
             1.8812885   -0.16085421161283
             0.5442493     1.1434564825515
 s    1 1.00
             0.1687144                   1
 p    3 1.00
             7.8682724   0.068999095584993
             1.8812885    0.31642397975315
             0.5442493    0.74430825237435
 p    1 1.00
             0.1687144                   1
 d    1 1.00
                   0.8                   1

20 0
 s    6 1.00
             3047.5249  0.0018347001629433
             457.36951    0.01403730124668
             103.94869   0.068842606114048
             29.210155    0.23218442062076
              9.286663    0.46794134155879
              3.163927    0.36231203217765
 s    3 1.00
             7.8682724   -0.11933240861517
             1.8812885   -0.16085421161283
             0.5442493     1.1434564825515
 s    1 1.00
             0.1687144                   1
 p    3 1.00
             7.8682724   0.068999095584993
             1.8812885    0.31642397975315
             0.5442493    0.74430825237435
 p    1 1.00
             0.1687144                   1
 d    1 1.00
                   0.8                   1

21 0
 s    6 1.00
             3047.5249  0.0018347001629433
             457.36951    0.01403730124668
             103.94869   0.068842606114048
             29.210155    0.23218442062076
              9.286663    0.46794134155879
              3.163927    0.36231203217765
 s    3 1.00
             7.8682724   -0.11933240861517
             1.8812885   -0.16085421161283
             0.5442493     1.1434564825515
 s    1 1.00
             0.1687144                   1
 p    3 1.00
             7.8682724   0.068999095584993
             1.8812885    0.31642397975315
             0.5442493    0.74430825237435
 p    1 1.00
             0.1687144                   1
 d    1 1.00
                   0.8                   1

22 0
 s    3 1.00
             18.731137    0.03349459952309
             2.8253937    0.23472694665786
             0.6401217    0.81375731841339
 s    1 1.00
             0.1612778                   1

23 0
 s    3 1.00
             18.731137    0.03349459952309
             2.8253937    0.23472694665786
             0.6401217    0.81375731841339
 s    1 1.00
             0.1612778                   1

24 0
 s    3 1.00
             18.731137    0.03349459952309
             2.8253937    0.23472694665786
             0.6401217    0.81375731841339
 s    1 1.00
             0.1612778                   1

25 0
 s    3 1.00
             18.731137    0.03349459952309
             2.8253937    0.23472694665786
             0.6401217    0.81375731841339
 s    1 1.00
             0.1612778                   1

26 0
 s    3 1.00
             18.731137    0.03349459952309
             2.8253937    0.23472694665786
             0.6401217    0.81375731841339
 s    1 1.00
             0.1612778                   1

27 0
 s    3 1.00
             18.731137    0.03349459952309
             2.8253937    0.23472694665786
             0.6401217    0.81375731841339
 s    1 1.00
             0.1612778                   1

28 0
 s    3 1.00
             18.731137    0.03349459952309
             2.8253937    0.23472694665786
             0.6401217    0.81375731841339
 s    1 1.00
             0.1612778                   1

29 0
 s    3 1.00
             18.731137    0.03349459952309
             2.8253937    0.23472694665786
             0.6401217    0.81375731841339
 s    1 1.00
             0.1612778                   1

30 0
 s    3 1.00
             18.731137    0.03349459952309
             2.8253937    0.23472694665786
             0.6401217    0.81375731841339
 s    1 1.00
             0.1612778                   1

31 0
 s    3 1.00
             18.731137    0.03349459952309
             2.8253937    0.23472694665786
             0.6401217    0.81375731841339
 s    1 1.00
             0.1612778                   1

32 0
 s    3 1.00
             18.731137    0.03349459952309
             2.8253937    0.23472694665786
             0.6401217    0.81375731841339
 s    1 1.00
             0.1612778                   1

33 0
 s    6 1.00
             3047.5249  0.0018347001629433
             457.36951    0.01403730124668
             103.94869   0.068842606114048
             29.210155    0.23218442062076
              9.286663    0.46794134155879
              3.163927    0.36231203217765
 s    3 1.00
             7.8682724   -0.11933240861517
             1.8812885   -0.16085421161283
             0.5442493     1.1434564825515
 s    1 1.00
             0.1687144                   1
 p    3 1.00
             7.8682724   0.068999095584993
             1.8812885    0.31642397975315
             0.5442493    0.74430825237435
 p    1 1.00
             0.1687144                   1
 d    1 1.00
                   0.8                   1

34 0
 s    6 1.00
             3047.5249  0.0018347001629433
             457.36951    0.01403730124668
             103.94869   0.068842606114048
             29.210155    0.23218442062076
              9.286663    0.46794134155879
              3.163927    0.36231203217765
 s    3 1.00
             7.8682724   -0.11933240861517
             1.8812885   -0.16085421161283
             0.5442493     1.1434564825515
 s    1 1.00
             0.1687144                   1
 p    3 1.00
             7.8682724   0.068999095584993
             1.8812885    0.31642397975315
             0.5442493    0.74430825237435
 p    1 1.00
             0.1687144                   1
 d    1 1.00
                   0.8                   1

35 0
 s    3 1.00
             18.731137    0.03349459952309
             2.8253937    0.23472694665786
             0.6401217    0.81375731841339
 s    1 1.00
             0.1612778                   1

36 0
 s    6 1.00
             3047.5249  0.0018347001629433
             457.36951    0.01403730124668
             103.94869   0.068842606114048
             29.210155    0.23218442062076
              9.286663    0.46794134155879
              3.163927    0.36231203217765
 s    3 1.00
             7.8682724   -0.11933240861517
             1.8812885   -0.16085421161283
             0.5442493     1.1434564825515
 s    1 1.00
             0.1687144                   1
 p    3 1.00
             7.8682724   0.068999095584993
             1.8812885    0.31642397975315
             0.5442493    0.74430825237435
 p    1 1.00
             0.1687144                   1
 d    1 1.00
                   0.8                   1

37 0
 s    3 1.00
             18.731137    0.03349459952309
             2.8253937    0.23472694665786
             0.6401217    0.81375731841339
 s    1 1.00
             0.1612778                   1

38 0
 s    3 1.00
             18.731137    0.03349459952309
             2.8253937    0.23472694665786
             0.6401217    0.81375731841339
 s    1 1.00
             0.1612778                   1

39 0
 s    6 1.00
             3047.5249  0.0018347001629433
             457.36951    0.01403730124668
             103.94869   0.068842606114048
             29.210155    0.23218442062076
              9.286663    0.46794134155879
              3.163927    0.36231203217765
 s    3 1.00
             7.8682724   -0.11933240861517
             1.8812885   -0.16085421161283
             0.5442493     1.1434564825515
 s    1 1.00
             0.1687144                   1
 p    3 1.00
             7.8682724   0.068999095584993
             1.8812885    0.31642397975315
             0.5442493    0.74430825237435
 p    1 1.00
             0.1687144                   1
 d    1 1.00
                   0.8                   1

40 0
 s    6 1.00
             3047.5249  0.0018347001629433
             457.36951    0.01403730124668
             103.94869   0.068842606114048
             29.210155    0.23218442062076
              9.286663    0.46794134155879
              3.163927    0.36231203217765
 s    3 1.00
             7.8682724   -0.11933240861517
             1.8812885   -0.16085421161283
             0.5442493     1.1434564825515
 s    1 1.00
             0.1687144                   1
 p    3 1.00
             7.8682724   0.068999095584993
             1.8812885    0.31642397975315
             0.5442493    0.74430825237435
 p    1 1.00
             0.1687144                   1
 d    1 1.00
                   0.8                   1

41 0
 s    3 1.00
             18.731137    0.03349459952309
             2.8253937    0.23472694665786
             0.6401217    0.81375731841339
 s    1 1.00
             0.1612778                   1

42 0
 s    6 1.00
             5484.6717   0.001831099805527
             825.23495   0.013950098518422
             188.04696    0.06844509273075
               52.9645    0.23271427528445
              16.89757    0.47019295006289
             5.7996353    0.35852086192309
 s    3 1.00
             15.539616   -0.11077750382508
             3.5999336   -0.14802630511126
             1.0137618     1.1307670390447
 s    1 1.00
             0.2700058                   1
 p    3 1.00
             15.539616   0.070874299543311
             3.5999336    0.33975279781076
             1.0137618    0.72715859531445
 p    1 1.00
             0.2700058                   1
 d    1 1.00
                   0.8                   1

43 0
 s    3 1.00
             18.731137    0.03349459952309
             2.8253937    0.23472694665786
             0.6401217    0.81375731841339
 s    1 1.00
             0.1612778                   1

[5d]
[7f]
[9g]

[MO]
 Sym= A
 Ene=               0
 Spin= Alpha
 Occup=    1.00000
   1    -0.0041322097825296
   2    -7.0735759600083e-05
   3    -0.00055130657685062
   4    1.3817047441188e-05
   5    3.1507801314434e-05
   6    -4.2478332967922e-05
   7    -7.0581177831991e-05
   8    -0.00040273547836657
   9    0.0015644087136747
  10    -2.1684946476419e-06
  11    -3.3782459152326e-05
  12    -7.7467719218582e-06
  13    -1.1317314424854e-05
  14    7.5849942704067e-07
  15    8.5210726579264e-05
  16    -0.00011832636033921
  17    -0.022859798717134
  18    -0.00054347240616251
  19    0.00017323271408893
  20    -8.5576298234204e-05
  21    -2.3197155786743e-06
  22    -0.0002084230181302
  23    0.00068305965178986
  24    -8.0783936670115e-05
  25    0.0013920929658546
  26    6.3632200809798e-05
  27    8.2525402859314e-06
  28    -3.7669450833452e-06
  29    -0.00011394894189642
  30    -0.00011644730311133
  31    0.0001859669202581
  32    0.00050125278054232
  33    -0.011918550341966
  34    0.0013504557360016
  35    -0.0082021295507435
  36    -0.00041106457633701
  37    -5.1986436003942e-05
  38    -0.0013042949214898
  39    -0.00014453024913389
  40    -0.00045906161920565
  41    0.0044385937609766
  42    0.0011116924982389
  43    0.00093352955400355
  44    0.00019679294128127
  45    0.00022260608643951
  46    0.00010320187277273
  47    0.00047764686487691
  48    0.00066004006161465
  49     -0.99467627105963
  50    -0.038080176603837
  51     0.031485522648947
  52    -0.00056763281468916
  53    -0.00020188528343985
  54    -0.0002790380206411
  55    0.0036406123251057
  56    0.0015390161443296
  57    0.00032381873557553
  58    -0.0008896580736391
  59    0.00035151982990401
  60    0.00033172748002014
  61    -0.00018731851642218
  62    -0.00025642993265176
  63    0.0012401219970743
  64    -0.0044966173768107
  65    8.7919470475626e-07
  66    1.2689340057227e-06
  67    -4.06117818357e-08
  68    9.0996857570781e-07
  69    -3.3048933135031e-06
  70    -6.910448203741e-07
  71    1.0643705628652e-06
  72    -1.029054020795e-08
  73    -2.7846587538808e-06
  74    -3.9619921321901e-06
  75    -1.4611380002186e-06
  76    8.7764867987738e-08
  77    1.732906624533e-07
  78    -1.7273663933595e-07
  79    -1.6954474931407e-07
  80    1.705179496219e-07
  81    -4.920269762062e-07
  82    -1.0519610156799e-06
  83    -3.7098689577568e-07
  84    1.3225855580899e-06
  85    2.7879115554034e-05
  86    -1.6335460159248e-06
  87    6.3067539535646e-07
  88    -3.6204285763984e-06
  89    -7.4376508027683e-06
  90    1.2596576638258e-05
  91    -6.6494908082768e-06
  92    -4.7934438952169e-07
  93    6.7021956154685e-07
  94    -6.3608925916254e-07
  95    3.7650437639626e-08
  96    4.4044043200195e-07
  97    -9.2121503648462e-07
  98    -1.6301574904128e-06
  99    -7.3510638935415e-07
 100    2.3500373111332e-06
 101    8.1168906661902e-07
 102    -5.8900740606144e-07
 103    -2.3273856635937e-05
 104    2.7625281651667e-07
 105    -1.7938604820696e-06
 106    2.7135115552502e-06
 107    4.7501275253198e-05
 108    -4.3613924204134e-05
 109    -6.7549042776968e-05
 110    1.7891845493178e-06
 111    8.1456498955983e-07
 112    -4.3508989925524e-07
 113    -1.2880595240791e-07
 114    1.3646343203608e-06
 115    1.5518056414414e-06
 116    9.6109630625335e-06
 117    -7.7809831179376e-05
 118    1.0457069684004e-06
 119    -4.9242920920708e-07
 120    -2.4667189544225e-06
 121    2.1443070704517e-05
 122    -1.5209072823344e-05
 123    -9.2957749620378e-06
 124    1.0663667911892e-07
 125    9.6054579249576e-07
 126    -2.9049981291876e-07
 127    -7.3573336623815e-07
 128    8.1134455718434e-07
 129    2.3124676857243e-07
 130    1.8336366441497e-05
 131    -9.8042111982996e-05
 132    -6.5078801974191e-06
 133    -2.7589670559449e-06
 134    -1.3174782956724e-05
 135    5.1422020216461e-05
 136    -7.0139628772439e-07
 137    0.00016558399415458
 138    -4.377510453634e-06
 139    -3.315519516372e-06
 140    -3.5466092702022e-07
 141    -8.8958120890165e-07
 142    -6.5898716835235e-07
 143    1.2628866840118e-06
 144    1.0439072938251e-05
 145    -4.6442162977324e-05
 146    -1.2877286041223e-06
 147    -1.8478734235812e-07
 148    -2.6784787088776e-06
 149    -2.0367043768523e-05
 150    9.0597907986097e-06
 151    2.6962893627471e-05
 152    2.2369483130977e-06
 153    1.454290130713e-06
 154    6.1002259814329e-07
 155    -1.5163922201519e-06
 156    1.8113948254834e-06
 157    -5.5915557864035e-07
 158    -2.709357428252e-06
 159    1.0232747747023e-05
 160    -1.284809773636e-06
 161    -6.8000994885303e-07
 162    3.2085600713247e-07
 163    1.3621582062464e-05
 164    -5.0937887221214e-06
 165    -6.0527760996364e-06
 166    -1.3866136471078e-06
 167    6.8648140857123e-07
 168    1.8218000921759e-07
 169    -1.3028193713927e-07
 170    -5.6535520583371e-07
 171    1.813600932999e-07
 172    1.7093716459966e-07
 173    9.2104777417684e-06
 174    1.1787359933632e-06
 175    1.6376729044429e-07
 176    -3.0292447180013e-06
 177    -6.1459877104278e-06
 178    -3.486201758581e-06
 179    -7.4552283223506e-07
 180    -1.3300556667882e-08
 181    -9.0033794373161e-07
 182    -3.593814430527e-07
 183    6.2277805906464e-07
 184    -5.7972365472305e-07
 185    4.9260000697823e-07
 186    7.8513222747912e-06
 187    -1.6967631778845e-05
 188    4.1234592001538e-07
 189    8.3895561125689e-08
 190    -2.6817064089085e-06
 191    -1.6350991536208e-06
 192    1.5896040830851e-06
 193    1.5257128586357e-05
 194    -7.8032606245974e-07
 195    -2.128081226098e-07
 196    -7.3427719045217e-07
 197    -1.8596099971259e-07
 198    1.5239415283493e-07
 199    1.9410449924405e-06
 200    1.7646834744899e-06
 201    3.8742091945252e-08
 202    -6.6802463761663e-06
 203    2.3357472864755e-06
 204    -2.8764835570932e-06
 205    1.3265778189587e-06
 206    8.1818955928388e-06
 207    -8.1722311833949e-08
 208    1.079083381133e-05
 209    -2.2940797757073e-06
 210    4.659999298202e-06
 211    -1.9435324845931e-06
 212    -5.2008012869546e-06
 213    2.1283509904717e-08
 214    4.960750520453e-06
 215    2.9795003739091e-06
 216    -1.1824087127307e-05
 217    -1.0724380460945e-06
 218    -3.6292489877162e-06
 219    -1.0039239500657e-06
 220    -1.1174934584068e-06
 221    9.5588703753707e-06
 222    1.3295015888901e-05
 223    -0.00011970136387859
 224    -3.9197650268396e-06
 225    -3.1786814994176e-06
 226    1.0429701113577e-05
 227    -3.8067259544247e-05
 228    -6.3085690107028e-05
 229    0.00026942570996774
 230    -1.3892318452591e-07
 231    1.1037891903201e-05
 232    4.2098655257912e-06
 233    -6.2494961142291e-06
 234    -5.243999360172e-06
 235    -6.6007645607451e-06
 236    4.2884213230826e-05
 237    0.00014581394331713
 238    1.5408616305725e-05
 239    1.559673319811e-05
 240    -4.6104755156198e-05
 241    -9.6950594853423e-06
 242    -4.2865522681924e-05
 243    0.00018553221590184
 244    7.2240488231708e-07
 245    -1.5434389456814e-05
 246    -1.2226538873979e-06
 247    -7.2543194175431e-06
 248    2.8917854739423e-07
 249    2.9404611853818e-06
 250    5.6178143013929e-07
 251    4.0859580004046e-05
 252    0.00010738998442069
 253    -0.00081951461989985
 254    -2.2299800702397e-05
 255    -1.0861562338049e-05
 256    1.2921911464371e-05
 257    -0.00051394283652083
 258    -0.0001945842312207
 259    0.00050274385911028
 260    -2.3329568869913e-06
 261    2.8823291974595e-05
 262    9.1696201315224e-06
 263    -1.6467139874451e-05
 264    -1.1328861712156e-05
 265    2.5997028772938e-05
 266    -3.2005580891028e-05
 267    5.663058807245e-05
 268    -0.00019231813686299
 269    0.00016704233346081
 270    -0.00016727635571966
 271    -0.011426741540299
 272    -0.0026557778318714
 273    -0.0014377276447031
 274    0.0031495324013088
 275    -0.00036072187224011
 276    0.00020855792462916
 277    -0.0037900617124435
 278    0.00074688547412646
 279    -0.0011757116600762
 280    -0.00067013301496533