[Molden Format]
made by pyscf v[2.0.1]
[Atoms] (AU)
C   1   6     0.69100024066471     0.64692934207205    -3.48223131169301
H   2   1     2.68052439830868     1.13355088658700    -3.25784032593313
C   3   6    -0.36286361513219     0.85440132524594    -5.97030179418974
H   4   1    -2.35448549047279     0.36322488579172    -6.17995817793143
C   5   6     0.93697958957450     1.61209284601821    -8.05828437677121
H   6   1     0.30646242799847     3.28538583431710    -9.07979378939352
C   7   6     3.12235401223615     0.31857752265429    -9.01077606594223
H   8   1     3.73232478675010    -1.35404880050347    -7.96675544506269
H   9   1     1.55630230933075    -1.92953025305990    12.99630010416247
C   10   6     0.75233899775814    -2.21270439606481    11.10705728102219
H   11   1    -0.43433408177274    -3.90944857546550    11.22216085340412
C   12   6     2.86362581178706    -2.63237380607947     9.17926416456045
H   13   1     4.39038949912609    -1.24955421540245     9.49899813497433
H   14   1     3.74629220191363    -4.48798724300892     9.47414880959024
C   15   6     2.02478325613682    -2.42177285709634     6.44560829588644
C   16   6     3.88048732735477    -3.58795445234514     4.61402886975252
C   17   6    -0.18412382258602    -1.30464291234259     5.76021113872346
C   18   6    -2.10044360464350    -0.26837831858460     7.71610340967100
C   19   6    -3.08956938670431     2.35282328359417     6.88693925039594
C   20   6    -4.37372924086464    -2.09766595989678     7.93610724222001
C   21   6    -0.83850430601230     0.06372213486173    10.33002307638377
H   22   1     0.38411922151109     1.74281358582432    10.27380136542181
H   23   1    -2.30980003007874     0.45460143924521    11.73986301809809
H   24   1     4.58527064644668    -5.38706904487420     5.36778158031719
H   25   1     5.54944938085014    -2.37631462192748     4.35398898413318
H   26   1     3.06633019150423    -3.94118377050688     2.75255466040884
H   27   1    -4.17727778763735     2.26573369139522     5.12914900961283
H   28   1    -1.52662344944051     3.68001877445626     6.59540397144508
H   29   1    -4.32916174397830     3.13643051467482     8.35225460090378
H   30   1    -5.32329548508442    -2.36691813602939     6.11583672749896
H   31   1    -5.77989366602257    -1.33896741843465     9.25748940450990
H   32   1    -3.79310905208926    -3.96389819310853     8.61386170102686
C   33   6    -1.01100794811226    -1.06331657314144     3.11929490449947
C   34   6     0.37686231036534    -0.33275864505552     1.09165013605873
H   35   1    -3.01671213906703    -1.40297922279997     2.77827895090944
C   36   6    -0.64382707979370    -0.11591880174385    -1.42063131251064
H   37   1     2.35569259782137     0.17174499283897     1.33641070251401
H   38   1    -2.63317482980319    -0.60229203511219    -1.66119700387645
C   39   6     4.47307059082302     1.00138906809445   -11.08105785168909
C   40   6     6.67463726557562    -0.44413475967984   -11.89995199897600
H   41   1     3.96718229655089     2.64690253849906   -12.20539356366280
O   42   8     7.97152342098443     0.06042731610533   -13.73960618931333
H   43   1     7.12379765531873    -2.11255344586070   -10.69379572801653
[GTO]
1 0
 s    6 1.00
             3047.5249  0.0018347001629433
             457.36951    0.01403730124668
             103.94869   0.068842606114048
             29.210155    0.23218442062076
              9.286663    0.46794134155879
              3.163927    0.36231203217765
 s    3 1.00
             7.8682724   -0.11933240861517
             1.8812885   -0.16085421161283
             0.5442493     1.1434564825515
 s    1 1.00
             0.1687144                   1
 p    3 1.00
             7.8682724   0.068999095584993
             1.8812885    0.31642397975315
             0.5442493    0.74430825237435
 p    1 1.00
             0.1687144                   1
 d    1 1.00
                   0.8                   1

2 0
 s    3 1.00
             18.731137    0.03349459952309
             2.8253937    0.23472694665786
             0.6401217    0.81375731841339
 s    1 1.00
             0.1612778                   1

3 0
 s    6 1.00
             3047.5249  0.0018347001629433
             457.36951    0.01403730124668
             103.94869   0.068842606114048
             29.210155    0.23218442062076
              9.286663    0.46794134155879
              3.163927    0.36231203217765
 s    3 1.00
             7.8682724   -0.11933240861517
             1.8812885   -0.16085421161283
             0.5442493     1.1434564825515
 s    1 1.00
             0.1687144                   1
 p    3 1.00
             7.8682724   0.068999095584993
             1.8812885    0.31642397975315
             0.5442493    0.74430825237435
 p    1 1.00
             0.1687144                   1
 d    1 1.00
                   0.8                   1

4 0
 s    3 1.00
             18.731137    0.03349459952309
             2.8253937    0.23472694665786
             0.6401217    0.81375731841339
 s    1 1.00
             0.1612778                   1

5 0
 s    6 1.00
             3047.5249  0.0018347001629433
             457.36951    0.01403730124668
             103.94869   0.068842606114048
             29.210155    0.23218442062076
              9.286663    0.46794134155879
              3.163927    0.36231203217765
 s    3 1.00
             7.8682724   -0.11933240861517
             1.8812885   -0.16085421161283
             0.5442493     1.1434564825515
 s    1 1.00
             0.1687144                   1
 p    3 1.00
             7.8682724   0.068999095584993
             1.8812885    0.31642397975315
             0.5442493    0.74430825237435
 p    1 1.00
             0.1687144                   1
 d    1 1.00
                   0.8                   1

6 0
 s    3 1.00
             18.731137    0.03349459952309
             2.8253937    0.23472694665786
             0.6401217    0.81375731841339
 s    1 1.00
             0.1612778                   1

7 0
 s    6 1.00
             3047.5249  0.0018347001629433
             457.36951    0.01403730124668
             103.94869   0.068842606114048
             29.210155    0.23218442062076
              9.286663    0.46794134155879
              3.163927    0.36231203217765
 s    3 1.00
             7.8682724   -0.11933240861517
             1.8812885   -0.16085421161283
             0.5442493     1.1434564825515
 s    1 1.00
             0.1687144                   1
 p    3 1.00
             7.8682724   0.068999095584993
             1.8812885    0.31642397975315
             0.5442493    0.74430825237435
 p    1 1.00
             0.1687144                   1
 d    1 1.00
                   0.8                   1

8 0
 s    3 1.00
             18.731137    0.03349459952309
             2.8253937    0.23472694665786
             0.6401217    0.81375731841339
 s    1 1.00
             0.1612778                   1

9 0
 s    3 1.00
             18.731137    0.03349459952309
             2.8253937    0.23472694665786
             0.6401217    0.81375731841339
 s    1 1.00
             0.1612778                   1

10 0
 s    6 1.00
             3047.5249  0.0018347001629433
             457.36951    0.01403730124668
             103.94869   0.068842606114048
             29.210155    0.23218442062076
              9.286663    0.46794134155879
              3.163927    0.36231203217765
 s    3 1.00
             7.8682724   -0.11933240861517
             1.8812885   -0.16085421161283
             0.5442493     1.1434564825515
 s    1 1.00
             0.1687144                   1
 p    3 1.00
             7.8682724   0.068999095584993
             1.8812885    0.31642397975315
             0.5442493    0.74430825237435
 p    1 1.00
             0.1687144                   1
 d    1 1.00
                   0.8                   1

11 0
 s    3 1.00
             18.731137    0.03349459952309
             2.8253937    0.23472694665786
             0.6401217    0.81375731841339
 s    1 1.00
             0.1612778                   1

12 0
 s    6 1.00
             3047.5249  0.0018347001629433
             457.36951    0.01403730124668
             103.94869   0.068842606114048
             29.210155    0.23218442062076
              9.286663    0.46794134155879
              3.163927    0.36231203217765
 s    3 1.00
             7.8682724   -0.11933240861517
             1.8812885   -0.16085421161283
             0.5442493     1.1434564825515
 s    1 1.00
             0.1687144                   1
 p    3 1.00
             7.8682724   0.068999095584993
             1.8812885    0.31642397975315
             0.5442493    0.74430825237435
 p    1 1.00
             0.1687144                   1
 d    1 1.00
                   0.8                   1

13 0
 s    3 1.00
             18.731137    0.03349459952309
             2.8253937    0.23472694665786
             0.6401217    0.81375731841339
 s    1 1.00
             0.1612778                   1

14 0
 s    3 1.00
             18.731137    0.03349459952309
             2.8253937    0.23472694665786
             0.6401217    0.81375731841339
 s    1 1.00
             0.1612778                   1

15 0
 s    6 1.00
             3047.5249  0.0018347001629433
             457.36951    0.01403730124668
             103.94869   0.068842606114048
             29.210155    0.23218442062076
              9.286663    0.46794134155879
              3.163927    0.36231203217765
 s    3 1.00
             7.8682724   -0.11933240861517
             1.8812885   -0.16085421161283
             0.5442493     1.1434564825515
 s    1 1.00
             0.1687144                   1
 p    3 1.00
             7.8682724   0.068999095584993
             1.8812885    0.31642397975315
             0.5442493    0.74430825237435
 p    1 1.00
             0.1687144                   1
 d    1 1.00
                   0.8                   1

16 0
 s    6 1.00
             3047.5249  0.0018347001629433
             457.36951    0.01403730124668
             103.94869   0.068842606114048
             29.210155    0.23218442062076
              9.286663    0.46794134155879
              3.163927    0.36231203217765
 s    3 1.00
             7.8682724   -0.11933240861517
             1.8812885   -0.16085421161283
             0.5442493     1.1434564825515
 s    1 1.00
             0.1687144                   1
 p    3 1.00
             7.8682724   0.068999095584993
             1.8812885    0.31642397975315
             0.5442493    0.74430825237435
 p    1 1.00
             0.1687144                   1
 d    1 1.00
                   0.8                   1

17 0
 s    6 1.00
             3047.5249  0.0018347001629433
             457.36951    0.01403730124668
             103.94869   0.068842606114048
             29.210155    0.23218442062076
              9.286663    0.46794134155879
              3.163927    0.36231203217765
 s    3 1.00
             7.8682724   -0.11933240861517
             1.8812885   -0.16085421161283
             0.5442493     1.1434564825515
 s    1 1.00
             0.1687144                   1
 p    3 1.00
             7.8682724   0.068999095584993
             1.8812885    0.31642397975315
             0.5442493    0.74430825237435
 p    1 1.00
             0.1687144                   1
 d    1 1.00
                   0.8                   1

18 0
 s    6 1.00
             3047.5249  0.0018347001629433
             457.36951    0.01403730124668
             103.94869   0.068842606114048
             29.210155    0.23218442062076
              9.286663    0.46794134155879
              3.163927    0.36231203217765
 s    3 1.00
             7.8682724   -0.11933240861517
             1.8812885   -0.16085421161283
             0.5442493     1.1434564825515
 s    1 1.00
             0.1687144                   1
 p    3 1.00
             7.8682724   0.068999095584993
             1.8812885    0.31642397975315
             0.5442493    0.74430825237435
 p    1 1.00
             0.1687144                   1
 d    1 1.00
                   0.8                   1

19 0
 s    6 1.00
             3047.5249  0.0018347001629433
             457.36951    0.01403730124668
             103.94869   0.068842606114048
             29.210155    0.23218442062076
              9.286663    0.46794134155879
              3.163927    0.36231203217765
 s    3 1.00
             7.8682724   -0.11933240861517
             1.8812885   -0.16085421161283
             0.5442493     1.1434564825515
 s    1 1.00
             0.1687144                   1
 p    3 1.00
             7.8682724   0.068999095584993
             1.8812885    0.31642397975315
             0.5442493    0.74430825237435
 p    1 1.00
             0.1687144                   1
 d    1 1.00
                   0.8                   1

20 0
 s    6 1.00
             3047.5249  0.0018347001629433
             457.36951    0.01403730124668
             103.94869   0.068842606114048
             29.210155    0.23218442062076
              9.286663    0.46794134155879
              3.163927    0.36231203217765
 s    3 1.00
             7.8682724   -0.11933240861517
             1.8812885   -0.16085421161283
             0.5442493     1.1434564825515
 s    1 1.00
             0.1687144                   1
 p    3 1.00
             7.8682724   0.068999095584993
             1.8812885    0.31642397975315
             0.5442493    0.74430825237435
 p    1 1.00
             0.1687144                   1
 d    1 1.00
                   0.8                   1

21 0
 s    6 1.00
             3047.5249  0.0018347001629433
             457.36951    0.01403730124668
             103.94869   0.068842606114048
             29.210155    0.23218442062076
              9.286663    0.46794134155879
              3.163927    0.36231203217765
 s    3 1.00
             7.8682724   -0.11933240861517
             1.8812885   -0.16085421161283
             0.5442493     1.1434564825515
 s    1 1.00
             0.1687144                   1
 p    3 1.00
             7.8682724   0.068999095584993
             1.8812885    0.31642397975315
             0.5442493    0.74430825237435
 p    1 1.00
             0.1687144                   1
 d    1 1.00
                   0.8                   1

22 0
 s    3 1.00
             18.731137    0.03349459952309
             2.8253937    0.23472694665786
             0.6401217    0.81375731841339
 s    1 1.00
             0.1612778                   1

23 0
 s    3 1.00
             18.731137    0.03349459952309
             2.8253937    0.23472694665786
             0.6401217    0.81375731841339
 s    1 1.00
             0.1612778                   1

24 0
 s    3 1.00
             18.731137    0.03349459952309
             2.8253937    0.23472694665786
             0.6401217    0.81375731841339
 s    1 1.00
             0.1612778                   1

25 0
 s    3 1.00
             18.731137    0.03349459952309
             2.8253937    0.23472694665786
             0.6401217    0.81375731841339
 s    1 1.00
             0.1612778                   1

26 0
 s    3 1.00
             18.731137    0.03349459952309
             2.8253937    0.23472694665786
             0.6401217    0.81375731841339
 s    1 1.00
             0.1612778                   1

27 0
 s    3 1.00
             18.731137    0.03349459952309
             2.8253937    0.23472694665786
             0.6401217    0.81375731841339
 s    1 1.00
             0.1612778                   1

28 0
 s    3 1.00
             18.731137    0.03349459952309
             2.8253937    0.23472694665786
             0.6401217    0.81375731841339
 s    1 1.00
             0.1612778                   1

29 0
 s    3 1.00
             18.731137    0.03349459952309
             2.8253937    0.23472694665786
             0.6401217    0.81375731841339
 s    1 1.00
             0.1612778                   1

30 0
 s    3 1.00
             18.731137    0.03349459952309
             2.8253937    0.23472694665786
             0.6401217    0.81375731841339
 s    1 1.00
             0.1612778                   1

31 0
 s    3 1.00
             18.731137    0.03349459952309
             2.8253937    0.23472694665786
             0.6401217    0.81375731841339
 s    1 1.00
             0.1612778                   1

32 0
 s    3 1.00
             18.731137    0.03349459952309
             2.8253937    0.23472694665786
             0.6401217    0.81375731841339
 s    1 1.00
             0.1612778                   1

33 0
 s    6 1.00
             3047.5249  0.0018347001629433
             457.36951    0.01403730124668
             103.94869   0.068842606114048
             29.210155    0.23218442062076
              9.286663    0.46794134155879
              3.163927    0.36231203217765
 s    3 1.00
             7.8682724   -0.11933240861517
             1.8812885   -0.16085421161283
             0.5442493     1.1434564825515
 s    1 1.00
             0.1687144                   1
 p    3 1.00
             7.8682724   0.068999095584993
             1.8812885    0.31642397975315
             0.5442493    0.74430825237435
 p    1 1.00
             0.1687144                   1
 d    1 1.00
                   0.8                   1

34 0
 s    6 1.00
             3047.5249  0.0018347001629433
             457.36951    0.01403730124668
             103.94869   0.068842606114048
             29.210155    0.23218442062076
              9.286663    0.46794134155879
              3.163927    0.36231203217765
 s    3 1.00
             7.8682724   -0.11933240861517
             1.8812885   -0.16085421161283
             0.5442493     1.1434564825515
 s    1 1.00
             0.1687144                   1
 p    3 1.00
             7.8682724   0.068999095584993
             1.8812885    0.31642397975315
             0.5442493    0.74430825237435
 p    1 1.00
             0.1687144                   1
 d    1 1.00
                   0.8                   1

35 0
 s    3 1.00
             18.731137    0.03349459952309
             2.8253937    0.23472694665786
             0.6401217    0.81375731841339
 s    1 1.00
             0.1612778                   1

36 0
 s    6 1.00
             3047.5249  0.0018347001629433
             457.36951    0.01403730124668
             103.94869   0.068842606114048
             29.210155    0.23218442062076
              9.286663    0.46794134155879
              3.163927    0.36231203217765
 s    3 1.00
             7.8682724   -0.11933240861517
             1.8812885   -0.16085421161283
             0.5442493     1.1434564825515
 s    1 1.00
             0.1687144                   1
 p    3 1.00
             7.8682724   0.068999095584993
             1.8812885    0.31642397975315
             0.5442493    0.74430825237435
 p    1 1.00
             0.1687144                   1
 d    1 1.00
                   0.8                   1

37 0
 s    3 1.00
             18.731137    0.03349459952309
             2.8253937    0.23472694665786
             0.6401217    0.81375731841339
 s    1 1.00
             0.1612778                   1

38 0
 s    3 1.00
             18.731137    0.03349459952309
             2.8253937    0.23472694665786
             0.6401217    0.81375731841339
 s    1 1.00
             0.1612778                   1

39 0
 s    6 1.00
             3047.5249  0.0018347001629433
             457.36951    0.01403730124668
             103.94869   0.068842606114048
             29.210155    0.23218442062076
              9.286663    0.46794134155879
              3.163927    0.36231203217765
 s    3 1.00
             7.8682724   -0.11933240861517
             1.8812885   -0.16085421161283
             0.5442493     1.1434564825515
 s    1 1.00
             0.1687144                   1
 p    3 1.00
             7.8682724   0.068999095584993
             1.8812885    0.31642397975315
             0.5442493    0.74430825237435
 p    1 1.00
             0.1687144                   1
 d    1 1.00
                   0.8                   1

40 0
 s    6 1.00
             3047.5249  0.0018347001629433
             457.36951    0.01403730124668
             103.94869   0.068842606114048
             29.210155    0.23218442062076
              9.286663    0.46794134155879
              3.163927    0.36231203217765
 s    3 1.00
             7.8682724   -0.11933240861517
             1.8812885   -0.16085421161283
             0.5442493     1.1434564825515
 s    1 1.00
             0.1687144                   1
 p    3 1.00
             7.8682724   0.068999095584993
             1.8812885    0.31642397975315
             0.5442493    0.74430825237435
 p    1 1.00
             0.1687144                   1
 d    1 1.00
                   0.8                   1

41 0
 s    3 1.00
             18.731137    0.03349459952309
             2.8253937    0.23472694665786
             0.6401217    0.81375731841339
 s    1 1.00
             0.1612778                   1

42 0
 s    6 1.00
             5484.6717   0.001831099805527
             825.23495   0.013950098518422
             188.04696    0.06844509273075
               52.9645    0.23271427528445
              16.89757    0.47019295006289
             5.7996353    0.35852086192309
 s    3 1.00
             15.539616   -0.11077750382508
             3.5999336   -0.14802630511126
             1.0137618     1.1307670390447
 s    1 1.00
             0.2700058                   1
 p    3 1.00
             15.539616   0.070874299543311
             3.5999336    0.33975279781076
             1.0137618    0.72715859531445
 p    1 1.00
             0.2700058                   1
 d    1 1.00
                   0.8                   1

43 0
 s    3 1.00
             18.731137    0.03349459952309
             2.8253937    0.23472694665786
             0.6401217    0.81375731841339
 s    1 1.00
             0.1612778                   1

[5d]
[7f]
[9g]

[MO]
 Sym= A
 Ene=               0
 Spin= Alpha
 Occup=    1.00000
   1     0.013246860906047
   2    -0.0012054628896399
   3    0.0079419921472583
   4    0.00048046001837643
   5    -0.00022599990385468
   6    0.0012632171270344
   7    0.00056314814270174
   8    0.0014647331474951
   9    -0.0049578011305116
  10    -0.0010273801800736
  11    -0.0010262977755653
  12    0.00012679407443605
  13    -0.00022874172374485
  14    6.7799245494704e-05
  15    -0.00041440922006766
  16    -0.00098972661044103
  17      0.99460282744337
  18     0.038955001444159
  19    -0.030694642332022
  20    0.0010075429309384
  21    0.0002449275935936
  22    -0.00043090734526637
  23    -0.0038029373349746
  24    -0.0011885960027088
  25    -0.00062309536175909
  26    0.00078743417269964
  27    -0.00030155543644196
  28    -0.00034947177979561
  29    0.00022832625769046
  30    0.00025155783397773
  31    -0.0013460590827998
  32    0.0041136141121703
  33     0.021678362114727
  34    -0.00050443103502407
  35    0.0035675392061376
  36    0.00094883960034275
  37    0.00042258097631326
  38    -0.0013540113281915
  39    -0.0032376929640151
  40    0.0018427081320871
  41    0.0031522026243932
  42    -0.00060177165538821
  43     0.001234335139421
  44    0.00062273225540929
  45    -0.00043706893416794
  46    -0.00043970447453818
  47    -0.00053272658183982
  48    -0.0003280351848351
  49    0.00073360515222217
  50    -0.00042440755737539
  51    -0.00097342370203923
  52    0.00038863966004753
  53    0.00011355236466939
  54    -0.00028035811961721
  55    -0.0053454229811811
  56    -0.00043225668271504
  57     0.004905383389392
  58    -0.00016470276775103
  59    8.0502275825825e-05
  60    -2.9421864909857e-05
  61    -2.0673942378467e-05
  62    -0.00028268905056988
  63    -0.0004469238111729
  64    1.5206328908492e-05
  65    -4.128203874631e-06
  66    -6.7957927570585e-06
  67    1.2131807771033e-06
  68    -1.8916455303341e-06
  69    -2.7450280548636e-06
  70    1.174745981633e-06
  71    -5.361990517021e-06
  72    7.9378315718034e-07
  73    9.3408111607299e-06
  74    2.6840822709839e-05
  75    8.4479772875598e-06
  76    -6.6492165154386e-07
  77    -2.9436905174576e-07
  78    3.4061802371568e-07
  79    3.5642838100465e-07
  80    3.9110533329177e-08
  81    3.6002566187157e-06
  82    1.6812980497109e-05
  83    1.7808969806878e-06
  84    -4.2629055282779e-06
  85    -7.350256526303e-05
  86    9.4758100302433e-06
  87    2.8392005713068e-06
  88    1.6239481773467e-05
  89    1.9092665580708e-05
  90    -5.7543029006984e-05
  91    2.4211156486567e-05
  92    1.2859420313283e-06
  93    -1.4008763525845e-06
  94    3.5019624268504e-06
  95    -2.4989148962439e-08
  96    -6.8783270157209e-07
  97    1.1579741849456e-05
  98    2.2705861440056e-05
  99    -2.7217744937141e-06
 100    -1.8478224578686e-05
 101    -1.7258159257865e-06
 102    -3.2231421674169e-06
 103    9.0015860861591e-05
 104    -1.4901927722727e-05
 105    -2.2201173116082e-05
 106    -2.5928223076391e-06
 107    -0.00015317566951186
 108    0.00013611634127036
 109    0.00017123189815087
 110    -8.3265450806882e-06
 111    -3.6381717954188e-06
 112    1.2648058370193e-06
 113    6.3473832975443e-07
 114    -3.9791520167947e-06
 115    -6.0273861236553e-06
 116    -3.0627589209513e-05
 117    0.0002473633584617
 118    -4.7013975383187e-06
 119    5.194605010352e-06
 120    1.2771909962563e-05
 121    -6.7979951700644e-05
 122    4.7001417802171e-05
 123    3.1486747618711e-05
 124    3.3324060002759e-07
 125    -3.5389980447707e-06
 126    -1.8733794846091e-06
 127    2.3297784753056e-06
 128    -2.102847569385e-06
 129    9.1126565869443e-06
 130    -7.4782506412501e-05
 131    3.950872013877e-05
 132    1.6806071014369e-05
 133    3.2169143407673e-07
 134    0.00010501134728975
 135    -0.0001838448002762
 136    -1.6143338313372e-05
 137    -0.0003314643212581
 138    8.6368501645982e-06
 139    8.4932400002737e-06
 140    1.6583507353985e-06
 141    3.9664940146048e-06
 142    4.8155490691773e-06
 143    -1.142701490199e-05
 144    -1.4767796523935e-05
 145    0.00015759955002321
 146    2.120352349129e-05
 147    -1.1115726184315e-05
 148    -2.3534106407393e-05
 149    6.4523416583735e-05
 150    -3.3644330013694e-05
 151    -8.6511250249787e-05
 152    -7.1236943431408e-06
 153    -5.9129857095355e-06
 154    -1.8176166788564e-06
 155    4.3600579490915e-06
 156    -4.8335361870941e-06
 157     4.30779509397e-07
 158    1.2914884061189e-05
 159    -2.441885890158e-05
 160    5.9707994410062e-06
 161    -3.1236092509279e-06
 162    8.3256370363751e-07
 163    -4.6409565818209e-05
 164    1.9368205210734e-05
 165    1.7006530767629e-05
 166    3.3021624931783e-06
 167    -2.0065911013954e-06
 168    1.2070457798811e-07
 169    8.296366755116e-07
 170    8.6151673323792e-07
 171    -1.8617928260045e-06
 172    -1.3671965009685e-05
 173    3.341737742535e-05
 174    -2.373865801681e-06
 175    1.9220692195614e-06
 176    9.0916199434327e-06
 177    -1.2813794338305e-05
 178    -2.4129616308787e-06
 179    -3.5406696605305e-05
 180    1.2511953089146e-06
 181    3.1154513569382e-06
 182    7.7829234304508e-07
 183    -5.6029762403982e-07
 184    9.6301201352532e-07
 185    1.3116826777294e-06
 186    -2.8573993673303e-05
 187    2.3978481994624e-05
 188    4.4691715912706e-06
 189    4.3778300631962e-06
 190    2.4137298776148e-05
 191    -4.1381433837156e-07
 192    -2.6788786398629e-06
 193    -3.2665444135564e-05
 194    2.6581805159672e-06
 195    1.1547397584833e-07
 196    2.7177581933152e-06
 197    -9.350288912105e-08
 198    3.159881446142e-07
 199    -4.9251052276776e-06
 200    2.5819832122938e-06
 201    4.8182225926618e-06
 202    3.1368021574934e-05
 203    -1.0611923906078e-05
 204    7.4082144615282e-06
 205    1.2866116708519e-06
 206    -2.4623095498306e-05
 207    2.600797338834e-06
 208    -5.1900731275835e-05
 209    6.6704728893939e-06
 210    -2.9021724149573e-05
 211    5.2485092670724e-06
 212    1.2507390143628e-05
 213    2.2217842465653e-06
 214    -1.4271965428061e-05
 215    -3.9696033017469e-06
 216    -5.7032144508853e-05
 217    3.237876937296e-06
 218    1.6185877026205e-05
 219    -1.2887174283162e-06
 220    -2.5409008846142e-07
 221    -8.6788356742187e-05
 222    8.6563360155647e-05
 223    0.00089989235279931
 224    9.7829087790344e-05
 225    5.1723078052588e-05
 226    -0.0002163844558188
 227    0.00065442503801924
 228    0.0002962856470868
 229    -0.00076075943088015
 230    -2.8212446233904e-06
 231    -4.0338317246869e-05
 232    -1.4308786737995e-05
 233    2.3311796325934e-05
 234    2.0783481041628e-05
 235    0.00014286120802464
 236    -0.00034702324040054
 237    -0.00011943534138346
 238    -0.0002007070341775
 239    -0.00017088223213241
 240    0.00055038383388166
 241     0.000100681075405
 242    0.00031551413120074
 243    -0.0013963889315057
 244    1.1335822990013e-05
 245    6.1281284433003e-05
 246    2.3642989383414e-06
 247    1.4928135846049e-05
 248    -1.0133673672919e-05
 249    -8.2157942312213e-06
 250    0.0003180918925149
 251    -0.00033710897874513
 252    -0.00041956580463016
 253    0.0011909915346585
 254    -0.00047518440744574
 255    -8.4886381131315e-05
 256    -0.0001736455774263
 257    -0.00057091814376003
 258    2.0767358044498e-05
 259    -0.0017819866328003
 260    -9.7104209119148e-05
 261    -2.2878406536904e-05
 262    7.259877308772e-06
 263    0.00015882191760758
 264    7.2532040818272e-05
 265    -0.00025368404829384
 266    0.0001525123273269
 267    0.00018828456431573
 268    -0.00033681539460979
 269    -1.7187246261319e-05
 270    -0.00046093464047458
 271    0.0061817854954507
 272    2.5382803172959e-05
 273    -0.00016243990352555
 274    9.4913400598113e-05
 275    -0.00087705428031738
 276    -0.0019337114772766
 277    0.0031833706215504
 278    0.00011418942252464
 279    -0.00014034364415124
 280    -0.00010190256502521
 281    2.5519170495169e-05