[Molden Format]
made by pyscf v[2.0.1]
[Atoms] (AU)
C   1   6     0.69100024066471     0.64692934207205    -3.48223131169301
H   2   1     2.68052439830868     1.13355088658700    -3.25784032593313
C   3   6    -0.36286361513219     0.85440132524594    -5.97030179418974
H   4   1    -2.35448549047279     0.36322488579172    -6.17995817793143
C   5   6     0.93697958957450     1.61209284601821    -8.05828437677121
H   6   1     0.50725181311820     3.44287068169954    -8.89764684313250
C   7   6     2.86970100877903     0.12057508237944    -9.23991306333710
H   8   1     3.28022106466413    -1.70875314533660    -8.37692190559989
H   9   1     1.55630230933075    -1.92953025305990    12.99630010416247
C   10   6     0.75233899775814    -2.21270439606481    11.10705728102219
H   11   1    -0.43433408177274    -3.90944857546550    11.22216085340412
C   12   6     2.86362581178706    -2.63237380607947     9.17926416456045
H   13   1     4.39038949912609    -1.24955421540245     9.49899813497433
H   14   1     3.74629220191363    -4.48798724300892     9.47414880959024
C   15   6     2.02478325613682    -2.42177285709634     6.44560829588644
C   16   6     3.88048732735477    -3.58795445234514     4.61402886975252
C   17   6    -0.18412382258602    -1.30464291234259     5.76021113872346
C   18   6    -2.10044360464350    -0.26837831858460     7.71610340967100
C   19   6    -3.08956938670431     2.35282328359417     6.88693925039594
C   20   6    -4.37372924086464    -2.09766595989678     7.93610724222001
C   21   6    -0.83850430601230     0.06372213486173    10.33002307638377
H   22   1     0.38411922151109     1.74281358582432    10.27380136542181
H   23   1    -2.30980003007874     0.45460143924521    11.73986301809809
H   24   1     4.58527064644668    -5.38706904487420     5.36778158031719
H   25   1     5.54944938085014    -2.37631462192748     4.35398898413318
H   26   1     3.06633019150423    -3.94118377050688     2.75255466040884
H   27   1    -4.17727778763735     2.26573369139522     5.12914900961283
H   28   1    -1.52662344944051     3.68001877445626     6.59540397144508
H   29   1    -4.32916174397830     3.13643051467482     8.35225460090378
H   30   1    -5.32329548508442    -2.36691813602939     6.11583672749896
H   31   1    -5.77989366602257    -1.33896741843465     9.25748940450990
H   32   1    -3.79310905208926    -3.96389819310853     8.61386170102686
C   33   6    -1.01100794811226    -1.06331657314144     3.11929490449947
C   34   6     0.37686231036534    -0.33275864505552     1.09165013605873
H   35   1    -3.01671213906703    -1.40297922279997     2.77827895090944
C   36   6    -0.64382707979370    -0.11591880174385    -1.42063131251064
H   37   1     2.35569259782137     0.17174499283897     1.33641070251401
H   38   1    -2.63317482980319    -0.60229203511219    -1.66119700387645
C   39   6     4.20991814769739     0.79575668965015   -11.31949989075694
C   40   6     6.14288813089389    -0.86010693489370   -12.38193355267250
H   41   1     3.89481568247576     2.59125541029260   -12.27063769452772
O   42   8     7.41472391465697    -0.37430332261595   -14.24398959848541
H   43   1     6.40229959564941    -2.67780216203268   -11.34807250251721
[GTO]
1 0
 s    6 1.00
             3047.5249  0.0018347001629433
             457.36951    0.01403730124668
             103.94869   0.068842606114048
             29.210155    0.23218442062076
              9.286663    0.46794134155879
              3.163927    0.36231203217765
 s    3 1.00
             7.8682724   -0.11933240861517
             1.8812885   -0.16085421161283
             0.5442493     1.1434564825515
 s    1 1.00
             0.1687144                   1
 p    3 1.00
             7.8682724   0.068999095584993
             1.8812885    0.31642397975315
             0.5442493    0.74430825237435
 p    1 1.00
             0.1687144                   1
 d    1 1.00
                   0.8                   1

2 0
 s    3 1.00
             18.731137    0.03349459952309
             2.8253937    0.23472694665786
             0.6401217    0.81375731841339
 s    1 1.00
             0.1612778                   1

3 0
 s    6 1.00
             3047.5249  0.0018347001629433
             457.36951    0.01403730124668
             103.94869   0.068842606114048
             29.210155    0.23218442062076
              9.286663    0.46794134155879
              3.163927    0.36231203217765
 s    3 1.00
             7.8682724   -0.11933240861517
             1.8812885   -0.16085421161283
             0.5442493     1.1434564825515
 s    1 1.00
             0.1687144                   1
 p    3 1.00
             7.8682724   0.068999095584993
             1.8812885    0.31642397975315
             0.5442493    0.74430825237435
 p    1 1.00
             0.1687144                   1
 d    1 1.00
                   0.8                   1

4 0
 s    3 1.00
             18.731137    0.03349459952309
             2.8253937    0.23472694665786
             0.6401217    0.81375731841339
 s    1 1.00
             0.1612778                   1

5 0
 s    6 1.00
             3047.5249  0.0018347001629433
             457.36951    0.01403730124668
             103.94869   0.068842606114048
             29.210155    0.23218442062076
              9.286663    0.46794134155879
              3.163927    0.36231203217765
 s    3 1.00
             7.8682724   -0.11933240861517
             1.8812885   -0.16085421161283
             0.5442493     1.1434564825515
 s    1 1.00
             0.1687144                   1
 p    3 1.00
             7.8682724   0.068999095584993
             1.8812885    0.31642397975315
             0.5442493    0.74430825237435
 p    1 1.00
             0.1687144                   1
 d    1 1.00
                   0.8                   1

6 0
 s    3 1.00
             18.731137    0.03349459952309
             2.8253937    0.23472694665786
             0.6401217    0.81375731841339
 s    1 1.00
             0.1612778                   1

7 0
 s    6 1.00
             3047.5249  0.0018347001629433
             457.36951    0.01403730124668
             103.94869   0.068842606114048
             29.210155    0.23218442062076
              9.286663    0.46794134155879
              3.163927    0.36231203217765
 s    3 1.00
             7.8682724   -0.11933240861517
             1.8812885   -0.16085421161283
             0.5442493     1.1434564825515
 s    1 1.00
             0.1687144                   1
 p    3 1.00
             7.8682724   0.068999095584993
             1.8812885    0.31642397975315
             0.5442493    0.74430825237435
 p    1 1.00
             0.1687144                   1
 d    1 1.00
                   0.8                   1

8 0
 s    3 1.00
             18.731137    0.03349459952309
             2.8253937    0.23472694665786
             0.6401217    0.81375731841339
 s    1 1.00
             0.1612778                   1

9 0
 s    3 1.00
             18.731137    0.03349459952309
             2.8253937    0.23472694665786
             0.6401217    0.81375731841339
 s    1 1.00
             0.1612778                   1

10 0
 s    6 1.00
             3047.5249  0.0018347001629433
             457.36951    0.01403730124668
             103.94869   0.068842606114048
             29.210155    0.23218442062076
              9.286663    0.46794134155879
              3.163927    0.36231203217765
 s    3 1.00
             7.8682724   -0.11933240861517
             1.8812885   -0.16085421161283
             0.5442493     1.1434564825515
 s    1 1.00
             0.1687144                   1
 p    3 1.00
             7.8682724   0.068999095584993
             1.8812885    0.31642397975315
             0.5442493    0.74430825237435
 p    1 1.00
             0.1687144                   1
 d    1 1.00
                   0.8                   1

11 0
 s    3 1.00
             18.731137    0.03349459952309
             2.8253937    0.23472694665786
             0.6401217    0.81375731841339
 s    1 1.00
             0.1612778                   1

12 0
 s    6 1.00
             3047.5249  0.0018347001629433
             457.36951    0.01403730124668
             103.94869   0.068842606114048
             29.210155    0.23218442062076
              9.286663    0.46794134155879
              3.163927    0.36231203217765
 s    3 1.00
             7.8682724   -0.11933240861517
             1.8812885   -0.16085421161283
             0.5442493     1.1434564825515
 s    1 1.00
             0.1687144                   1
 p    3 1.00
             7.8682724   0.068999095584993
             1.8812885    0.31642397975315
             0.5442493    0.74430825237435
 p    1 1.00
             0.1687144                   1
 d    1 1.00
                   0.8                   1

13 0
 s    3 1.00
             18.731137    0.03349459952309
             2.8253937    0.23472694665786
             0.6401217    0.81375731841339
 s    1 1.00
             0.1612778                   1

14 0
 s    3 1.00
             18.731137    0.03349459952309
             2.8253937    0.23472694665786
             0.6401217    0.81375731841339
 s    1 1.00
             0.1612778                   1

15 0
 s    6 1.00
             3047.5249  0.0018347001629433
             457.36951    0.01403730124668
             103.94869   0.068842606114048
             29.210155    0.23218442062076
              9.286663    0.46794134155879
              3.163927    0.36231203217765
 s    3 1.00
             7.8682724   -0.11933240861517
             1.8812885   -0.16085421161283
             0.5442493     1.1434564825515
 s    1 1.00
             0.1687144                   1
 p    3 1.00
             7.8682724   0.068999095584993
             1.8812885    0.31642397975315
             0.5442493    0.74430825237435
 p    1 1.00
             0.1687144                   1
 d    1 1.00
                   0.8                   1

16 0
 s    6 1.00
             3047.5249  0.0018347001629433
             457.36951    0.01403730124668
             103.94869   0.068842606114048
             29.210155    0.23218442062076
              9.286663    0.46794134155879
              3.163927    0.36231203217765
 s    3 1.00
             7.8682724   -0.11933240861517
             1.8812885   -0.16085421161283
             0.5442493     1.1434564825515
 s    1 1.00
             0.1687144                   1
 p    3 1.00
             7.8682724   0.068999095584993
             1.8812885    0.31642397975315
             0.5442493    0.74430825237435
 p    1 1.00
             0.1687144                   1
 d    1 1.00
                   0.8                   1

17 0
 s    6 1.00
             3047.5249  0.0018347001629433
             457.36951    0.01403730124668
             103.94869   0.068842606114048
             29.210155    0.23218442062076
              9.286663    0.46794134155879
              3.163927    0.36231203217765
 s    3 1.00
             7.8682724   -0.11933240861517
             1.8812885   -0.16085421161283
             0.5442493     1.1434564825515
 s    1 1.00
             0.1687144                   1
 p    3 1.00
             7.8682724   0.068999095584993
             1.8812885    0.31642397975315
             0.5442493    0.74430825237435
 p    1 1.00
             0.1687144                   1
 d    1 1.00
                   0.8                   1

18 0
 s    6 1.00
             3047.5249  0.0018347001629433
             457.36951    0.01403730124668
             103.94869   0.068842606114048
             29.210155    0.23218442062076
              9.286663    0.46794134155879
              3.163927    0.36231203217765
 s    3 1.00
             7.8682724   -0.11933240861517
             1.8812885   -0.16085421161283
             0.5442493     1.1434564825515
 s    1 1.00
             0.1687144                   1
 p    3 1.00
             7.8682724   0.068999095584993
             1.8812885    0.31642397975315
             0.5442493    0.74430825237435
 p    1 1.00
             0.1687144                   1
 d    1 1.00
                   0.8                   1

19 0
 s    6 1.00
             3047.5249  0.0018347001629433
             457.36951    0.01403730124668
             103.94869   0.068842606114048
             29.210155    0.23218442062076
              9.286663    0.46794134155879
              3.163927    0.36231203217765
 s    3 1.00
             7.8682724   -0.11933240861517
             1.8812885   -0.16085421161283
             0.5442493     1.1434564825515
 s    1 1.00
             0.1687144                   1
 p    3 1.00
             7.8682724   0.068999095584993
             1.8812885    0.31642397975315
             0.5442493    0.74430825237435
 p    1 1.00
             0.1687144                   1
 d    1 1.00
                   0.8                   1

20 0
 s    6 1.00
             3047.5249  0.0018347001629433
             457.36951    0.01403730124668
             103.94869   0.068842606114048
             29.210155    0.23218442062076
              9.286663    0.46794134155879
              3.163927    0.36231203217765
 s    3 1.00
             7.8682724   -0.11933240861517
             1.8812885   -0.16085421161283
             0.5442493     1.1434564825515
 s    1 1.00
             0.1687144                   1
 p    3 1.00
             7.8682724   0.068999095584993
             1.8812885    0.31642397975315
             0.5442493    0.74430825237435
 p    1 1.00
             0.1687144                   1
 d    1 1.00
                   0.8                   1

21 0
 s    6 1.00
             3047.5249  0.0018347001629433
             457.36951    0.01403730124668
             103.94869   0.068842606114048
             29.210155    0.23218442062076
              9.286663    0.46794134155879
              3.163927    0.36231203217765
 s    3 1.00
             7.8682724   -0.11933240861517
             1.8812885   -0.16085421161283
             0.5442493     1.1434564825515
 s    1 1.00
             0.1687144                   1
 p    3 1.00
             7.8682724   0.068999095584993
             1.8812885    0.31642397975315
             0.5442493    0.74430825237435
 p    1 1.00
             0.1687144                   1
 d    1 1.00
                   0.8                   1

22 0
 s    3 1.00
             18.731137    0.03349459952309
             2.8253937    0.23472694665786
             0.6401217    0.81375731841339
 s    1 1.00
             0.1612778                   1

23 0
 s    3 1.00
             18.731137    0.03349459952309
             2.8253937    0.23472694665786
             0.6401217    0.81375731841339
 s    1 1.00
             0.1612778                   1

24 0
 s    3 1.00
             18.731137    0.03349459952309
             2.8253937    0.23472694665786
             0.6401217    0.81375731841339
 s    1 1.00
             0.1612778                   1

25 0
 s    3 1.00
             18.731137    0.03349459952309
             2.8253937    0.23472694665786
             0.6401217    0.81375731841339
 s    1 1.00
             0.1612778                   1

26 0
 s    3 1.00
             18.731137    0.03349459952309
             2.8253937    0.23472694665786
             0.6401217    0.81375731841339
 s    1 1.00
             0.1612778                   1

27 0
 s    3 1.00
             18.731137    0.03349459952309
             2.8253937    0.23472694665786
             0.6401217    0.81375731841339
 s    1 1.00
             0.1612778                   1

28 0
 s    3 1.00
             18.731137    0.03349459952309
             2.8253937    0.23472694665786
             0.6401217    0.81375731841339
 s    1 1.00
             0.1612778                   1

29 0
 s    3 1.00
             18.731137    0.03349459952309
             2.8253937    0.23472694665786
             0.6401217    0.81375731841339
 s    1 1.00
             0.1612778                   1

30 0
 s    3 1.00
             18.731137    0.03349459952309
             2.8253937    0.23472694665786
             0.6401217    0.81375731841339
 s    1 1.00
             0.1612778                   1

31 0
 s    3 1.00
             18.731137    0.03349459952309
             2.8253937    0.23472694665786
             0.6401217    0.81375731841339
 s    1 1.00
             0.1612778                   1

32 0
 s    3 1.00
             18.731137    0.03349459952309
             2.8253937    0.23472694665786
             0.6401217    0.81375731841339
 s    1 1.00
             0.1612778                   1

33 0
 s    6 1.00
             3047.5249  0.0018347001629433
             457.36951    0.01403730124668
             103.94869   0.068842606114048
             29.210155    0.23218442062076
              9.286663    0.46794134155879
              3.163927    0.36231203217765
 s    3 1.00
             7.8682724   -0.11933240861517
             1.8812885   -0.16085421161283
             0.5442493     1.1434564825515
 s    1 1.00
             0.1687144                   1
 p    3 1.00
             7.8682724   0.068999095584993
             1.8812885    0.31642397975315
             0.5442493    0.74430825237435
 p    1 1.00
             0.1687144                   1
 d    1 1.00
                   0.8                   1

34 0
 s    6 1.00
             3047.5249  0.0018347001629433
             457.36951    0.01403730124668
             103.94869   0.068842606114048
             29.210155    0.23218442062076
              9.286663    0.46794134155879
              3.163927    0.36231203217765
 s    3 1.00
             7.8682724   -0.11933240861517
             1.8812885   -0.16085421161283
             0.5442493     1.1434564825515
 s    1 1.00
             0.1687144                   1
 p    3 1.00
             7.8682724   0.068999095584993
             1.8812885    0.31642397975315
             0.5442493    0.74430825237435
 p    1 1.00
             0.1687144                   1
 d    1 1.00
                   0.8                   1

35 0
 s    3 1.00
             18.731137    0.03349459952309
             2.8253937    0.23472694665786
             0.6401217    0.81375731841339
 s    1 1.00
             0.1612778                   1

36 0
 s    6 1.00
             3047.5249  0.0018347001629433
             457.36951    0.01403730124668
             103.94869   0.068842606114048
             29.210155    0.23218442062076
              9.286663    0.46794134155879
              3.163927    0.36231203217765
 s    3 1.00
             7.8682724   -0.11933240861517
             1.8812885   -0.16085421161283
             0.5442493     1.1434564825515
 s    1 1.00
             0.1687144                   1
 p    3 1.00
             7.8682724   0.068999095584993
             1.8812885    0.31642397975315
             0.5442493    0.74430825237435
 p    1 1.00
             0.1687144                   1
 d    1 1.00
                   0.8                   1

37 0
 s    3 1.00
             18.731137    0.03349459952309
             2.8253937    0.23472694665786
             0.6401217    0.81375731841339
 s    1 1.00
             0.1612778                   1

38 0
 s    3 1.00
             18.731137    0.03349459952309
             2.8253937    0.23472694665786
             0.6401217    0.81375731841339
 s    1 1.00
             0.1612778                   1

39 0
 s    6 1.00
             3047.5249  0.0018347001629433
             457.36951    0.01403730124668
             103.94869   0.068842606114048
             29.210155    0.23218442062076
              9.286663    0.46794134155879
              3.163927    0.36231203217765
 s    3 1.00
             7.8682724   -0.11933240861517
             1.8812885   -0.16085421161283
             0.5442493     1.1434564825515
 s    1 1.00
             0.1687144                   1
 p    3 1.00
             7.8682724   0.068999095584993
             1.8812885    0.31642397975315
             0.5442493    0.74430825237435
 p    1 1.00
             0.1687144                   1
 d    1 1.00
                   0.8                   1

40 0
 s    6 1.00
             3047.5249  0.0018347001629433
             457.36951    0.01403730124668
             103.94869   0.068842606114048
             29.210155    0.23218442062076
              9.286663    0.46794134155879
              3.163927    0.36231203217765
 s    3 1.00
             7.8682724   -0.11933240861517
             1.8812885   -0.16085421161283
             0.5442493     1.1434564825515
 s    1 1.00
             0.1687144                   1
 p    3 1.00
             7.8682724   0.068999095584993
             1.8812885    0.31642397975315
             0.5442493    0.74430825237435
 p    1 1.00
             0.1687144                   1
 d    1 1.00
                   0.8                   1

41 0
 s    3 1.00
             18.731137    0.03349459952309
             2.8253937    0.23472694665786
             0.6401217    0.81375731841339
 s    1 1.00
             0.1612778                   1

42 0
 s    6 1.00
             5484.6717   0.001831099805527
             825.23495   0.013950098518422
             188.04696    0.06844509273075
               52.9645    0.23271427528445
              16.89757    0.47019295006289
             5.7996353    0.35852086192309
 s    3 1.00
             15.539616   -0.11077750382508
             3.5999336   -0.14802630511126
             1.0137618     1.1307670390447
 s    1 1.00
             0.2700058                   1
 p    3 1.00
             15.539616   0.070874299543311
             3.5999336    0.33975279781076
             1.0137618    0.72715859531445
 p    1 1.00
             0.2700058                   1
 d    1 1.00
                   0.8                   1

43 0
 s    3 1.00
             18.731137    0.03349459952309
             2.8253937    0.23472694665786
             0.6401217    0.81375731841339
 s    1 1.00
             0.1612778                   1

[5d]
[7f]
[9g]

[MO]
 Sym= A
 Ene=               0
 Spin= Alpha
 Occup=    1.00000
   1     0.014136891091861
   2    -0.0011927639158129
   3    0.0078620051702823
   4    0.00045757891069336
   5    -0.00022064884421871
   6    0.0012858305915832
   7    0.00072739467521475
   8    0.0015598470773401
   9    -0.0055652048118966
  10    -0.0010197022998668
  11    -0.001004293506966
  12    0.00013742935168871
  13    -0.00021850682625702
  14    6.2906928037289e-05
  15    -0.00044854368854648
  16    -0.00097657771620249
  17      0.99466214355853
  18     0.039141034531867
  19    -0.031172880571353
  20     0.001042969100128
  21    0.00023413233426032
  22    -0.00052731187474512
  23    -0.0039874302591726
  24    -0.0012602983778648
  25    -0.00075970460669121
  26    0.00079032171296849
  27    -0.00031354192775694
  28    -0.00034039444741672
  29    0.00024828356637864
  30    0.00024544520327463
  31    -0.0013455399104554
  32    0.0041248413632388
  33      0.01882550641588
  34    -0.00037334865647673
  35     0.002428310157154
  36    0.00095207197787688
  37    0.00039472138393155
  38    -0.001318362292057
  39    -0.0033653711941556
  40    0.0027542216991998
  41    0.0035458525421602
  42    -0.0006124257166487
  43    0.0012826535897599
  44    0.00059597418946537
  45    -0.00043274390409176
  46    -0.00041324064884437
  47    -0.00057695900473137
  48    -0.00047305532991502
  49    0.00046407253351275
  50    -0.00049538237375835
  51    -0.00043648709819996
  52    0.0003871153453324
  53    7.1761494784918e-05
  54    -0.00033165174526019
  55    -0.0058916940700154
  56    0.00024343864090578
  57    0.0059632430622554
  58    -0.00018750549180097
  59    3.1240461983539e-05
  60    2.6877179398029e-05
  61    -0.0001014778567261
  62    -0.00030841593064222
  63    -0.00049291224568067
  64    0.00011790228253172
  65    -4.361303594569e-06
  66    -6.3238630148748e-06
  67    1.1300928923721e-06
  68    -2.8867344550765e-06
  69    9.9338835042357e-08
  70    1.7519014553348e-06
  71    -5.9059412929297e-06
  72    9.7872067607109e-07
  73    1.004667412989e-05
  74    2.7576808282364e-05
  75    7.4428443134083e-06
  76    -6.3183356927901e-07
  77    -4.0579135119867e-07
  78    4.8428648897027e-07
  79    4.7517832591185e-07
  80    -8.5532918751518e-09
  81    3.5938623069706e-06
  82    1.6744964977621e-05
  83    1.9250930572175e-06
  84    -3.5609861185167e-06
  85    -8.6234950471955e-05
  86    9.9967692094306e-06
  87    2.8347628343568e-06
  88    1.7289612224146e-05
  89    2.4531402444604e-05
  90    -6.3745262250127e-05
  91    2.6026674887722e-05
  92    1.3361284285227e-06
  93    -1.8564092677229e-06
  94    4.0639619896407e-06
  95    -1.5677445518674e-07
  96    -7.6506140420711e-07
  97    1.2430151704995e-05
  98    2.3237654014792e-05
  99    -2.7941684902917e-06
 100    -1.9725988763049e-05
 101    -2.1892626141645e-06
 102    -5.6306649088341e-06
 103    0.00014441709413685
 104    -1.5236346587109e-05
 105    -2.2430293950343e-05
 106    -4.0948149771381e-06
 107    -0.00018498667997852
 108    0.00016212541541803
 109    0.00018674947771351
 110    -8.3432277381314e-06
 111    -3.495551867533e-06
 112    1.2213054907192e-06
 113    1.0080354162837e-06
 114    -5.0452251306141e-06
 115    -6.22323487526e-06
 116    -3.1928291202118e-05
 117    0.00026932784260983
 118    -5.4577726476563e-06
 119    6.7517006429586e-06
 120    1.2683155860519e-05
 121    -7.0735494763979e-05
 122    4.1646287646646e-05
 123    3.9310829189397e-05
 124    5.6300653683265e-07
 125    -3.7711800403868e-06
 126    -2.203437327509e-06
 127    2.1793712302985e-06
 128    -2.306019953977e-06
 129    8.4916261141083e-06
 130    -7.9565801222661e-05
 131    9.3802062705896e-05
 132    1.9487819819085e-05
 133    3.4260378796207e-07
 134    0.00010575210793322
 135    -0.0002538609129506
 136    -9.4205025530391e-07
 137    -0.00040213871317649
 138    1.1156096508984e-05
 139    9.5568033309169e-06
 140    2.7524247866742e-06
 141    3.9299229860839e-06
 142    5.4391434543618e-06
 143    -1.1501782236011e-05
 144    -1.6387189753796e-05
 145    0.00014656295816303
 146    2.1152041567286e-05
 147    -1.0990535860907e-05
 148    -2.1654329063125e-05
 149    6.5920138858421e-05
 150    -2.9790634294818e-05
 151    -8.6827971631772e-05
 152    -8.4605323830857e-06
 153    -5.8325119313734e-06
 154    -2.5300284573805e-06
 155    4.8871981615537e-06
 156    -5.5225533875333e-06
 157    6.3855063342498e-07
 158    1.4365742714902e-05
 159    -2.8524259902845e-05
 160    6.5486344089831e-06
 161    -3.0051093304248e-06
 162    8.9520379967051e-07
 163    -5.2311162861533e-05
 164    2.0745033170286e-05
 165    1.7124752345726e-05
 166    3.7687786922353e-06
 167    -1.965982022705e-06
 168    2.0358643970275e-07
 169    7.4596362306934e-07
 170    1.2570713130284e-06
 171    -1.7812959604389e-06
 172    -1.3154093546416e-05
 173    3.1521147229917e-05
 174    -2.6063244938063e-06
 175     1.81619571327e-06
 176    9.9032454764463e-06
 177    -1.0734226035341e-05
 178    1.744528295591e-07
 179    -3.4962474538609e-05
 180    1.2480757061558e-06
 181    3.6254381221142e-06
 182    6.957969792058e-07
 183    -6.7607849310566e-07
 184    1.3414850908717e-06
 185    8.5824488139685e-07
 186    -3.2874917131477e-05
 187    3.4962974215544e-05
 188    3.8428474359313e-06
 189    4.5177255003656e-06
 190    2.4975523676345e-05
 191    2.8091374579534e-06
 192    -4.6515500926564e-06
 193    -4.1970680578032e-05
 194    3.2264852926291e-06
 195    2.9854221814647e-07
 196    3.1937560943561e-06
 197    -2.6158918236499e-07
 198    3.2642615389069e-07
 199    -6.1822754550654e-06
 200    1.5929565877255e-06
 201    4.8943635811854e-06
 202    3.4824138075031e-05
 203    -1.2155518952904e-05
 204    2.5387195287067e-06
 205    2.0493093271647e-06
 206    -2.5595626599537e-05
 207    3.7413430302509e-06
 208    -5.628914514904e-05
 209    7.5939637591368e-06
 210    -3.1712328249627e-05
 211    5.8400805902956e-06
 212    1.5171101857879e-05
 213    2.3286856504137e-06
 214    -1.6197418641272e-05
 215    -4.9916067148471e-06
 216    -5.1361000094829e-05
 217    3.6912880701063e-06
 218    1.6049790381041e-05
 219    -7.6653050378265e-07
 220    4.5062142368421e-07
 221    -8.831214888944e-05
 222    7.5621046169786e-05
 223    0.00095326212294381
 224    9.9944885694123e-05
 225    5.3161347153378e-05
 226    -0.00021296682429359
 227    0.00067028837634105
 228    0.00032567377889017
 229    -0.0009201738870717
 230    -2.1485157391537e-06
 231    -4.5442654621092e-05
 232    -1.7654787197065e-05
 233    2.5185695547478e-05
 234    2.3096657663162e-05
 235    0.00014455211049001
 236    -0.00033944769057032
 237    -0.00034592003744009
 238    -0.00020328565590128
 239    -0.00017202903039668
 240    0.00055777399433444
 241    0.00016220746760048
 242    0.00031767582058047
 243    -0.0014034180422437
 244     6.50126474206e-06
 245    6.5588606313314e-05
 246    7.0572465376397e-06
 247     1.58054480202e-05
 248    -8.7575736781926e-06
 249    -1.4509365574507e-05
 250    0.00031801049405442
 251    -0.00034227396635155
 252    -0.00045647132764601
 253    0.0017745483351814
 254    -0.00048042090196776
 255    -9.3588469802004e-05
 256    -0.00018036548012234
 257    -0.00033888488891058
 258    0.0001543868655611
 259    -0.0019134774333302
 260    -8.9667723735814e-05
 261    -3.0732911983047e-05
 262    -1.240915673019e-06
 263    0.00016281124113433
 264    8.0523212429051e-05
 265    -0.00025851959124696
 266    0.00016774905796009
 267    0.00019525572912453
 268    -0.00028848267906404
 269    -2.3086353978508e-05
 270    -0.00051352156523206
 271    0.0068478154632872
 272    -2.3676657839443e-06
 273    -0.00015425269713399
 274    9.2677616634396e-05
 275    -0.001018775511683
 276    -0.0024846042880179
 277    0.0032746053073472
 278    0.0001117766915513
 279    -0.00016287894800741
 280    -0.00011238623660092
 281    3.1998945492057e-06