[Molden Format]
made by pyscf v[2.0.1]
[Atoms] (AU)
C   1   6     0.69100024066471     0.64692934207205    -3.48223131169301
H   2   1     2.68052439830868     1.13355088658700    -3.25784032593313
C   3   6    -0.36286361513219     0.85440132524594    -5.97030179418974
H   4   1    -2.35448549047279     0.36322488579172    -6.17995817793143
C   5   6     0.93697958957450     1.61209284601821    -8.05828437677121
H   6   1     1.25179717896080     3.62344259528190    -8.36861463213972
C   7   6     1.93299030663405    -0.10622024085708    -9.90534865945394
H   8   1     1.60367989661651    -2.11561190296467    -9.56827000221191
H   9   1     1.55630230933075    -1.92953025305990    12.99630010416247
C   10   6     0.75233899775814    -2.21270439606481    11.10705728102219
H   11   1    -0.43433408177274    -3.90944857546550    11.22216085340412
C   12   6     2.86362581178706    -2.63237380607947     9.17926416456045
H   13   1     4.39038949912609    -1.24955421540245     9.49899813497433
H   14   1     3.74629220191363    -4.48798724300892     9.47414880959024
C   15   6     2.02478325613682    -2.42177285709634     6.44560829588644
C   16   6     3.88048732735477    -3.58795445234514     4.61402886975252
C   17   6    -0.18412382258602    -1.30464291234259     5.76021113872346
C   18   6    -2.10044360464350    -0.26837831858460     7.71610340967100
C   19   6    -3.08956938670431     2.35282328359417     6.88693925039594
C   20   6    -4.37372924086464    -2.09766595989678     7.93610724222001
C   21   6    -0.83850430601230     0.06372213486173    10.33002307638377
H   22   1     0.38411922151109     1.74281358582432    10.27380136542181
H   23   1    -2.30980003007874     0.45460143924521    11.73986301809809
H   24   1     4.58527064644668    -5.38706904487420     5.36778158031719
H   25   1     5.54944938085014    -2.37631462192748     4.35398898413318
H   26   1     3.06633019150423    -3.94118377050688     2.75255466040884
H   27   1    -4.17727778763735     2.26573369139522     5.12914900961283
H   28   1    -1.52662344944051     3.68001877445626     6.59540397144508
H   29   1    -4.32916174397830     3.13643051467482     8.35225460090378
H   30   1    -5.32329548508442    -2.36691813602939     6.11583672749896
H   31   1    -5.77989366602257    -1.33896741843465     9.25748940450990
H   32   1    -3.79310905208926    -3.96389819310853     8.61386170102686
C   33   6    -1.01100794811226    -1.06331657314144     3.11929490449947
C   34   6     0.37686231036534    -0.33275864505552     1.09165013605873
H   35   1    -3.01671213906703    -1.40297922279997     2.77827895090944
C   36   6    -0.64382707979370    -0.11591880174385    -1.42063131251064
H   37   1     2.35569259782137     0.17174499283897     1.33641070251401
H   38   1    -2.63317482980319    -0.60229203511219    -1.66119700387645
C   39   6     3.23483881481583     0.56109494848388   -12.01167590238676
C   40   6     4.17213386166354    -1.33546547775814   -13.78129708499957
H   41   1     3.62751071831436     2.52907164005278   -12.45960989181140
O   42   8     5.35190984410731    -0.86987395658954   -15.70799822813352
H   43   1     3.72751838268070    -3.32497850208065   -13.24806737881206
[GTO]
1 0
 s    6 1.00
             3047.5249  0.0018347001629433
             457.36951    0.01403730124668
             103.94869   0.068842606114048
             29.210155    0.23218442062076
              9.286663    0.46794134155879
              3.163927    0.36231203217765
 s    3 1.00
             7.8682724   -0.11933240861517
             1.8812885   -0.16085421161283
             0.5442493     1.1434564825515
 s    1 1.00
             0.1687144                   1
 p    3 1.00
             7.8682724   0.068999095584993
             1.8812885    0.31642397975315
             0.5442493    0.74430825237435
 p    1 1.00
             0.1687144                   1
 d    1 1.00
                   0.8                   1

2 0
 s    3 1.00
             18.731137    0.03349459952309
             2.8253937    0.23472694665786
             0.6401217    0.81375731841339
 s    1 1.00
             0.1612778                   1

3 0
 s    6 1.00
             3047.5249  0.0018347001629433
             457.36951    0.01403730124668
             103.94869   0.068842606114048
             29.210155    0.23218442062076
              9.286663    0.46794134155879
              3.163927    0.36231203217765
 s    3 1.00
             7.8682724   -0.11933240861517
             1.8812885   -0.16085421161283
             0.5442493     1.1434564825515
 s    1 1.00
             0.1687144                   1
 p    3 1.00
             7.8682724   0.068999095584993
             1.8812885    0.31642397975315
             0.5442493    0.74430825237435
 p    1 1.00
             0.1687144                   1
 d    1 1.00
                   0.8                   1

4 0
 s    3 1.00
             18.731137    0.03349459952309
             2.8253937    0.23472694665786
             0.6401217    0.81375731841339
 s    1 1.00
             0.1612778                   1

5 0
 s    6 1.00
             3047.5249  0.0018347001629433
             457.36951    0.01403730124668
             103.94869   0.068842606114048
             29.210155    0.23218442062076
              9.286663    0.46794134155879
              3.163927    0.36231203217765
 s    3 1.00
             7.8682724   -0.11933240861517
             1.8812885   -0.16085421161283
             0.5442493     1.1434564825515
 s    1 1.00
             0.1687144                   1
 p    3 1.00
             7.8682724   0.068999095584993
             1.8812885    0.31642397975315
             0.5442493    0.74430825237435
 p    1 1.00
             0.1687144                   1
 d    1 1.00
                   0.8                   1

6 0
 s    3 1.00
             18.731137    0.03349459952309
             2.8253937    0.23472694665786
             0.6401217    0.81375731841339
 s    1 1.00
             0.1612778                   1

7 0
 s    6 1.00
             3047.5249  0.0018347001629433
             457.36951    0.01403730124668
             103.94869   0.068842606114048
             29.210155    0.23218442062076
              9.286663    0.46794134155879
              3.163927    0.36231203217765
 s    3 1.00
             7.8682724   -0.11933240861517
             1.8812885   -0.16085421161283
             0.5442493     1.1434564825515
 s    1 1.00
             0.1687144                   1
 p    3 1.00
             7.8682724   0.068999095584993
             1.8812885    0.31642397975315
             0.5442493    0.74430825237435
 p    1 1.00
             0.1687144                   1
 d    1 1.00
                   0.8                   1

8 0
 s    3 1.00
             18.731137    0.03349459952309
             2.8253937    0.23472694665786
             0.6401217    0.81375731841339
 s    1 1.00
             0.1612778                   1

9 0
 s    3 1.00
             18.731137    0.03349459952309
             2.8253937    0.23472694665786
             0.6401217    0.81375731841339
 s    1 1.00
             0.1612778                   1

10 0
 s    6 1.00
             3047.5249  0.0018347001629433
             457.36951    0.01403730124668
             103.94869   0.068842606114048
             29.210155    0.23218442062076
              9.286663    0.46794134155879
              3.163927    0.36231203217765
 s    3 1.00
             7.8682724   -0.11933240861517
             1.8812885   -0.16085421161283
             0.5442493     1.1434564825515
 s    1 1.00
             0.1687144                   1
 p    3 1.00
             7.8682724   0.068999095584993
             1.8812885    0.31642397975315
             0.5442493    0.74430825237435
 p    1 1.00
             0.1687144                   1
 d    1 1.00
                   0.8                   1

11 0
 s    3 1.00
             18.731137    0.03349459952309
             2.8253937    0.23472694665786
             0.6401217    0.81375731841339
 s    1 1.00
             0.1612778                   1

12 0
 s    6 1.00
             3047.5249  0.0018347001629433
             457.36951    0.01403730124668
             103.94869   0.068842606114048
             29.210155    0.23218442062076
              9.286663    0.46794134155879
              3.163927    0.36231203217765
 s    3 1.00
             7.8682724   -0.11933240861517
             1.8812885   -0.16085421161283
             0.5442493     1.1434564825515
 s    1 1.00
             0.1687144                   1
 p    3 1.00
             7.8682724   0.068999095584993
             1.8812885    0.31642397975315
             0.5442493    0.74430825237435
 p    1 1.00
             0.1687144                   1
 d    1 1.00
                   0.8                   1

13 0
 s    3 1.00
             18.731137    0.03349459952309
             2.8253937    0.23472694665786
             0.6401217    0.81375731841339
 s    1 1.00
             0.1612778                   1

14 0
 s    3 1.00
             18.731137    0.03349459952309
             2.8253937    0.23472694665786
             0.6401217    0.81375731841339
 s    1 1.00
             0.1612778                   1

15 0
 s    6 1.00
             3047.5249  0.0018347001629433
             457.36951    0.01403730124668
             103.94869   0.068842606114048
             29.210155    0.23218442062076
              9.286663    0.46794134155879
              3.163927    0.36231203217765
 s    3 1.00
             7.8682724   -0.11933240861517
             1.8812885   -0.16085421161283
             0.5442493     1.1434564825515
 s    1 1.00
             0.1687144                   1
 p    3 1.00
             7.8682724   0.068999095584993
             1.8812885    0.31642397975315
             0.5442493    0.74430825237435
 p    1 1.00
             0.1687144                   1
 d    1 1.00
                   0.8                   1

16 0
 s    6 1.00
             3047.5249  0.0018347001629433
             457.36951    0.01403730124668
             103.94869   0.068842606114048
             29.210155    0.23218442062076
              9.286663    0.46794134155879
              3.163927    0.36231203217765
 s    3 1.00
             7.8682724   -0.11933240861517
             1.8812885   -0.16085421161283
             0.5442493     1.1434564825515
 s    1 1.00
             0.1687144                   1
 p    3 1.00
             7.8682724   0.068999095584993
             1.8812885    0.31642397975315
             0.5442493    0.74430825237435
 p    1 1.00
             0.1687144                   1
 d    1 1.00
                   0.8                   1

17 0
 s    6 1.00
             3047.5249  0.0018347001629433
             457.36951    0.01403730124668
             103.94869   0.068842606114048
             29.210155    0.23218442062076
              9.286663    0.46794134155879
              3.163927    0.36231203217765
 s    3 1.00
             7.8682724   -0.11933240861517
             1.8812885   -0.16085421161283
             0.5442493     1.1434564825515
 s    1 1.00
             0.1687144                   1
 p    3 1.00
             7.8682724   0.068999095584993
             1.8812885    0.31642397975315
             0.5442493    0.74430825237435
 p    1 1.00
             0.1687144                   1
 d    1 1.00
                   0.8                   1

18 0
 s    6 1.00
             3047.5249  0.0018347001629433
             457.36951    0.01403730124668
             103.94869   0.068842606114048
             29.210155    0.23218442062076
              9.286663    0.46794134155879
              3.163927    0.36231203217765
 s    3 1.00
             7.8682724   -0.11933240861517
             1.8812885   -0.16085421161283
             0.5442493     1.1434564825515
 s    1 1.00
             0.1687144                   1
 p    3 1.00
             7.8682724   0.068999095584993
             1.8812885    0.31642397975315
             0.5442493    0.74430825237435
 p    1 1.00
             0.1687144                   1
 d    1 1.00
                   0.8                   1

19 0
 s    6 1.00
             3047.5249  0.0018347001629433
             457.36951    0.01403730124668
             103.94869   0.068842606114048
             29.210155    0.23218442062076
              9.286663    0.46794134155879
              3.163927    0.36231203217765
 s    3 1.00
             7.8682724   -0.11933240861517
             1.8812885   -0.16085421161283
             0.5442493     1.1434564825515
 s    1 1.00
             0.1687144                   1
 p    3 1.00
             7.8682724   0.068999095584993
             1.8812885    0.31642397975315
             0.5442493    0.74430825237435
 p    1 1.00
             0.1687144                   1
 d    1 1.00
                   0.8                   1

20 0
 s    6 1.00
             3047.5249  0.0018347001629433
             457.36951    0.01403730124668
             103.94869   0.068842606114048
             29.210155    0.23218442062076
              9.286663    0.46794134155879
              3.163927    0.36231203217765
 s    3 1.00
             7.8682724   -0.11933240861517
             1.8812885   -0.16085421161283
             0.5442493     1.1434564825515
 s    1 1.00
             0.1687144                   1
 p    3 1.00
             7.8682724   0.068999095584993
             1.8812885    0.31642397975315
             0.5442493    0.74430825237435
 p    1 1.00
             0.1687144                   1
 d    1 1.00
                   0.8                   1

21 0
 s    6 1.00
             3047.5249  0.0018347001629433
             457.36951    0.01403730124668
             103.94869   0.068842606114048
             29.210155    0.23218442062076
              9.286663    0.46794134155879
              3.163927    0.36231203217765
 s    3 1.00
             7.8682724   -0.11933240861517
             1.8812885   -0.16085421161283
             0.5442493     1.1434564825515
 s    1 1.00
             0.1687144                   1
 p    3 1.00
             7.8682724   0.068999095584993
             1.8812885    0.31642397975315
             0.5442493    0.74430825237435
 p    1 1.00
             0.1687144                   1
 d    1 1.00
                   0.8                   1

22 0
 s    3 1.00
             18.731137    0.03349459952309
             2.8253937    0.23472694665786
             0.6401217    0.81375731841339
 s    1 1.00
             0.1612778                   1

23 0
 s    3 1.00
             18.731137    0.03349459952309
             2.8253937    0.23472694665786
             0.6401217    0.81375731841339
 s    1 1.00
             0.1612778                   1

24 0
 s    3 1.00
             18.731137    0.03349459952309
             2.8253937    0.23472694665786
             0.6401217    0.81375731841339
 s    1 1.00
             0.1612778                   1

25 0
 s    3 1.00
             18.731137    0.03349459952309
             2.8253937    0.23472694665786
             0.6401217    0.81375731841339
 s    1 1.00
             0.1612778                   1

26 0
 s    3 1.00
             18.731137    0.03349459952309
             2.8253937    0.23472694665786
             0.6401217    0.81375731841339
 s    1 1.00
             0.1612778                   1

27 0
 s    3 1.00
             18.731137    0.03349459952309
             2.8253937    0.23472694665786
             0.6401217    0.81375731841339
 s    1 1.00
             0.1612778                   1

28 0
 s    3 1.00
             18.731137    0.03349459952309
             2.8253937    0.23472694665786
             0.6401217    0.81375731841339
 s    1 1.00
             0.1612778                   1

29 0
 s    3 1.00
             18.731137    0.03349459952309
             2.8253937    0.23472694665786
             0.6401217    0.81375731841339
 s    1 1.00
             0.1612778                   1

30 0
 s    3 1.00
             18.731137    0.03349459952309
             2.8253937    0.23472694665786
             0.6401217    0.81375731841339
 s    1 1.00
             0.1612778                   1

31 0
 s    3 1.00
             18.731137    0.03349459952309
             2.8253937    0.23472694665786
             0.6401217    0.81375731841339
 s    1 1.00
             0.1612778                   1

32 0
 s    3 1.00
             18.731137    0.03349459952309
             2.8253937    0.23472694665786
             0.6401217    0.81375731841339
 s    1 1.00
             0.1612778                   1

33 0
 s    6 1.00
             3047.5249  0.0018347001629433
             457.36951    0.01403730124668
             103.94869   0.068842606114048
             29.210155    0.23218442062076
              9.286663    0.46794134155879
              3.163927    0.36231203217765
 s    3 1.00
             7.8682724   -0.11933240861517
             1.8812885   -0.16085421161283
             0.5442493     1.1434564825515
 s    1 1.00
             0.1687144                   1
 p    3 1.00
             7.8682724   0.068999095584993
             1.8812885    0.31642397975315
             0.5442493    0.74430825237435
 p    1 1.00
             0.1687144                   1
 d    1 1.00
                   0.8                   1

34 0
 s    6 1.00
             3047.5249  0.0018347001629433
             457.36951    0.01403730124668
             103.94869   0.068842606114048
             29.210155    0.23218442062076
              9.286663    0.46794134155879
              3.163927    0.36231203217765
 s    3 1.00
             7.8682724   -0.11933240861517
             1.8812885   -0.16085421161283
             0.5442493     1.1434564825515
 s    1 1.00
             0.1687144                   1
 p    3 1.00
             7.8682724   0.068999095584993
             1.8812885    0.31642397975315
             0.5442493    0.74430825237435
 p    1 1.00
             0.1687144                   1
 d    1 1.00
                   0.8                   1

35 0
 s    3 1.00
             18.731137    0.03349459952309
             2.8253937    0.23472694665786
             0.6401217    0.81375731841339
 s    1 1.00
             0.1612778                   1

36 0
 s    6 1.00
             3047.5249  0.0018347001629433
             457.36951    0.01403730124668
             103.94869   0.068842606114048
             29.210155    0.23218442062076
              9.286663    0.46794134155879
              3.163927    0.36231203217765
 s    3 1.00
             7.8682724   -0.11933240861517
             1.8812885   -0.16085421161283
             0.5442493     1.1434564825515
 s    1 1.00
             0.1687144                   1
 p    3 1.00
             7.8682724   0.068999095584993
             1.8812885    0.31642397975315
             0.5442493    0.74430825237435
 p    1 1.00
             0.1687144                   1
 d    1 1.00
                   0.8                   1

37 0
 s    3 1.00
             18.731137    0.03349459952309
             2.8253937    0.23472694665786
             0.6401217    0.81375731841339
 s    1 1.00
             0.1612778                   1

38 0
 s    3 1.00
             18.731137    0.03349459952309
             2.8253937    0.23472694665786
             0.6401217    0.81375731841339
 s    1 1.00
             0.1612778                   1

39 0
 s    6 1.00
             3047.5249  0.0018347001629433
             457.36951    0.01403730124668
             103.94869   0.068842606114048
             29.210155    0.23218442062076
              9.286663    0.46794134155879
              3.163927    0.36231203217765
 s    3 1.00
             7.8682724   -0.11933240861517
             1.8812885   -0.16085421161283
             0.5442493     1.1434564825515
 s    1 1.00
             0.1687144                   1
 p    3 1.00
             7.8682724   0.068999095584993
             1.8812885    0.31642397975315
             0.5442493    0.74430825237435
 p    1 1.00
             0.1687144                   1
 d    1 1.00
                   0.8                   1

40 0
 s    6 1.00
             3047.5249  0.0018347001629433
             457.36951    0.01403730124668
             103.94869   0.068842606114048
             29.210155    0.23218442062076
              9.286663    0.46794134155879
              3.163927    0.36231203217765
 s    3 1.00
             7.8682724   -0.11933240861517
             1.8812885   -0.16085421161283
             0.5442493     1.1434564825515
 s    1 1.00
             0.1687144                   1
 p    3 1.00
             7.8682724   0.068999095584993
             1.8812885    0.31642397975315
             0.5442493    0.74430825237435
 p    1 1.00
             0.1687144                   1
 d    1 1.00
                   0.8                   1

41 0
 s    3 1.00
             18.731137    0.03349459952309
             2.8253937    0.23472694665786
             0.6401217    0.81375731841339
 s    1 1.00
             0.1612778                   1

42 0
 s    6 1.00
             5484.6717   0.001831099805527
             825.23495   0.013950098518422
             188.04696    0.06844509273075
               52.9645    0.23271427528445
              16.89757    0.47019295006289
             5.7996353    0.35852086192309
 s    3 1.00
             15.539616   -0.11077750382508
             3.5999336   -0.14802630511126
             1.0137618     1.1307670390447
 s    1 1.00
             0.2700058                   1
 p    3 1.00
             15.539616   0.070874299543311
             3.5999336    0.33975279781076
             1.0137618    0.72715859531445
 p    1 1.00
             0.2700058                   1
 d    1 1.00
                   0.8                   1

43 0
 s    3 1.00
             18.731137    0.03349459952309
             2.8253937    0.23472694665786
             0.6401217    0.81375731841339
 s    1 1.00
             0.1612778                   1

[5d]
[7f]
[9g]

[MO]
 Sym= A
 Ene=               0
 Spin= Alpha
 Occup=    1.00000
   1     0.013286547665315
   2    -0.0012808604035425
   3    0.0077441023265461
   4    0.00041108819076589
   5    -0.00011535832956882
   6    0.0013552253881051
   7    0.00086551113597058
   8    0.0012405681611317
   9    -0.005962596291609
  10    -0.0010343449942917
  11    -0.00096940944881151
  12    0.00016835922306183
  13    -0.00021160545185649
  14    6.061817978261e-05
  15    -0.0004923372338253
  16    -0.00091270418421894
  17      0.99473581124655
  18     0.039254683705805
  19    -0.031480674975625
  20    0.00099739638163317
  21    0.00017250359131632
  22    -0.00066291735936953
  23    -0.0039581952010077
  24    -0.0011481213439657
  25    -0.00077804595943583
  26    0.0008225500369405
  27    -0.00031010844576976
  28    -0.00037027325462378
  29    0.00028518897261482
  30    0.00015970649210362
  31    -0.0012807667755668
  32    0.0042536319996324
  33     0.015611312203761
  34    -0.00030830491926877
  35    0.0014510928108287
  36    0.00095246780331383
  37    0.00036598687502648
  38    -0.0013193677469508
  39    -0.002057807035672
  40    0.0036913608061265
  41    0.0049426028764611
  42    -0.00071424237061133
  43    0.0012966052232862
  44    0.00050429652375788
  45    -0.00037204201503272
  46    -0.00044817977921863
  47    -0.00059993090275414
  48    -0.00064977527234117
  49    0.00032857348128269
  50    -0.00057586265291811
  51    0.0004094960701526
  52    0.00022191680986747
  53    5.0724028888395e-06
  54    -0.00047954286881167
  55    -0.0044580078560309
  56    0.0012336458510429
  57    0.0078287479898653
  58    -0.00013425827612779
  59    5.6003710836918e-07
  60    0.00022359138379682
  61    -0.00027828290661242
  62    -0.00011854120754647
  63    -0.00052587312309053
  64    0.00022501792598332
  65    -4.4901256059157e-06
  66    -5.5995825849512e-06
  67    9.6915894317597e-07
  68    -4.3017389270305e-06
  69    6.8420890377242e-06
  70    2.4223671204645e-06
  71    -6.2851678022019e-06
  72    1.2705684441747e-06
  73    9.3129018306044e-06
  74    2.6077789506707e-05
  75    6.2027347989066e-06
  76    -5.7048534496702e-07
  77    -6.1440667091016e-07
  78    7.2580671210481e-07
  79    6.7426014279563e-07
  80    -6.7720845452686e-08
  81    3.211847137543e-06
  82    1.5033625321334e-05
  83    2.0256426338338e-06
  84    -1.7424753441819e-06
  85    -9.2431763282639e-05
  86    1.0167085656164e-05
  87    3.3190644776417e-06
  88    1.7376607558353e-05
  89    3.2620089935692e-05
  90    -6.8170505533863e-05
  91    2.3560225687491e-05
  92    1.2613176448721e-06
  93    -2.4476986732709e-06
  94    4.5081995820465e-06
  95    -4.3501948876872e-07
  96    -7.1989354495518e-07
  97    1.3014052335537e-05
  98    2.2437302700938e-05
  99    -3.030317350022e-06
 100    -2.045468315094e-05
 101    -2.8866903364431e-06
 102    -1.1725943583588e-05
 103    0.00024196546591924
 104    -1.5701922175706e-05
 105    -2.1649840026774e-05
 106    -5.0593377019159e-06
 107    -0.00022431028549532
 108    0.00018601914164471
 109    0.00017519163996268
 110    -7.6179078328209e-06
 111    -2.8655427564964e-06
 112    1.1233919528116e-06
 113    2.7419824073504e-06
 114    -6.1649823320293e-06
 115    -6.2420363224561e-06
 116    -3.1911516660764e-05
 117    0.00028139815094186
 118    -6.1981197562658e-06
 119    1.0094513959649e-05
 120    1.0696473697302e-05
 121    -6.4140334668046e-05
 122    2.3238024419175e-05
 123    4.1223555304772e-05
 124    1.113180703823e-06
 125    -3.1998825629534e-06
 126    -2.8311134645703e-06
 127    1.214585812098e-06
 128    -2.0303072484608e-06
 129    7.9206247022427e-06
 130    -8.3368964419167e-05
 131    0.00012750323970596
 132    2.1402274221023e-05
 133    -6.4054031473097e-06
 134    0.00010416001129819
 135    -0.00035504050971285
 136    4.5132969335378e-05
 137    -0.00044209290581423
 138    1.4267463065709e-05
 139    8.9218990342426e-06
 140    4.3981702598533e-06
 141    3.221281276714e-06
 142    6.2078266009727e-06
 143    -1.0749346538637e-05
 144    -9.7898695280794e-06
 145    8.8258133604227e-05
 146    2.1388205487643e-05
 147    -8.8044976000753e-06
 148    -2.0392071162824e-05
 149    5.2664303443229e-05
 150    -3.6091669009517e-05
 151    -5.9814982365749e-05
 152    -1.0465072488766e-05
 153    -4.5952638310657e-06
 154    -2.968667892655e-06
 155    5.2288306389046e-06
 156    -5.4803601056352e-06
 157    3.0915159953951e-07
 158    1.431030161363e-05
 159    -1.2773997134499e-05
 160    7.5532825753879e-06
 161    -4.3704399713364e-06
 162    2.079511204628e-06
 163    -5.1182132746441e-05
 164    1.3528675594279e-05
 165    1.3614787752906e-05
 166    3.3668400856614e-06
 167    -9.0427252253894e-07
 168    2.2256911382933e-07
 169    2.5252305773094e-07
 170    1.3181574569467e-06
 171    -1.3839477339534e-06
 172    -1.14739059983e-05
 173    2.3811549879422e-05
 174    -3.1852329938986e-06
 175    1.5460383270691e-06
 176    1.0039185025403e-05
 177    -1.3513105438281e-05
 178    9.1949963706665e-07
 179    -3.6815552214987e-05
 180    1.3619623540788e-06
 181    3.7232205251546e-06
 182    1.0980954410524e-07
 183    -9.1104173326969e-07
 184    1.4820773050418e-06
 185    3.8118302079243e-07
 186    -3.6633313021059e-05
 187    4.4413174887978e-05
 188    3.0372064921668e-06
 189    4.6988694922959e-06
 190    2.480741912877e-05
 191    1.1417856744926e-05
 192    -2.9762104735457e-06
 193    -5.246784589222e-05
 194    4.3109390507412e-06
 195    3.2596417308491e-07
 196    3.0475912206767e-06
 197    -7.2061213985522e-07
 198    2.7012807341092e-07
 199    -7.8938469101248e-06
 200    -2.0890463126477e-06
 201    5.227354328522e-06
 202    3.8845508012652e-05
 203    -1.4540542581531e-05
 204    -8.3816885639083e-06
 205    3.3200114296578e-06
 206    -2.4108994094079e-05
 207    8.4596269818534e-06
 208    -7.5064571828032e-05
 209    6.9782131791323e-06
 210    -3.3721349605405e-05
 211    5.0357656334854e-06
 212    1.6241646535414e-05
 213    2.1338277871484e-06
 214    -1.745793874174e-05
 215    -5.4052696913101e-06
 216    -4.8913563081357e-05
 217    4.5879899503232e-06
 218    1.5298365648297e-05
 219    -4.0722313366882e-07
 220    2.5844757225635e-06
 221    -8.8235882805897e-05
 222    6.910693020749e-05
 223    0.00095009632642028
 224    0.00010019847057694
 225    5.5263784164356e-05
 226    -0.0002073856464274
 227    0.00067988472442889
 228    0.00032241491501993
 229    -0.0010282597009196
 230    -3.0208545903033e-06
 231    -4.6721857374843e-05
 232    -2.1817739143995e-05
 233    2.4674812653894e-05
 234    2.499016198309e-05
 235    0.00014546633123011
 236    -0.00033567300088199
 237    -0.00049705949209206
 238    -0.00020696966419798
 239    -0.00015958483633421
 240    0.0005603049053664
 241    0.00021431051831895
 242    0.00027382646355133
 243    -0.0013760998083341
 244    6.0103436031421e-06
 245    6.5689515264028e-05
 246    1.6869678940136e-05
 247    1.3667300543045e-05
 248    -1.1284276776394e-06
 249    -1.8272134610059e-05
 250    0.00031649850049595
 251    -0.00034471532788522
 252    -0.00047638368374403
 253    0.0021406597665475
 254    -0.00047787416986395
 255    -9.8389528957124e-05
 256    -0.00019124980099679
 257    -0.00024299407117114
 258    0.0004434930133362
 259    -0.0019255019414119
 260    -8.5341715382226e-05
 261    -3.525684206961e-05
 262    -2.3342521526435e-05
 263    0.00015417531137696
 264    0.00010660568798317
 265    -0.0002610093212643
 266    0.00017544961064627
 267    0.00020300322969738
 268    -0.00026452977686848
 269    -2.5974506441702e-05
 270    -0.0005301788249601
 271     0.007035831191173
 272    -1.6904023965276e-05
 273    -0.00015746973933598
 274    8.7600608572795e-05
 275    -0.0019187979611899
 276    -0.0029700764500694
 277    0.0026154441655873
 278    8.3072615767247e-05
 279    -0.00018986497327945
 280    -7.9378232507132e-05
 281    -2.4580437640069e-05