[Molden Format]
made by pyscf v[2.0.1]
[Atoms] (AU)
C   1   6     0.69100024066471     0.64692934207205    -3.48223131169301
H   2   1     2.68052439830868     1.13355088658700    -3.25784032593313
C   3   6    -0.36286361513219     0.85440132524594    -5.97030179418974
H   4   1    -2.35448549047279     0.36322488579172    -6.17995817793143
C   5   6     0.93697958957450     1.61209284601821    -8.05828437677121
H   6   1     1.11826626333964     3.62551264984471    -8.45099117670825
C   7   6     2.10097243920823    -0.10888483292738    -9.80174075747215
H   8   1     1.90436861547379    -2.12023320363586    -9.38275759847606
H   9   1     1.55630230933075    -1.92953025305990    12.99630010416247
C   10   6     0.75233899775814    -2.21270439606481    11.10705728102219
H   11   1    -0.43433408177274    -3.90944857546550    11.22216085340412
C   12   6     2.86362581178706    -2.63237380607947     9.17926416456045
H   13   1     4.39038949912609    -1.24955421540245     9.49899813497433
H   14   1     3.74629220191363    -4.48798724300892     9.47414880959024
C   15   6     2.02478325613682    -2.42177285709634     6.44560829588644
C   16   6     3.88048732735477    -3.58795445234514     4.61402886975252
C   17   6    -0.18412382258602    -1.30464291234259     5.76021113872346
C   18   6    -2.10044360464350    -0.26837831858460     7.71610340967100
C   19   6    -3.08956938670431     2.35282328359417     6.88693925039594
C   20   6    -4.37372924086464    -2.09766595989678     7.93610724222001
C   21   6    -0.83850430601230     0.06372213486173    10.33002307638377
H   22   1     0.38411922151109     1.74281358582432    10.27380136542181
H   23   1    -2.30980003007874     0.45460143924521    11.73986301809809
H   24   1     4.58527064644668    -5.38706904487420     5.36778158031719
H   25   1     5.54944938085014    -2.37631462192748     4.35398898413318
H   26   1     3.06633019150423    -3.94118377050688     2.75255466040884
H   27   1    -4.17727778763735     2.26573369139522     5.12914900961283
H   28   1    -1.52662344944051     3.68001877445626     6.59540397144508
H   29   1    -4.32916174397830     3.13643051467482     8.35225460090378
H   30   1    -5.32329548508442    -2.36691813602939     6.11583672749896
H   31   1    -5.77989366602257    -1.33896741843465     9.25748940450990
H   32   1    -3.79310905208926    -3.96389819310853     8.61386170102686
C   33   6    -1.01100794811226    -1.06331657314144     3.11929490449947
C   34   6     0.37686231036534    -0.33275864505552     1.09165013605873
H   35   1    -3.01671213906703    -1.40297922279997     2.77827895090944
C   36   6    -0.64382707979370    -0.11591880174385    -1.42063131251064
H   37   1     2.35569259782137     0.17174499283897     1.33641070251401
H   38   1    -2.63317482980319    -0.60229203511219    -1.66119700387645
C   39   6     3.40965399787931     0.55809653308114   -11.90393532262733
C   40   6     4.52549279160481    -1.34135539088305   -13.56345596406470
H   41   1     3.67536210453709     2.52791097593625   -12.43024189111277
O   42   8     5.72170846290986    -0.87635365493868   -15.48013684009233
H   43   1     4.20717735374393    -3.33265649371778   -12.95224886476863
[GTO]
1 0
 s    6 1.00
             3047.5249  0.0018347001629433
             457.36951    0.01403730124668
             103.94869   0.068842606114048
             29.210155    0.23218442062076
              9.286663    0.46794134155879
              3.163927    0.36231203217765
 s    3 1.00
             7.8682724   -0.11933240861517
             1.8812885   -0.16085421161283
             0.5442493     1.1434564825515
 s    1 1.00
             0.1687144                   1
 p    3 1.00
             7.8682724   0.068999095584993
             1.8812885    0.31642397975315
             0.5442493    0.74430825237435
 p    1 1.00
             0.1687144                   1
 d    1 1.00
                   0.8                   1

2 0
 s    3 1.00
             18.731137    0.03349459952309
             2.8253937    0.23472694665786
             0.6401217    0.81375731841339
 s    1 1.00
             0.1612778                   1

3 0
 s    6 1.00
             3047.5249  0.0018347001629433
             457.36951    0.01403730124668
             103.94869   0.068842606114048
             29.210155    0.23218442062076
              9.286663    0.46794134155879
              3.163927    0.36231203217765
 s    3 1.00
             7.8682724   -0.11933240861517
             1.8812885   -0.16085421161283
             0.5442493     1.1434564825515
 s    1 1.00
             0.1687144                   1
 p    3 1.00
             7.8682724   0.068999095584993
             1.8812885    0.31642397975315
             0.5442493    0.74430825237435
 p    1 1.00
             0.1687144                   1
 d    1 1.00
                   0.8                   1

4 0
 s    3 1.00
             18.731137    0.03349459952309
             2.8253937    0.23472694665786
             0.6401217    0.81375731841339
 s    1 1.00
             0.1612778                   1

5 0
 s    6 1.00
             3047.5249  0.0018347001629433
             457.36951    0.01403730124668
             103.94869   0.068842606114048
             29.210155    0.23218442062076
              9.286663    0.46794134155879
              3.163927    0.36231203217765
 s    3 1.00
             7.8682724   -0.11933240861517
             1.8812885   -0.16085421161283
             0.5442493     1.1434564825515
 s    1 1.00
             0.1687144                   1
 p    3 1.00
             7.8682724   0.068999095584993
             1.8812885    0.31642397975315
             0.5442493    0.74430825237435
 p    1 1.00
             0.1687144                   1
 d    1 1.00
                   0.8                   1

6 0
 s    3 1.00
             18.731137    0.03349459952309
             2.8253937    0.23472694665786
             0.6401217    0.81375731841339
 s    1 1.00
             0.1612778                   1

7 0
 s    6 1.00
             3047.5249  0.0018347001629433
             457.36951    0.01403730124668
             103.94869   0.068842606114048
             29.210155    0.23218442062076
              9.286663    0.46794134155879
              3.163927    0.36231203217765
 s    3 1.00
             7.8682724   -0.11933240861517
             1.8812885   -0.16085421161283
             0.5442493     1.1434564825515
 s    1 1.00
             0.1687144                   1
 p    3 1.00
             7.8682724   0.068999095584993
             1.8812885    0.31642397975315
             0.5442493    0.74430825237435
 p    1 1.00
             0.1687144                   1
 d    1 1.00
                   0.8                   1

8 0
 s    3 1.00
             18.731137    0.03349459952309
             2.8253937    0.23472694665786
             0.6401217    0.81375731841339
 s    1 1.00
             0.1612778                   1

9 0
 s    3 1.00
             18.731137    0.03349459952309
             2.8253937    0.23472694665786
             0.6401217    0.81375731841339
 s    1 1.00
             0.1612778                   1

10 0
 s    6 1.00
             3047.5249  0.0018347001629433
             457.36951    0.01403730124668
             103.94869   0.068842606114048
             29.210155    0.23218442062076
              9.286663    0.46794134155879
              3.163927    0.36231203217765
 s    3 1.00
             7.8682724   -0.11933240861517
             1.8812885   -0.16085421161283
             0.5442493     1.1434564825515
 s    1 1.00
             0.1687144                   1
 p    3 1.00
             7.8682724   0.068999095584993
             1.8812885    0.31642397975315
             0.5442493    0.74430825237435
 p    1 1.00
             0.1687144                   1
 d    1 1.00
                   0.8                   1

11 0
 s    3 1.00
             18.731137    0.03349459952309
             2.8253937    0.23472694665786
             0.6401217    0.81375731841339
 s    1 1.00
             0.1612778                   1

12 0
 s    6 1.00
             3047.5249  0.0018347001629433
             457.36951    0.01403730124668
             103.94869   0.068842606114048
             29.210155    0.23218442062076
              9.286663    0.46794134155879
              3.163927    0.36231203217765
 s    3 1.00
             7.8682724   -0.11933240861517
             1.8812885   -0.16085421161283
             0.5442493     1.1434564825515
 s    1 1.00
             0.1687144                   1
 p    3 1.00
             7.8682724   0.068999095584993
             1.8812885    0.31642397975315
             0.5442493    0.74430825237435
 p    1 1.00
             0.1687144                   1
 d    1 1.00
                   0.8                   1

13 0
 s    3 1.00
             18.731137    0.03349459952309
             2.8253937    0.23472694665786
             0.6401217    0.81375731841339
 s    1 1.00
             0.1612778                   1

14 0
 s    3 1.00
             18.731137    0.03349459952309
             2.8253937    0.23472694665786
             0.6401217    0.81375731841339
 s    1 1.00
             0.1612778                   1

15 0
 s    6 1.00
             3047.5249  0.0018347001629433
             457.36951    0.01403730124668
             103.94869   0.068842606114048
             29.210155    0.23218442062076
              9.286663    0.46794134155879
              3.163927    0.36231203217765
 s    3 1.00
             7.8682724   -0.11933240861517
             1.8812885   -0.16085421161283
             0.5442493     1.1434564825515
 s    1 1.00
             0.1687144                   1
 p    3 1.00
             7.8682724   0.068999095584993
             1.8812885    0.31642397975315
             0.5442493    0.74430825237435
 p    1 1.00
             0.1687144                   1
 d    1 1.00
                   0.8                   1

16 0
 s    6 1.00
             3047.5249  0.0018347001629433
             457.36951    0.01403730124668
             103.94869   0.068842606114048
             29.210155    0.23218442062076
              9.286663    0.46794134155879
              3.163927    0.36231203217765
 s    3 1.00
             7.8682724   -0.11933240861517
             1.8812885   -0.16085421161283
             0.5442493     1.1434564825515
 s    1 1.00
             0.1687144                   1
 p    3 1.00
             7.8682724   0.068999095584993
             1.8812885    0.31642397975315
             0.5442493    0.74430825237435
 p    1 1.00
             0.1687144                   1
 d    1 1.00
                   0.8                   1

17 0
 s    6 1.00
             3047.5249  0.0018347001629433
             457.36951    0.01403730124668
             103.94869   0.068842606114048
             29.210155    0.23218442062076
              9.286663    0.46794134155879
              3.163927    0.36231203217765
 s    3 1.00
             7.8682724   -0.11933240861517
             1.8812885   -0.16085421161283
             0.5442493     1.1434564825515
 s    1 1.00
             0.1687144                   1
 p    3 1.00
             7.8682724   0.068999095584993
             1.8812885    0.31642397975315
             0.5442493    0.74430825237435
 p    1 1.00
             0.1687144                   1
 d    1 1.00
                   0.8                   1

18 0
 s    6 1.00
             3047.5249  0.0018347001629433
             457.36951    0.01403730124668
             103.94869   0.068842606114048
             29.210155    0.23218442062076
              9.286663    0.46794134155879
              3.163927    0.36231203217765
 s    3 1.00
             7.8682724   -0.11933240861517
             1.8812885   -0.16085421161283
             0.5442493     1.1434564825515
 s    1 1.00
             0.1687144                   1
 p    3 1.00
             7.8682724   0.068999095584993
             1.8812885    0.31642397975315
             0.5442493    0.74430825237435
 p    1 1.00
             0.1687144                   1
 d    1 1.00
                   0.8                   1

19 0
 s    6 1.00
             3047.5249  0.0018347001629433
             457.36951    0.01403730124668
             103.94869   0.068842606114048
             29.210155    0.23218442062076
              9.286663    0.46794134155879
              3.163927    0.36231203217765
 s    3 1.00
             7.8682724   -0.11933240861517
             1.8812885   -0.16085421161283
             0.5442493     1.1434564825515
 s    1 1.00
             0.1687144                   1
 p    3 1.00
             7.8682724   0.068999095584993
             1.8812885    0.31642397975315
             0.5442493    0.74430825237435
 p    1 1.00
             0.1687144                   1
 d    1 1.00
                   0.8                   1

20 0
 s    6 1.00
             3047.5249  0.0018347001629433
             457.36951    0.01403730124668
             103.94869   0.068842606114048
             29.210155    0.23218442062076
              9.286663    0.46794134155879
              3.163927    0.36231203217765
 s    3 1.00
             7.8682724   -0.11933240861517
             1.8812885   -0.16085421161283
             0.5442493     1.1434564825515
 s    1 1.00
             0.1687144                   1
 p    3 1.00
             7.8682724   0.068999095584993
             1.8812885    0.31642397975315
             0.5442493    0.74430825237435
 p    1 1.00
             0.1687144                   1
 d    1 1.00
                   0.8                   1

21 0
 s    6 1.00
             3047.5249  0.0018347001629433
             457.36951    0.01403730124668
             103.94869   0.068842606114048
             29.210155    0.23218442062076
              9.286663    0.46794134155879
              3.163927    0.36231203217765
 s    3 1.00
             7.8682724   -0.11933240861517
             1.8812885   -0.16085421161283
             0.5442493     1.1434564825515
 s    1 1.00
             0.1687144                   1
 p    3 1.00
             7.8682724   0.068999095584993
             1.8812885    0.31642397975315
             0.5442493    0.74430825237435
 p    1 1.00
             0.1687144                   1
 d    1 1.00
                   0.8                   1

22 0
 s    3 1.00
             18.731137    0.03349459952309
             2.8253937    0.23472694665786
             0.6401217    0.81375731841339
 s    1 1.00
             0.1612778                   1

23 0
 s    3 1.00
             18.731137    0.03349459952309
             2.8253937    0.23472694665786
             0.6401217    0.81375731841339
 s    1 1.00
             0.1612778                   1

24 0
 s    3 1.00
             18.731137    0.03349459952309
             2.8253937    0.23472694665786
             0.6401217    0.81375731841339
 s    1 1.00
             0.1612778                   1

25 0
 s    3 1.00
             18.731137    0.03349459952309
             2.8253937    0.23472694665786
             0.6401217    0.81375731841339
 s    1 1.00
             0.1612778                   1

26 0
 s    3 1.00
             18.731137    0.03349459952309
             2.8253937    0.23472694665786
             0.6401217    0.81375731841339
 s    1 1.00
             0.1612778                   1

27 0
 s    3 1.00
             18.731137    0.03349459952309
             2.8253937    0.23472694665786
             0.6401217    0.81375731841339
 s    1 1.00
             0.1612778                   1

28 0
 s    3 1.00
             18.731137    0.03349459952309
             2.8253937    0.23472694665786
             0.6401217    0.81375731841339
 s    1 1.00
             0.1612778                   1

29 0
 s    3 1.00
             18.731137    0.03349459952309
             2.8253937    0.23472694665786
             0.6401217    0.81375731841339
 s    1 1.00
             0.1612778                   1

30 0
 s    3 1.00
             18.731137    0.03349459952309
             2.8253937    0.23472694665786
             0.6401217    0.81375731841339
 s    1 1.00
             0.1612778                   1

31 0
 s    3 1.00
             18.731137    0.03349459952309
             2.8253937    0.23472694665786
             0.6401217    0.81375731841339
 s    1 1.00
             0.1612778                   1

32 0
 s    3 1.00
             18.731137    0.03349459952309
             2.8253937    0.23472694665786
             0.6401217    0.81375731841339
 s    1 1.00
             0.1612778                   1

33 0
 s    6 1.00
             3047.5249  0.0018347001629433
             457.36951    0.01403730124668
             103.94869   0.068842606114048
             29.210155    0.23218442062076
              9.286663    0.46794134155879
              3.163927    0.36231203217765
 s    3 1.00
             7.8682724   -0.11933240861517
             1.8812885   -0.16085421161283
             0.5442493     1.1434564825515
 s    1 1.00
             0.1687144                   1
 p    3 1.00
             7.8682724   0.068999095584993
             1.8812885    0.31642397975315
             0.5442493    0.74430825237435
 p    1 1.00
             0.1687144                   1
 d    1 1.00
                   0.8                   1

34 0
 s    6 1.00
             3047.5249  0.0018347001629433
             457.36951    0.01403730124668
             103.94869   0.068842606114048
             29.210155    0.23218442062076
              9.286663    0.46794134155879
              3.163927    0.36231203217765
 s    3 1.00
             7.8682724   -0.11933240861517
             1.8812885   -0.16085421161283
             0.5442493     1.1434564825515
 s    1 1.00
             0.1687144                   1
 p    3 1.00
             7.8682724   0.068999095584993
             1.8812885    0.31642397975315
             0.5442493    0.74430825237435
 p    1 1.00
             0.1687144                   1
 d    1 1.00
                   0.8                   1

35 0
 s    3 1.00
             18.731137    0.03349459952309
             2.8253937    0.23472694665786
             0.6401217    0.81375731841339
 s    1 1.00
             0.1612778                   1

36 0
 s    6 1.00
             3047.5249  0.0018347001629433
             457.36951    0.01403730124668
             103.94869   0.068842606114048
             29.210155    0.23218442062076
              9.286663    0.46794134155879
              3.163927    0.36231203217765
 s    3 1.00
             7.8682724   -0.11933240861517
             1.8812885   -0.16085421161283
             0.5442493     1.1434564825515
 s    1 1.00
             0.1687144                   1
 p    3 1.00
             7.8682724   0.068999095584993
             1.8812885    0.31642397975315
             0.5442493    0.74430825237435
 p    1 1.00
             0.1687144                   1
 d    1 1.00
                   0.8                   1

37 0
 s    3 1.00
             18.731137    0.03349459952309
             2.8253937    0.23472694665786
             0.6401217    0.81375731841339
 s    1 1.00
             0.1612778                   1

38 0
 s    3 1.00
             18.731137    0.03349459952309
             2.8253937    0.23472694665786
             0.6401217    0.81375731841339
 s    1 1.00
             0.1612778                   1

39 0
 s    6 1.00
             3047.5249  0.0018347001629433
             457.36951    0.01403730124668
             103.94869   0.068842606114048
             29.210155    0.23218442062076
              9.286663    0.46794134155879
              3.163927    0.36231203217765
 s    3 1.00
             7.8682724   -0.11933240861517
             1.8812885   -0.16085421161283
             0.5442493     1.1434564825515
 s    1 1.00
             0.1687144                   1
 p    3 1.00
             7.8682724   0.068999095584993
             1.8812885    0.31642397975315
             0.5442493    0.74430825237435
 p    1 1.00
             0.1687144                   1
 d    1 1.00
                   0.8                   1

40 0
 s    6 1.00
             3047.5249  0.0018347001629433
             457.36951    0.01403730124668
             103.94869   0.068842606114048
             29.210155    0.23218442062076
              9.286663    0.46794134155879
              3.163927    0.36231203217765
 s    3 1.00
             7.8682724   -0.11933240861517
             1.8812885   -0.16085421161283
             0.5442493     1.1434564825515
 s    1 1.00
             0.1687144                   1
 p    3 1.00
             7.8682724   0.068999095584993
             1.8812885    0.31642397975315
             0.5442493    0.74430825237435
 p    1 1.00
             0.1687144                   1
 d    1 1.00
                   0.8                   1

41 0
 s    3 1.00
             18.731137    0.03349459952309
             2.8253937    0.23472694665786
             0.6401217    0.81375731841339
 s    1 1.00
             0.1612778                   1

42 0
 s    6 1.00
             5484.6717   0.001831099805527
             825.23495   0.013950098518422
             188.04696    0.06844509273075
               52.9645    0.23271427528445
              16.89757    0.47019295006289
             5.7996353    0.35852086192309
 s    3 1.00
             15.539616   -0.11077750382508
             3.5999336   -0.14802630511126
             1.0137618     1.1307670390447
 s    1 1.00
             0.2700058                   1
 p    3 1.00
             15.539616   0.070874299543311
             3.5999336    0.33975279781076
             1.0137618    0.72715859531445
 p    1 1.00
             0.2700058                   1
 d    1 1.00
                   0.8                   1

43 0
 s    3 1.00
             18.731137    0.03349459952309
             2.8253937    0.23472694665786
             0.6401217    0.81375731841339
 s    1 1.00
             0.1612778                   1

[5d]
[7f]
[9g]

[MO]
 Sym= A
 Ene=               0
 Spin= Alpha
 Occup=    1.00000
   1     0.013091600573081
   2    -0.0012884545599195
   3    0.0078260419934421
   4    0.00041259613741988
   5    -0.00013281846899457
   6    0.0013467416355335
   7    0.00086637362074685
   8     0.001336195048321
   9    -0.0061114997648765
  10    -0.0010250485442519
  11    -0.00096666959973386
  12    0.00016570645208069
  13    -0.00020896709482238
  14    5.9587294174587e-05
  15    -0.00049441976138919
  16    -0.00092083787589078
  17      0.99476762566374
  18      0.03930800234134
  19    -0.031650021764569
  20    0.0010241973356799
  21    0.00017934724828806
  22    -0.00068645655959008
  23     -0.00404863323643
  24    -0.001190765399607
  25    -0.00083999256475657
  26    0.00081582596117197
  27    -0.00031863863047927
  28    -0.00036312742619902
  29    0.00028491108123016
  30    0.00017561589539638
  31    -0.0012955661813749
  32    0.0042336468708454
  33     0.013916306039518
  34    -0.00033472748742621
  35    0.0013328371945089
  36    0.00095385790782338
  37    0.00036574348195502
  38    -0.0013089411713585
  39    -0.0023830145742718
  40    0.0037920600654693
  41    0.0047615976036412
  42    -0.00069708813830241
  43    0.0013157808054731
  44    0.00051349028567466
  45    -0.00037823842445032
  46    -0.00043426854799571
  47    -0.00060461636837961
  48    -0.00065165927839319
  49    0.00025865162014749
  50    -0.00058057899254574
  51    0.00034951076885399
  52    0.00026205991097555
  53    4.9848516841488e-06
  54    -0.00046426988679362
  55    -0.0049528635182988
  56    0.0012588168479256
  57    0.0077956149293495
  58    -0.00015261524898605
  59    -1.0622812388697e-05
  60    0.00020320135656873
  61    -0.00027334068728028
  62    -0.00017159138110422
  63    -0.00053669416498756
  64    0.00023743027705122
  65    -4.5405511170804e-06
  66    -5.638953847322e-06
  67    9.6156791755709e-07
  68    -4.2780994474602e-06
  69    6.2148976920399e-06
  70    2.4938027824863e-06
  71    -6.4405682564948e-06
  72    1.2598413402751e-06
  73    9.8987077423043e-06
  74    2.6604108998148e-05
  75    6.2933465837585e-06
  76    -5.5183469323507e-07
  77    -5.9434075407524e-07
  78    7.1710324298695e-07
  79    6.7052716831457e-07
  80    -5.7194155846522e-08
  81    3.3158716637381e-06
  82    1.5394548235893e-05
  83    2.0194377558134e-06
  84    -1.744991246542e-06
  85    -9.3935942377348e-05
  86    1.0197827786581e-05
  87    3.3074933873688e-06
  88    1.7434574533251e-05
  89    3.253506740108e-05
  90    -6.9474059555125e-05
  91    2.3933598181611e-05
  92    1.2989980114852e-06
  93    -2.4852969599765e-06
  94    4.5824101385429e-06
  95    -4.4697335132125e-07
  96    -7.6274465974679e-07
  97    1.3053536461187e-05
  98    2.2472351606736e-05
  99    -3.024967988406e-06
 100    -2.0678244825166e-05
 101    -2.7953655992819e-06
 102    -1.150159261309e-05
 103    0.00024025626887723
 104    -1.5258391952624e-05
 105    -2.1377024240173e-05
 106    -5.1482937012738e-06
 107    -0.00022560041372351
 108    0.00019027161667397
 109    0.00017957220264288
 110    -7.7455838043657e-06
 111    -2.84985671399e-06
 112    1.1046669798589e-06
 113    2.5011562595301e-06
 114    -6.2671488820838e-06
 115    -6.2660556336659e-06
 116    -3.2268232489006e-05
 117    0.00028433780803977
 118    -6.1951311848051e-06
 119    9.9049724224861e-06
 120    1.0944753314711e-05
 121    -6.5871782899783e-05
 122    2.4841755844742e-05
 123    4.3148064391905e-05
 124    1.1123044566797e-06
 125    -3.361699913676e-06
 126    -2.8343486009368e-06
 127    1.3311179056932e-06
 128    -2.1465599755362e-06
 129    7.9583453848322e-06
 130    -8.379529164383e-05
 131    0.00013279212508872
 132    2.1568848576955e-05
 133    -5.7711764157172e-06
 134    0.00010455059314118
 135    -0.00035876201679795
 136    4.0022055053826e-05
 137    -0.00044951293907689
 138    1.4215630305207e-05
 139    9.3235720079923e-06
 140    4.6157319136843e-06
 141    3.3808885558935e-06
 142    6.4270691122005e-06
 143    -1.0950428581602e-05
 144    -1.1320329081162e-05
 145    9.4074928011582e-05
 146    2.1556953933024e-05
 147    -9.0741158118559e-06
 148    -2.0018588488213e-05
 149    5.406853817701e-05
 150    -3.147496190505e-05
 151    -6.6901530892273e-05
 152    -1.0449580388665e-05
 153    -4.8168775542086e-06
 154    -3.1622494918772e-06
 155    5.250342013196e-06
 156    -5.6964106801818e-06
 157    4.0160492157195e-07
 158    1.5255748787766e-05
 159    -1.8746178574906e-05
 160    7.6089164560764e-06
 161    -4.1919204242922e-06
 162    1.6368912987901e-06
 163    -5.3616028272702e-05
 164    1.6279559968375e-05
 165    1.4654233727222e-05
 166    3.6038823209647e-06
 167    -1.0849725387369e-06
 168    2.2211151818078e-07
 169    3.8149049086731e-07
 170    1.4264424827363e-06
 171    -1.4094924259478e-06
 172    -1.1839888482381e-05
 173    2.4872133657373e-05
 174    -3.3801406558647e-06
 175    1.4788483589374e-06
 176    1.0396065935651e-05
 177    -1.1433436364311e-05
 178    1.2600958367762e-06
 179    -3.6222485418863e-05
 180    1.3280042459299e-06
 181    3.9131038638188e-06
 182    2.0057435886272e-07
 183    -8.303179575877e-07
 184    1.6130692033866e-06
 185    3.2252218304625e-07
 186    -3.7314897653984e-05
 187    4.7615411260389e-05
 188    2.987181589584e-06
 189    4.6832413094605e-06
 190    2.4986060612712e-05
 191    1.0376266667565e-05
 192    -4.403041660474e-06
 193    -5.3741762751756e-05
 194    4.2973316896845e-06
 195    4.1980703268009e-07
 196    3.2695836248092e-06
 197    -7.0587248486509e-07
 198    3.0862628859095e-07
 199    -8.0196798795475e-06
 200    -1.6244857796603e-06
 201    5.1700872189156e-06
 202    3.9028943775814e-05
 203    -1.4485437769488e-05
 204    -7.5504441490538e-06
 205    3.2958772626249e-06
 206    -2.4976152698651e-05
 207    8.0752234625394e-06
 208    -7.2423129165551e-05
 209    7.5880035575165e-06
 210    -3.3881955621117e-05
 211    5.4812318466728e-06
 212    1.6850787577086e-05
 213    2.0975153071117e-06
 214    -1.8391186444312e-05
 215    -5.8282625528187e-06
 216    -4.6870105273999e-05
 217    4.6796700842347e-06
 218    1.5878077636654e-05
 219    -3.6236662525309e-07
 220    2.0071269145902e-06
 221    -8.8797209718361e-05
 222    6.5357343457534e-05
 223    0.00099046067599878
 224    0.00010132060342916
 225    5.325189804798e-05
 226    -0.00020788488679184
 227     0.000690888933528
 228    0.00033209516831196
 229    -0.0010603666736323
 230    -2.2709431291262e-06
 231    -4.8266801993525e-05
 232    -2.2418718360879e-05
 233    2.5456853834952e-05
 234    2.5485053873194e-05
 235    0.00014633864905887
 236    -0.00033445927141953
 237    -0.00056398615144888
 238    -0.00020712132844623
 239    -0.00016089711301471
 240    0.00056432644507875
 241    0.00023430205070364
 242    0.00028957691809596
 243    -0.0013898136797128
 244    4.1696815551148e-06
 245    6.7368201638876e-05
 246    1.6255383959232e-05
 247    1.4208382289424e-05
 248    -2.4089538622297e-06
 249    -1.9460347015078e-05
 250    0.00031658261727445
 251    -0.0003458446633792
 252    -0.00048382267077821
 253    0.0022416694843706
 254    -0.00048108049918265
 255    -9.2785136471359e-05
 256    -0.0001927410816966
 257    -0.00018336874735594
 258    0.00042914943177997
 259    -0.0019419936293589
 260    -8.3455068840129e-05
 261    -3.7166126118262e-05
 262    -2.1743524029153e-05
 263    0.00015709420742575
 264    0.00010423785238501
 265    -0.00026290258417144
 266    0.00017808836874152
 267    0.0002039437549424
 268    -0.00025075401332804
 269    -2.7241640110601e-05
 270    -0.00054447131933727
 271    0.0072467591506537
 272    -1.613520306173e-05
 273    -0.00015198505718631
 274    9.4693879977964e-05
 275    -0.001776228797384
 276    -0.0030701899279912
 277    0.0027935032038001
 278    8.8452245291304e-05
 279    -0.0001929960089286
 280    -8.9933216898282e-05
 281    -2.7460504288827e-05