[Molden Format]
made by pyscf v[2.0.1]
[Atoms] (AU)
C   1   6     0.69100024066471     0.64692934207205    -3.48223131169301
H   2   1     2.68052439830868     1.13355088658700    -3.25784032593313
C   3   6    -0.36286361513219     0.85440132524594    -5.97030179418974
H   4   1    -2.35448549047279     0.36322488579172    -6.17995817793143
C   5   6     0.93697958957450     1.61209284601821    -8.05828437677121
H   6   1     0.14022243979667     3.08603065646166    -9.25562650474843
C   7   6     3.33155915073320     0.56926267114995    -8.78956929307971
H   8   1     4.10661901770469    -0.90506612570738    -7.57081623325171
H   9   1     1.55630230933075    -1.92953025305990    12.99630010416247
C   10   6     0.75233899775814    -2.21270439606481    11.10705728102219
H   11   1    -0.43433408177274    -3.90944857546550    11.22216085340412
C   12   6     2.86362581178706    -2.63237380607947     9.17926416456045
H   13   1     4.39038949912609    -1.24955421540245     9.49899813497433
H   14   1     3.74629220191363    -4.48798724300892     9.47414880959024
C   15   6     2.02478325613682    -2.42177285709634     6.44560829588644
C   16   6     3.88048732735477    -3.58795445234514     4.61402886975252
C   17   6    -0.18412382258602    -1.30464291234259     5.76021113872346
C   18   6    -2.10044360464350    -0.26837831858460     7.71610340967100
C   19   6    -3.08956938670431     2.35282328359417     6.88693925039594
C   20   6    -4.37372924086464    -2.09766595989678     7.93610724222001
C   21   6    -0.83850430601230     0.06372213486173    10.33002307638377
H   22   1     0.38411922151109     1.74281358582432    10.27380136542181
H   23   1    -2.30980003007874     0.45460143924521    11.73986301809809
H   24   1     4.58527064644668    -5.38706904487420     5.36778158031719
H   25   1     5.54944938085014    -2.37631462192748     4.35398898413318
H   26   1     3.06633019150423    -3.94118377050688     2.75255466040884
H   27   1    -4.17727778763735     2.26573369139522     5.12914900961283
H   28   1    -1.52662344944051     3.68001877445626     6.59540397144508
H   29   1    -4.32916174397830     3.13643051467482     8.35225460090378
H   30   1    -5.32329548508442    -2.36691813602939     6.11583672749896
H   31   1    -5.77989366602257    -1.33896741843465     9.25748940450990
H   32   1    -3.79310905208926    -3.96389819310853     8.61386170102686
C   33   6    -1.01100794811226    -1.06331657314144     3.11929490449947
C   34   6     0.37686231036534    -0.33275864505552     1.09165013605873
H   35   1    -3.01671213906703    -1.40297922279997     2.77827895090944
C   36   6    -0.64382707979370    -0.11591880174385    -1.42063131251064
H   37   1     2.35569259782137     0.17174499283897     1.33641070251401
H   38   1    -2.63317482980319    -0.60229203511219    -1.66119700387645
C   39   6     4.69106502259275     1.26188352336463   -10.85081981009206
C   40   6     7.11506387067225     0.08270412537969   -11.43459041306820
H   41   1     4.02727424636240     2.71762167762249   -12.14232148362751
O   42   8     8.43283181269616     0.61123359193353   -13.25254761350674
H   43   1     7.72125158488297    -1.39686243822724   -10.06214800755086
[GTO]
1 0
 s    6 1.00
             3047.5249  0.0018347001629433
             457.36951    0.01403730124668
             103.94869   0.068842606114048
             29.210155    0.23218442062076
              9.286663    0.46794134155879
              3.163927    0.36231203217765
 s    3 1.00
             7.8682724   -0.11933240861517
             1.8812885   -0.16085421161283
             0.5442493     1.1434564825515
 s    1 1.00
             0.1687144                   1
 p    3 1.00
             7.8682724   0.068999095584993
             1.8812885    0.31642397975315
             0.5442493    0.74430825237435
 p    1 1.00
             0.1687144                   1
 d    1 1.00
                   0.8                   1

2 0
 s    3 1.00
             18.731137    0.03349459952309
             2.8253937    0.23472694665786
             0.6401217    0.81375731841339
 s    1 1.00
             0.1612778                   1

3 0
 s    6 1.00
             3047.5249  0.0018347001629433
             457.36951    0.01403730124668
             103.94869   0.068842606114048
             29.210155    0.23218442062076
              9.286663    0.46794134155879
              3.163927    0.36231203217765
 s    3 1.00
             7.8682724   -0.11933240861517
             1.8812885   -0.16085421161283
             0.5442493     1.1434564825515
 s    1 1.00
             0.1687144                   1
 p    3 1.00
             7.8682724   0.068999095584993
             1.8812885    0.31642397975315
             0.5442493    0.74430825237435
 p    1 1.00
             0.1687144                   1
 d    1 1.00
                   0.8                   1

4 0
 s    3 1.00
             18.731137    0.03349459952309
             2.8253937    0.23472694665786
             0.6401217    0.81375731841339
 s    1 1.00
             0.1612778                   1

5 0
 s    6 1.00
             3047.5249  0.0018347001629433
             457.36951    0.01403730124668
             103.94869   0.068842606114048
             29.210155    0.23218442062076
              9.286663    0.46794134155879
              3.163927    0.36231203217765
 s    3 1.00
             7.8682724   -0.11933240861517
             1.8812885   -0.16085421161283
             0.5442493     1.1434564825515
 s    1 1.00
             0.1687144                   1
 p    3 1.00
             7.8682724   0.068999095584993
             1.8812885    0.31642397975315
             0.5442493    0.74430825237435
 p    1 1.00
             0.1687144                   1
 d    1 1.00
                   0.8                   1

6 0
 s    3 1.00
             18.731137    0.03349459952309
             2.8253937    0.23472694665786
             0.6401217    0.81375731841339
 s    1 1.00
             0.1612778                   1

7 0
 s    6 1.00
             3047.5249  0.0018347001629433
             457.36951    0.01403730124668
             103.94869   0.068842606114048
             29.210155    0.23218442062076
              9.286663    0.46794134155879
              3.163927    0.36231203217765
 s    3 1.00
             7.8682724   -0.11933240861517
             1.8812885   -0.16085421161283
             0.5442493     1.1434564825515
 s    1 1.00
             0.1687144                   1
 p    3 1.00
             7.8682724   0.068999095584993
             1.8812885    0.31642397975315
             0.5442493    0.74430825237435
 p    1 1.00
             0.1687144                   1
 d    1 1.00
                   0.8                   1

8 0
 s    3 1.00
             18.731137    0.03349459952309
             2.8253937    0.23472694665786
             0.6401217    0.81375731841339
 s    1 1.00
             0.1612778                   1

9 0
 s    3 1.00
             18.731137    0.03349459952309
             2.8253937    0.23472694665786
             0.6401217    0.81375731841339
 s    1 1.00
             0.1612778                   1

10 0
 s    6 1.00
             3047.5249  0.0018347001629433
             457.36951    0.01403730124668
             103.94869   0.068842606114048
             29.210155    0.23218442062076
              9.286663    0.46794134155879
              3.163927    0.36231203217765
 s    3 1.00
             7.8682724   -0.11933240861517
             1.8812885   -0.16085421161283
             0.5442493     1.1434564825515
 s    1 1.00
             0.1687144                   1
 p    3 1.00
             7.8682724   0.068999095584993
             1.8812885    0.31642397975315
             0.5442493    0.74430825237435
 p    1 1.00
             0.1687144                   1
 d    1 1.00
                   0.8                   1

11 0
 s    3 1.00
             18.731137    0.03349459952309
             2.8253937    0.23472694665786
             0.6401217    0.81375731841339
 s    1 1.00
             0.1612778                   1

12 0
 s    6 1.00
             3047.5249  0.0018347001629433
             457.36951    0.01403730124668
             103.94869   0.068842606114048
             29.210155    0.23218442062076
              9.286663    0.46794134155879
              3.163927    0.36231203217765
 s    3 1.00
             7.8682724   -0.11933240861517
             1.8812885   -0.16085421161283
             0.5442493     1.1434564825515
 s    1 1.00
             0.1687144                   1
 p    3 1.00
             7.8682724   0.068999095584993
             1.8812885    0.31642397975315
             0.5442493    0.74430825237435
 p    1 1.00
             0.1687144                   1
 d    1 1.00
                   0.8                   1

13 0
 s    3 1.00
             18.731137    0.03349459952309
             2.8253937    0.23472694665786
             0.6401217    0.81375731841339
 s    1 1.00
             0.1612778                   1

14 0
 s    3 1.00
             18.731137    0.03349459952309
             2.8253937    0.23472694665786
             0.6401217    0.81375731841339
 s    1 1.00
             0.1612778                   1

15 0
 s    6 1.00
             3047.5249  0.0018347001629433
             457.36951    0.01403730124668
             103.94869   0.068842606114048
             29.210155    0.23218442062076
              9.286663    0.46794134155879
              3.163927    0.36231203217765
 s    3 1.00
             7.8682724   -0.11933240861517
             1.8812885   -0.16085421161283
             0.5442493     1.1434564825515
 s    1 1.00
             0.1687144                   1
 p    3 1.00
             7.8682724   0.068999095584993
             1.8812885    0.31642397975315
             0.5442493    0.74430825237435
 p    1 1.00
             0.1687144                   1
 d    1 1.00
                   0.8                   1

16 0
 s    6 1.00
             3047.5249  0.0018347001629433
             457.36951    0.01403730124668
             103.94869   0.068842606114048
             29.210155    0.23218442062076
              9.286663    0.46794134155879
              3.163927    0.36231203217765
 s    3 1.00
             7.8682724   -0.11933240861517
             1.8812885   -0.16085421161283
             0.5442493     1.1434564825515
 s    1 1.00
             0.1687144                   1
 p    3 1.00
             7.8682724   0.068999095584993
             1.8812885    0.31642397975315
             0.5442493    0.74430825237435
 p    1 1.00
             0.1687144                   1
 d    1 1.00
                   0.8                   1

17 0
 s    6 1.00
             3047.5249  0.0018347001629433
             457.36951    0.01403730124668
             103.94869   0.068842606114048
             29.210155    0.23218442062076
              9.286663    0.46794134155879
              3.163927    0.36231203217765
 s    3 1.00
             7.8682724   -0.11933240861517
             1.8812885   -0.16085421161283
             0.5442493     1.1434564825515
 s    1 1.00
             0.1687144                   1
 p    3 1.00
             7.8682724   0.068999095584993
             1.8812885    0.31642397975315
             0.5442493    0.74430825237435
 p    1 1.00
             0.1687144                   1
 d    1 1.00
                   0.8                   1

18 0
 s    6 1.00
             3047.5249  0.0018347001629433
             457.36951    0.01403730124668
             103.94869   0.068842606114048
             29.210155    0.23218442062076
              9.286663    0.46794134155879
              3.163927    0.36231203217765
 s    3 1.00
             7.8682724   -0.11933240861517
             1.8812885   -0.16085421161283
             0.5442493     1.1434564825515
 s    1 1.00
             0.1687144                   1
 p    3 1.00
             7.8682724   0.068999095584993
             1.8812885    0.31642397975315
             0.5442493    0.74430825237435
 p    1 1.00
             0.1687144                   1
 d    1 1.00
                   0.8                   1

19 0
 s    6 1.00
             3047.5249  0.0018347001629433
             457.36951    0.01403730124668
             103.94869   0.068842606114048
             29.210155    0.23218442062076
              9.286663    0.46794134155879
              3.163927    0.36231203217765
 s    3 1.00
             7.8682724   -0.11933240861517
             1.8812885   -0.16085421161283
             0.5442493     1.1434564825515
 s    1 1.00
             0.1687144                   1
 p    3 1.00
             7.8682724   0.068999095584993
             1.8812885    0.31642397975315
             0.5442493    0.74430825237435
 p    1 1.00
             0.1687144                   1
 d    1 1.00
                   0.8                   1

20 0
 s    6 1.00
             3047.5249  0.0018347001629433
             457.36951    0.01403730124668
             103.94869   0.068842606114048
             29.210155    0.23218442062076
              9.286663    0.46794134155879
              3.163927    0.36231203217765
 s    3 1.00
             7.8682724   -0.11933240861517
             1.8812885   -0.16085421161283
             0.5442493     1.1434564825515
 s    1 1.00
             0.1687144                   1
 p    3 1.00
             7.8682724   0.068999095584993
             1.8812885    0.31642397975315
             0.5442493    0.74430825237435
 p    1 1.00
             0.1687144                   1
 d    1 1.00
                   0.8                   1

21 0
 s    6 1.00
             3047.5249  0.0018347001629433
             457.36951    0.01403730124668
             103.94869   0.068842606114048
             29.210155    0.23218442062076
              9.286663    0.46794134155879
              3.163927    0.36231203217765
 s    3 1.00
             7.8682724   -0.11933240861517
             1.8812885   -0.16085421161283
             0.5442493     1.1434564825515
 s    1 1.00
             0.1687144                   1
 p    3 1.00
             7.8682724   0.068999095584993
             1.8812885    0.31642397975315
             0.5442493    0.74430825237435
 p    1 1.00
             0.1687144                   1
 d    1 1.00
                   0.8                   1

22 0
 s    3 1.00
             18.731137    0.03349459952309
             2.8253937    0.23472694665786
             0.6401217    0.81375731841339
 s    1 1.00
             0.1612778                   1

23 0
 s    3 1.00
             18.731137    0.03349459952309
             2.8253937    0.23472694665786
             0.6401217    0.81375731841339
 s    1 1.00
             0.1612778                   1

24 0
 s    3 1.00
             18.731137    0.03349459952309
             2.8253937    0.23472694665786
             0.6401217    0.81375731841339
 s    1 1.00
             0.1612778                   1

25 0
 s    3 1.00
             18.731137    0.03349459952309
             2.8253937    0.23472694665786
             0.6401217    0.81375731841339
 s    1 1.00
             0.1612778                   1

26 0
 s    3 1.00
             18.731137    0.03349459952309
             2.8253937    0.23472694665786
             0.6401217    0.81375731841339
 s    1 1.00
             0.1612778                   1

27 0
 s    3 1.00
             18.731137    0.03349459952309
             2.8253937    0.23472694665786
             0.6401217    0.81375731841339
 s    1 1.00
             0.1612778                   1

28 0
 s    3 1.00
             18.731137    0.03349459952309
             2.8253937    0.23472694665786
             0.6401217    0.81375731841339
 s    1 1.00
             0.1612778                   1

29 0
 s    3 1.00
             18.731137    0.03349459952309
             2.8253937    0.23472694665786
             0.6401217    0.81375731841339
 s    1 1.00
             0.1612778                   1

30 0
 s    3 1.00
             18.731137    0.03349459952309
             2.8253937    0.23472694665786
             0.6401217    0.81375731841339
 s    1 1.00
             0.1612778                   1

31 0
 s    3 1.00
             18.731137    0.03349459952309
             2.8253937    0.23472694665786
             0.6401217    0.81375731841339
 s    1 1.00
             0.1612778                   1

32 0
 s    3 1.00
             18.731137    0.03349459952309
             2.8253937    0.23472694665786
             0.6401217    0.81375731841339
 s    1 1.00
             0.1612778                   1

33 0
 s    6 1.00
             3047.5249  0.0018347001629433
             457.36951    0.01403730124668
             103.94869   0.068842606114048
             29.210155    0.23218442062076
              9.286663    0.46794134155879
              3.163927    0.36231203217765
 s    3 1.00
             7.8682724   -0.11933240861517
             1.8812885   -0.16085421161283
             0.5442493     1.1434564825515
 s    1 1.00
             0.1687144                   1
 p    3 1.00
             7.8682724   0.068999095584993
             1.8812885    0.31642397975315
             0.5442493    0.74430825237435
 p    1 1.00
             0.1687144                   1
 d    1 1.00
                   0.8                   1

34 0
 s    6 1.00
             3047.5249  0.0018347001629433
             457.36951    0.01403730124668
             103.94869   0.068842606114048
             29.210155    0.23218442062076
              9.286663    0.46794134155879
              3.163927    0.36231203217765
 s    3 1.00
             7.8682724   -0.11933240861517
             1.8812885   -0.16085421161283
             0.5442493     1.1434564825515
 s    1 1.00
             0.1687144                   1
 p    3 1.00
             7.8682724   0.068999095584993
             1.8812885    0.31642397975315
             0.5442493    0.74430825237435
 p    1 1.00
             0.1687144                   1
 d    1 1.00
                   0.8                   1

35 0
 s    3 1.00
             18.731137    0.03349459952309
             2.8253937    0.23472694665786
             0.6401217    0.81375731841339
 s    1 1.00
             0.1612778                   1

36 0
 s    6 1.00
             3047.5249  0.0018347001629433
             457.36951    0.01403730124668
             103.94869   0.068842606114048
             29.210155    0.23218442062076
              9.286663    0.46794134155879
              3.163927    0.36231203217765
 s    3 1.00
             7.8682724   -0.11933240861517
             1.8812885   -0.16085421161283
             0.5442493     1.1434564825515
 s    1 1.00
             0.1687144                   1
 p    3 1.00
             7.8682724   0.068999095584993
             1.8812885    0.31642397975315
             0.5442493    0.74430825237435
 p    1 1.00
             0.1687144                   1
 d    1 1.00
                   0.8                   1

37 0
 s    3 1.00
             18.731137    0.03349459952309
             2.8253937    0.23472694665786
             0.6401217    0.81375731841339
 s    1 1.00
             0.1612778                   1

38 0
 s    3 1.00
             18.731137    0.03349459952309
             2.8253937    0.23472694665786
             0.6401217    0.81375731841339
 s    1 1.00
             0.1612778                   1

39 0
 s    6 1.00
             3047.5249  0.0018347001629433
             457.36951    0.01403730124668
             103.94869   0.068842606114048
             29.210155    0.23218442062076
              9.286663    0.46794134155879
              3.163927    0.36231203217765
 s    3 1.00
             7.8682724   -0.11933240861517
             1.8812885   -0.16085421161283
             0.5442493     1.1434564825515
 s    1 1.00
             0.1687144                   1
 p    3 1.00
             7.8682724   0.068999095584993
             1.8812885    0.31642397975315
             0.5442493    0.74430825237435
 p    1 1.00
             0.1687144                   1
 d    1 1.00
                   0.8                   1

40 0
 s    6 1.00
             3047.5249  0.0018347001629433
             457.36951    0.01403730124668
             103.94869   0.068842606114048
             29.210155    0.23218442062076
              9.286663    0.46794134155879
              3.163927    0.36231203217765
 s    3 1.00
             7.8682724   -0.11933240861517
             1.8812885   -0.16085421161283
             0.5442493     1.1434564825515
 s    1 1.00
             0.1687144                   1
 p    3 1.00
             7.8682724   0.068999095584993
             1.8812885    0.31642397975315
             0.5442493    0.74430825237435
 p    1 1.00
             0.1687144                   1
 d    1 1.00
                   0.8                   1

41 0
 s    3 1.00
             18.731137    0.03349459952309
             2.8253937    0.23472694665786
             0.6401217    0.81375731841339
 s    1 1.00
             0.1612778                   1

42 0
 s    6 1.00
             5484.6717   0.001831099805527
             825.23495   0.013950098518422
             188.04696    0.06844509273075
               52.9645    0.23271427528445
              16.89757    0.47019295006289
             5.7996353    0.35852086192309
 s    3 1.00
             15.539616   -0.11077750382508
             3.5999336   -0.14802630511126
             1.0137618     1.1307670390447
 s    1 1.00
             0.2700058                   1
 p    3 1.00
             15.539616   0.070874299543311
             3.5999336    0.33975279781076
             1.0137618    0.72715859531445
 p    1 1.00
             0.2700058                   1
 d    1 1.00
                   0.8                   1

43 0
 s    3 1.00
             18.731137    0.03349459952309
             2.8253937    0.23472694665786
             0.6401217    0.81375731841339
 s    1 1.00
             0.1612778                   1

[5d]
[7f]
[9g]

[MO]
 Sym= A
 Ene=               0
 Spin= Alpha
 Occup=    1.00000
   1    -4.2190524371977e-06
   2    -4.3986221161101e-05
   3    0.0006367550948445
   4    -1.6006284018078e-05
   5    3.1352452128234e-05
   6    5.9773266076516e-06
   7    -7.6367347769429e-05
   8    -0.00013126961710445
   9    -0.00023162496269581
  10    1.5918916965074e-05
  11    8.9911463023109e-06
  12    6.134081644638e-06
  13    -5.9960619186909e-06
  14    5.3387676107544e-06
  15    -2.996108975005e-06
  16    -1.413141615433e-05
  17    8.889968134215e-06
  18    -3.9429246375159e-05
  19    -0.0013047898964303
  20    -5.410731690073e-05
  21    -1.5313498906073e-05
  22    7.5910274072111e-05
  23    -0.00080184202103885
  24    8.8721670975834e-05
  25    0.00013059525522678
  26    -3.3058582809552e-05
  27    2.6263999156489e-05
  28    -1.8442960547208e-05
  29    -2.9241870647069e-05
  30    -2.5070943114424e-05
  31    -4.8951938928127e-06
  32    -0.00013316231850391
  33    -8.2372240299787e-05
  34    -0.00029818377169452
  35    0.0049321171137351
  36    0.00021083569576721
  37    -2.7367966306067e-05
  38    -0.00012464647631108
  39    0.0018565322369226
  40    -0.0014980306243679
  41    0.00045623356010119
  42    -2.3960056824634e-05
  43    -9.3657676415851e-05
  44    -1.3284737912988e-05
  45    8.3734764946886e-05
  46    -9.2284730301028e-05
  47    2.2125197261342e-05
  48    0.00033589773934483
  49    5.5499001543267e-05
  50    -0.00031116013324493
  51    -0.0041162426606542
  52    -0.00057006520051456
  53    0.00020831893287915
  54    0.00021977090998321
  55     0.003569465746487
  56    -0.0017710797481981
  57    -0.000872036751391
  58    0.00013631308008708
  59    -7.0068114067056e-06
  60    -0.00015419347694381
  61    -8.8458274313262e-05
  62    8.7614159631208e-05
  63    -0.00041574203482797
  64    -0.00019420133022554
  65    -3.1995293412076e-08
  66    8.5662702793647e-07
  67    1.7356648470532e-08
  68    -2.9146133448799e-08
  69    -1.9517000988046e-06
  70    4.7609066088943e-08
  71    -1.1124723105929e-07
  72    -9.0838097202844e-08
  73    7.2694280775589e-07
  74    2.0875991064018e-07
  75    -2.1878558317616e-07
  76    1.7312578004778e-07
  77    1.7081647497286e-07
  78    1.9308876899214e-08
  79    4.7244142827068e-08
  80    1.7570976385101e-07
  81    4.8270234357521e-08
  82    8.0212058853563e-07
  83    1.6170318479761e-07
  84    1.3399876421365e-06
  85    1.2626574554877e-05
  86    -5.5655388201449e-07
  87    5.3598428246274e-07
  88    -5.3937285702208e-07
  89    -9.0143553725537e-07
  90    -1.7819483514944e-06
  91    -5.0116356393819e-06
  92    -2.0147527037143e-07
  93    1.2380658676668e-07
  94    9.3822325062011e-08
  95    -2.5295628506889e-07
  96    2.2230530860862e-07
  97    3.8923634844494e-07
  98    1.284733759921e-06
  99    -7.3178353748284e-07
 100    -1.0548932211814e-06
 101    -4.5938185608014e-07
 102    -1.3461586631445e-06
 103    3.5075463868861e-05
 104    -2.3705064941898e-06
 105    -6.437213183856e-07
 106    1.8098246696742e-07
 107    2.694660817503e-06
 108    -4.3300650489425e-06
 109    -4.5065238231529e-05
 110    6.6563550568583e-07
 111    1.1413099169093e-06
 112    -4.806080316623e-07
 113    4.0676013533626e-08
 114    -1.0718163259781e-07
 115    4.5054728257796e-07
 116    4.0370447996877e-06
 117    -3.3304669757709e-05
 118    5.7658745759295e-07
 119    9.2031946830144e-08
 120    -1.2972817938658e-06
 121    1.2454451572164e-05
 122    -9.9990070676183e-06
 123    -2.3581794894411e-06
 124    4.3912643825192e-07
 125    2.2056682083883e-07
 126    -5.3351683911539e-07
 127    -4.3390892888441e-07
 128    4.8441206217797e-07
 129    1.1423807976359e-06
 130    8.2751889108188e-06
 131    -6.3902436848211e-05
 132    2.1675122454306e-06
 133    -7.4072513891647e-07
 134    -3.1965687037188e-06
 135    -2.896750591069e-05
 136    1.5466335481906e-05
 137    9.4740610392355e-05
 138    -2.8450283448876e-06
 139    -1.5157106172247e-06
 140    8.0539582215046e-07
 141    -4.9963474874205e-07
 142    1.0951647263662e-06
 143    8.7130846331427e-07
 144    5.6832365768579e-06
 145    -5.4687708213655e-05
 146    -5.821032434037e-08
 147    1.1116788479774e-07
 148    2.1567579500979e-06
 149    -2.788449793424e-05
 150    1.5517043933296e-05
 151    -9.6726388605919e-07
 152    4.5222400994535e-07
 153    4.4031283087051e-07
 154    -6.1967268858346e-07
 155    -7.9256859153887e-07
 156    7.9737261938171e-07
 157    2.3441879084281e-07
 158    1.2555584567716e-06
 159    -9.5704617267021e-06
 160    -6.438859675877e-08
 161    1.6152946868501e-07
 162    2.2104790635358e-07
 163    3.9113821887421e-06
 164    3.1706557927801e-06
 165    8.9114677125341e-07
 166    -2.261601190544e-07
 167    3.4050703857411e-07
 168    -5.4860412629805e-08
 169    3.7567063501191e-07
 170    -2.6088930114282e-07
 171    -3.8035485256153e-08
 172    1.6358592169383e-07
 173    -3.4157756621303e-07
 174    9.480596099477e-08
 175    2.3721835464237e-07
 176    2.4842379177159e-07
 177    5.9073265523816e-06
 178    -2.2035244945461e-06
 179    1.6137328009033e-06
 180    -1.1469826302528e-07
 181    4.8790779333211e-07
 182    -1.9934222721365e-07
 183    6.8039652717922e-07
 184    2.7560821603518e-07
 185    -8.0449044154801e-08
 186    3.2416050898497e-07
 187    1.4704458171973e-05
 188    -4.2308884181521e-07
 189    -2.5516373494175e-07
 190    -1.7355997103045e-06
 191    -2.9329649611366e-06
 192    -2.9839091981241e-06
 193    -3.7261698394662e-06
 194    2.4105728737921e-07
 195    4.5616466641155e-07
 196    1.6705327582872e-07
 197    -3.8936549534343e-07
 198    3.2073219771668e-07
 199    -2.2810118495623e-07
 200    1.0356277378072e-06
 201    -3.8370747842234e-07
 202    -3.0578144802617e-06
 203    3.2540342466966e-07
 204    -2.86619922556e-06
 205    1.6931278187517e-06
 206    1.7441033529885e-06
 207    1.2686667570447e-06
 208    3.0012739393966e-06
 209    -2.7218524171004e-07
 210    5.0886261439181e-06
 211    -3.2123841319974e-08
 212    -1.1749698625543e-06
 213    6.7110349752837e-07
 214    5.0634064857675e-07
 215    -9.8074466580033e-07
 216    6.0405939898215e-06
 217    2.7560311201938e-07
 218    6.7688944348939e-07
 219    -2.3987579858513e-07
 220    -2.2537382332315e-06
 221    -1.4798492035995e-06
 222    -7.105841270954e-06
 223    0.00018684118554339
 224    -8.6560278569635e-07
 225    7.1085345961607e-06
 226    -4.9960037379151e-06
 227    5.5606200881977e-05
 228    1.0012643371619e-06
 229    3.7208559645563e-06
 230    3.9936823606685e-06
 231    5.6602707283087e-07
 232    -1.7302183014032e-06
 233    4.0208361668075e-08
 234    -5.4434701465103e-07
 235    2.0829609539725e-06
 236    1.3773619144163e-05
 237    -0.00024349843840423
 238    -2.0706465923888e-06
 239    -7.9614325932312e-06
 240    4.8017165898958e-06
 241    0.00011223348065884
 242    2.9700479898561e-05
 243    3.5112748547417e-06
 244    -3.6487936406217e-06
 245    -1.4715334050768e-06
 246    3.6195453582702e-06
 247    -2.171135663652e-06
 248    5.0264502471765e-07
 249    3.604713649581e-06
 250    -7.5068969161884e-06
 251    2.4864513931802e-06
 252    2.1086120720588e-05
 253    -6.4221503975868e-05
 254    -1.0330654876556e-06
 255    -4.4120380162435e-06
 256    -1.5522249975159e-05
 257    1.3008485477659e-05
 258    -9.2888251724491e-06
 259    0.00028380213432562
 260    -2.590417124002e-06
 261    1.0682573703787e-05
 262    -9.3439732748243e-07
 263    -7.8904953037895e-06
 264    3.4404209166474e-06
 265    -6.4827731796533e-06
 266    -1.7777517889157e-05
 267    1.4868976339108e-05
 268    1.4760518552004e-05
 269    7.2380640881484e-05
 270    -1.4578962007516e-05
 271    -0.0032957070076898
 272    -2.0674543357698e-05
 273    0.0001811882621487
 274    -0.0002521732476831
 275    -0.0026067739269268
 276    -0.0007914669176825
 277    0.0032494976548966
 278    -1.0948072814014e-05
 279    0.00032533365212916
 280    -0.00015873906267378