[Molden Format]
made by pyscf v[2.0.1]
[Atoms] (AU)
C   1   6     0.69100024066471     0.64692934207205    -3.48223131169301
H   2   1     2.68052439830868     1.13355088658700    -3.25784032593313
C   3   6    -0.36286361513219     0.85440132524594    -5.97030179418974
H   4   1    -2.35448549047279     0.36322488579172    -6.17995817793143
C   5   6     0.93697958957450     1.61209284601821    -8.05828437677121
H   6   1     2.50035468987728     2.93484935641869    -7.84122146962088
C   7   6     0.36255105159660     0.76050131278393   -10.56848504450332
H   8   1    -1.20802221204617    -0.56532983436663   -10.75608465244450
H   9   1     1.55630230933075    -1.92953025305990    12.99630010416247
C   10   6     0.75233899775814    -2.21270439606481    11.10705728102219
H   11   1    -0.43433408177274    -3.90944857546550    11.22216085340412
C   12   6     2.86362581178706    -2.63237380607947     9.17926416456045
H   13   1     4.39038949912609    -1.24955421540245     9.49899813497433
H   14   1     3.74629220191363    -4.48798724300892     9.47414880959024
C   15   6     2.02478325613682    -2.42177285709634     6.44560829588644
C   16   6     3.88048732735477    -3.58795445234514     4.61402886975252
C   17   6    -0.18412382258602    -1.30464291234259     5.76021113872346
C   18   6    -2.10044360464350    -0.26837831858460     7.71610340967100
C   19   6    -3.08956938670431     2.35282328359417     6.88693925039594
C   20   6    -4.37372924086464    -2.09766595989678     7.93610724222001
C   21   6    -0.83850430601230     0.06372213486173    10.33002307638377
H   22   1     0.38411922151109     1.74281358582432    10.27380136542181
H   23   1    -2.30980003007874     0.45460143924521    11.73986301809809
H   24   1     4.58527064644668    -5.38706904487420     5.36778158031719
H   25   1     5.54944938085014    -2.37631462192748     4.35398898413318
H   26   1     3.06633019150423    -3.94118377050688     2.75255466040884
H   27   1    -4.17727778763735     2.26573369139522     5.12914900961283
H   28   1    -1.52662344944051     3.68001877445626     6.59540397144508
H   29   1    -4.32916174397830     3.13643051467482     8.35225460090378
H   30   1    -5.32329548508442    -2.36691813602939     6.11583672749896
H   31   1    -5.77989366602257    -1.33896741843465     9.25748940450990
H   32   1    -3.79310905208926    -3.96389819310853     8.61386170102686
C   33   6    -1.01100794811226    -1.06331657314144     3.11929490449947
C   34   6     0.37686231036534    -0.33275864505552     1.09165013605873
H   35   1    -3.01671213906703    -1.40297922279997     2.77827895090944
C   36   6    -0.64382707979370    -0.11591880174385    -1.42063131251064
H   37   1     2.35569259782137     0.17174499283897     1.33641070251401
H   38   1    -2.63317482980319    -0.60229203511219    -1.66119700387645
C   39   6     1.60144441070444     1.46482489722556   -12.70057441592292
C   40   6     0.86980516734608     0.48994136718256   -15.17470632539007
H   41   1     3.18180515535191     2.77908821383906   -12.64635086980665
O   42   8     1.89724046327418     1.04291297454121   -17.16453627851552
H   43   1    -0.75645459108880    -0.84958730954869   -15.14122439828819
[GTO]
1 0
 s    6 1.00
             3047.5249  0.0018347001629433
             457.36951    0.01403730124668
             103.94869   0.068842606114048
             29.210155    0.23218442062076
              9.286663    0.46794134155879
              3.163927    0.36231203217765
 s    3 1.00
             7.8682724   -0.11933240861517
             1.8812885   -0.16085421161283
             0.5442493     1.1434564825515
 s    1 1.00
             0.1687144                   1
 p    3 1.00
             7.8682724   0.068999095584993
             1.8812885    0.31642397975315
             0.5442493    0.74430825237435
 p    1 1.00
             0.1687144                   1
 d    1 1.00
                   0.8                   1

2 0
 s    3 1.00
             18.731137    0.03349459952309
             2.8253937    0.23472694665786
             0.6401217    0.81375731841339
 s    1 1.00
             0.1612778                   1

3 0
 s    6 1.00
             3047.5249  0.0018347001629433
             457.36951    0.01403730124668
             103.94869   0.068842606114048
             29.210155    0.23218442062076
              9.286663    0.46794134155879
              3.163927    0.36231203217765
 s    3 1.00
             7.8682724   -0.11933240861517
             1.8812885   -0.16085421161283
             0.5442493     1.1434564825515
 s    1 1.00
             0.1687144                   1
 p    3 1.00
             7.8682724   0.068999095584993
             1.8812885    0.31642397975315
             0.5442493    0.74430825237435
 p    1 1.00
             0.1687144                   1
 d    1 1.00
                   0.8                   1

4 0
 s    3 1.00
             18.731137    0.03349459952309
             2.8253937    0.23472694665786
             0.6401217    0.81375731841339
 s    1 1.00
             0.1612778                   1

5 0
 s    6 1.00
             3047.5249  0.0018347001629433
             457.36951    0.01403730124668
             103.94869   0.068842606114048
             29.210155    0.23218442062076
              9.286663    0.46794134155879
              3.163927    0.36231203217765
 s    3 1.00
             7.8682724   -0.11933240861517
             1.8812885   -0.16085421161283
             0.5442493     1.1434564825515
 s    1 1.00
             0.1687144                   1
 p    3 1.00
             7.8682724   0.068999095584993
             1.8812885    0.31642397975315
             0.5442493    0.74430825237435
 p    1 1.00
             0.1687144                   1
 d    1 1.00
                   0.8                   1

6 0
 s    3 1.00
             18.731137    0.03349459952309
             2.8253937    0.23472694665786
             0.6401217    0.81375731841339
 s    1 1.00
             0.1612778                   1

7 0
 s    6 1.00
             3047.5249  0.0018347001629433
             457.36951    0.01403730124668
             103.94869   0.068842606114048
             29.210155    0.23218442062076
              9.286663    0.46794134155879
              3.163927    0.36231203217765
 s    3 1.00
             7.8682724   -0.11933240861517
             1.8812885   -0.16085421161283
             0.5442493     1.1434564825515
 s    1 1.00
             0.1687144                   1
 p    3 1.00
             7.8682724   0.068999095584993
             1.8812885    0.31642397975315
             0.5442493    0.74430825237435
 p    1 1.00
             0.1687144                   1
 d    1 1.00
                   0.8                   1

8 0
 s    3 1.00
             18.731137    0.03349459952309
             2.8253937    0.23472694665786
             0.6401217    0.81375731841339
 s    1 1.00
             0.1612778                   1

9 0
 s    3 1.00
             18.731137    0.03349459952309
             2.8253937    0.23472694665786
             0.6401217    0.81375731841339
 s    1 1.00
             0.1612778                   1

10 0
 s    6 1.00
             3047.5249  0.0018347001629433
             457.36951    0.01403730124668
             103.94869   0.068842606114048
             29.210155    0.23218442062076
              9.286663    0.46794134155879
              3.163927    0.36231203217765
 s    3 1.00
             7.8682724   -0.11933240861517
             1.8812885   -0.16085421161283
             0.5442493     1.1434564825515
 s    1 1.00
             0.1687144                   1
 p    3 1.00
             7.8682724   0.068999095584993
             1.8812885    0.31642397975315
             0.5442493    0.74430825237435
 p    1 1.00
             0.1687144                   1
 d    1 1.00
                   0.8                   1

11 0
 s    3 1.00
             18.731137    0.03349459952309
             2.8253937    0.23472694665786
             0.6401217    0.81375731841339
 s    1 1.00
             0.1612778                   1

12 0
 s    6 1.00
             3047.5249  0.0018347001629433
             457.36951    0.01403730124668
             103.94869   0.068842606114048
             29.210155    0.23218442062076
              9.286663    0.46794134155879
              3.163927    0.36231203217765
 s    3 1.00
             7.8682724   -0.11933240861517
             1.8812885   -0.16085421161283
             0.5442493     1.1434564825515
 s    1 1.00
             0.1687144                   1
 p    3 1.00
             7.8682724   0.068999095584993
             1.8812885    0.31642397975315
             0.5442493    0.74430825237435
 p    1 1.00
             0.1687144                   1
 d    1 1.00
                   0.8                   1

13 0
 s    3 1.00
             18.731137    0.03349459952309
             2.8253937    0.23472694665786
             0.6401217    0.81375731841339
 s    1 1.00
             0.1612778                   1

14 0
 s    3 1.00
             18.731137    0.03349459952309
             2.8253937    0.23472694665786
             0.6401217    0.81375731841339
 s    1 1.00
             0.1612778                   1

15 0
 s    6 1.00
             3047.5249  0.0018347001629433
             457.36951    0.01403730124668
             103.94869   0.068842606114048
             29.210155    0.23218442062076
              9.286663    0.46794134155879
              3.163927    0.36231203217765
 s    3 1.00
             7.8682724   -0.11933240861517
             1.8812885   -0.16085421161283
             0.5442493     1.1434564825515
 s    1 1.00
             0.1687144                   1
 p    3 1.00
             7.8682724   0.068999095584993
             1.8812885    0.31642397975315
             0.5442493    0.74430825237435
 p    1 1.00
             0.1687144                   1
 d    1 1.00
                   0.8                   1

16 0
 s    6 1.00
             3047.5249  0.0018347001629433
             457.36951    0.01403730124668
             103.94869   0.068842606114048
             29.210155    0.23218442062076
              9.286663    0.46794134155879
              3.163927    0.36231203217765
 s    3 1.00
             7.8682724   -0.11933240861517
             1.8812885   -0.16085421161283
             0.5442493     1.1434564825515
 s    1 1.00
             0.1687144                   1
 p    3 1.00
             7.8682724   0.068999095584993
             1.8812885    0.31642397975315
             0.5442493    0.74430825237435
 p    1 1.00
             0.1687144                   1
 d    1 1.00
                   0.8                   1

17 0
 s    6 1.00
             3047.5249  0.0018347001629433
             457.36951    0.01403730124668
             103.94869   0.068842606114048
             29.210155    0.23218442062076
              9.286663    0.46794134155879
              3.163927    0.36231203217765
 s    3 1.00
             7.8682724   -0.11933240861517
             1.8812885   -0.16085421161283
             0.5442493     1.1434564825515
 s    1 1.00
             0.1687144                   1
 p    3 1.00
             7.8682724   0.068999095584993
             1.8812885    0.31642397975315
             0.5442493    0.74430825237435
 p    1 1.00
             0.1687144                   1
 d    1 1.00
                   0.8                   1

18 0
 s    6 1.00
             3047.5249  0.0018347001629433
             457.36951    0.01403730124668
             103.94869   0.068842606114048
             29.210155    0.23218442062076
              9.286663    0.46794134155879
              3.163927    0.36231203217765
 s    3 1.00
             7.8682724   -0.11933240861517
             1.8812885   -0.16085421161283
             0.5442493     1.1434564825515
 s    1 1.00
             0.1687144                   1
 p    3 1.00
             7.8682724   0.068999095584993
             1.8812885    0.31642397975315
             0.5442493    0.74430825237435
 p    1 1.00
             0.1687144                   1
 d    1 1.00
                   0.8                   1

19 0
 s    6 1.00
             3047.5249  0.0018347001629433
             457.36951    0.01403730124668
             103.94869   0.068842606114048
             29.210155    0.23218442062076
              9.286663    0.46794134155879
              3.163927    0.36231203217765
 s    3 1.00
             7.8682724   -0.11933240861517
             1.8812885   -0.16085421161283
             0.5442493     1.1434564825515
 s    1 1.00
             0.1687144                   1
 p    3 1.00
             7.8682724   0.068999095584993
             1.8812885    0.31642397975315
             0.5442493    0.74430825237435
 p    1 1.00
             0.1687144                   1
 d    1 1.00
                   0.8                   1

20 0
 s    6 1.00
             3047.5249  0.0018347001629433
             457.36951    0.01403730124668
             103.94869   0.068842606114048
             29.210155    0.23218442062076
              9.286663    0.46794134155879
              3.163927    0.36231203217765
 s    3 1.00
             7.8682724   -0.11933240861517
             1.8812885   -0.16085421161283
             0.5442493     1.1434564825515
 s    1 1.00
             0.1687144                   1
 p    3 1.00
             7.8682724   0.068999095584993
             1.8812885    0.31642397975315
             0.5442493    0.74430825237435
 p    1 1.00
             0.1687144                   1
 d    1 1.00
                   0.8                   1

21 0
 s    6 1.00
             3047.5249  0.0018347001629433
             457.36951    0.01403730124668
             103.94869   0.068842606114048
             29.210155    0.23218442062076
              9.286663    0.46794134155879
              3.163927    0.36231203217765
 s    3 1.00
             7.8682724   -0.11933240861517
             1.8812885   -0.16085421161283
             0.5442493     1.1434564825515
 s    1 1.00
             0.1687144                   1
 p    3 1.00
             7.8682724   0.068999095584993
             1.8812885    0.31642397975315
             0.5442493    0.74430825237435
 p    1 1.00
             0.1687144                   1
 d    1 1.00
                   0.8                   1

22 0
 s    3 1.00
             18.731137    0.03349459952309
             2.8253937    0.23472694665786
             0.6401217    0.81375731841339
 s    1 1.00
             0.1612778                   1

23 0
 s    3 1.00
             18.731137    0.03349459952309
             2.8253937    0.23472694665786
             0.6401217    0.81375731841339
 s    1 1.00
             0.1612778                   1

24 0
 s    3 1.00
             18.731137    0.03349459952309
             2.8253937    0.23472694665786
             0.6401217    0.81375731841339
 s    1 1.00
             0.1612778                   1

25 0
 s    3 1.00
             18.731137    0.03349459952309
             2.8253937    0.23472694665786
             0.6401217    0.81375731841339
 s    1 1.00
             0.1612778                   1

26 0
 s    3 1.00
             18.731137    0.03349459952309
             2.8253937    0.23472694665786
             0.6401217    0.81375731841339
 s    1 1.00
             0.1612778                   1

27 0
 s    3 1.00
             18.731137    0.03349459952309
             2.8253937    0.23472694665786
             0.6401217    0.81375731841339
 s    1 1.00
             0.1612778                   1

28 0
 s    3 1.00
             18.731137    0.03349459952309
             2.8253937    0.23472694665786
             0.6401217    0.81375731841339
 s    1 1.00
             0.1612778                   1

29 0
 s    3 1.00
             18.731137    0.03349459952309
             2.8253937    0.23472694665786
             0.6401217    0.81375731841339
 s    1 1.00
             0.1612778                   1

30 0
 s    3 1.00
             18.731137    0.03349459952309
             2.8253937    0.23472694665786
             0.6401217    0.81375731841339
 s    1 1.00
             0.1612778                   1

31 0
 s    3 1.00
             18.731137    0.03349459952309
             2.8253937    0.23472694665786
             0.6401217    0.81375731841339
 s    1 1.00
             0.1612778                   1

32 0
 s    3 1.00
             18.731137    0.03349459952309
             2.8253937    0.23472694665786
             0.6401217    0.81375731841339
 s    1 1.00
             0.1612778                   1

33 0
 s    6 1.00
             3047.5249  0.0018347001629433
             457.36951    0.01403730124668
             103.94869   0.068842606114048
             29.210155    0.23218442062076
              9.286663    0.46794134155879
              3.163927    0.36231203217765
 s    3 1.00
             7.8682724   -0.11933240861517
             1.8812885   -0.16085421161283
             0.5442493     1.1434564825515
 s    1 1.00
             0.1687144                   1
 p    3 1.00
             7.8682724   0.068999095584993
             1.8812885    0.31642397975315
             0.5442493    0.74430825237435
 p    1 1.00
             0.1687144                   1
 d    1 1.00
                   0.8                   1

34 0
 s    6 1.00
             3047.5249  0.0018347001629433
             457.36951    0.01403730124668
             103.94869   0.068842606114048
             29.210155    0.23218442062076
              9.286663    0.46794134155879
              3.163927    0.36231203217765
 s    3 1.00
             7.8682724   -0.11933240861517
             1.8812885   -0.16085421161283
             0.5442493     1.1434564825515
 s    1 1.00
             0.1687144                   1
 p    3 1.00
             7.8682724   0.068999095584993
             1.8812885    0.31642397975315
             0.5442493    0.74430825237435
 p    1 1.00
             0.1687144                   1
 d    1 1.00
                   0.8                   1

35 0
 s    3 1.00
             18.731137    0.03349459952309
             2.8253937    0.23472694665786
             0.6401217    0.81375731841339
 s    1 1.00
             0.1612778                   1

36 0
 s    6 1.00
             3047.5249  0.0018347001629433
             457.36951    0.01403730124668
             103.94869   0.068842606114048
             29.210155    0.23218442062076
              9.286663    0.46794134155879
              3.163927    0.36231203217765
 s    3 1.00
             7.8682724   -0.11933240861517
             1.8812885   -0.16085421161283
             0.5442493     1.1434564825515
 s    1 1.00
             0.1687144                   1
 p    3 1.00
             7.8682724   0.068999095584993
             1.8812885    0.31642397975315
             0.5442493    0.74430825237435
 p    1 1.00
             0.1687144                   1
 d    1 1.00
                   0.8                   1

37 0
 s    3 1.00
             18.731137    0.03349459952309
             2.8253937    0.23472694665786
             0.6401217    0.81375731841339
 s    1 1.00
             0.1612778                   1

38 0
 s    3 1.00
             18.731137    0.03349459952309
             2.8253937    0.23472694665786
             0.6401217    0.81375731841339
 s    1 1.00
             0.1612778                   1

39 0
 s    6 1.00
             3047.5249  0.0018347001629433
             457.36951    0.01403730124668
             103.94869   0.068842606114048
             29.210155    0.23218442062076
              9.286663    0.46794134155879
              3.163927    0.36231203217765
 s    3 1.00
             7.8682724   -0.11933240861517
             1.8812885   -0.16085421161283
             0.5442493     1.1434564825515
 s    1 1.00
             0.1687144                   1
 p    3 1.00
             7.8682724   0.068999095584993
             1.8812885    0.31642397975315
             0.5442493    0.74430825237435
 p    1 1.00
             0.1687144                   1
 d    1 1.00
                   0.8                   1

40 0
 s    6 1.00
             3047.5249  0.0018347001629433
             457.36951    0.01403730124668
             103.94869   0.068842606114048
             29.210155    0.23218442062076
              9.286663    0.46794134155879
              3.163927    0.36231203217765
 s    3 1.00
             7.8682724   -0.11933240861517
             1.8812885   -0.16085421161283
             0.5442493     1.1434564825515
 s    1 1.00
             0.1687144                   1
 p    3 1.00
             7.8682724   0.068999095584993
             1.8812885    0.31642397975315
             0.5442493    0.74430825237435
 p    1 1.00
             0.1687144                   1
 d    1 1.00
                   0.8                   1

41 0
 s    3 1.00
             18.731137    0.03349459952309
             2.8253937    0.23472694665786
             0.6401217    0.81375731841339
 s    1 1.00
             0.1612778                   1

42 0
 s    6 1.00
             5484.6717   0.001831099805527
             825.23495   0.013950098518422
             188.04696    0.06844509273075
               52.9645    0.23271427528445
              16.89757    0.47019295006289
             5.7996353    0.35852086192309
 s    3 1.00
             15.539616   -0.11077750382508
             3.5999336   -0.14802630511126
             1.0137618     1.1307670390447
 s    1 1.00
             0.2700058                   1
 p    3 1.00
             15.539616   0.070874299543311
             3.5999336    0.33975279781076
             1.0137618    0.72715859531445
 p    1 1.00
             0.2700058                   1
 d    1 1.00
                   0.8                   1

43 0
 s    3 1.00
             18.731137    0.03349459952309
             2.8253937    0.23472694665786
             0.6401217    0.81375731841339
 s    1 1.00
             0.1612778                   1

[5d]
[7f]
[9g]

[MO]
 Sym= A
 Ene=               0
 Spin= Alpha
 Occup=    1.00000
   1    7.9184108523207e-06
   2    2.0460392132408e-05
   3    9.9018179486326e-05
   4    1.3603384111714e-05
   5    3.0659336730175e-05
   6    -1.1095873734498e-05
   7    -0.00021579877895244
   8    -0.00026867108338309
   9    0.00065241921683269
  10    -1.6550430796349e-05
  11    -2.3102427446513e-05
  12    -1.7571108712752e-07
  13    -1.3719176661913e-06
  14    -8.1968665443245e-07
  15    3.4710415470656e-05
  16    3.488281724175e-05
  17    -1.5027362245423e-05
  18    -2.5817808891827e-05
  19    0.0017955746381336
  20    2.872049487852e-05
  21    -4.4550767059595e-06
  22    -7.7998134631154e-05
  23    0.0003921051432699
  24    0.00013782860473957
  25    -0.00076619705802743
  26    4.8532027711118e-05
  27    -1.955194105436e-05
  28    -2.2456348717594e-05
  29    2.3445947451811e-05
  30    -2.9862524716114e-05
  31    8.5582909723179e-07
  32    -6.1868391079953e-05
  33    8.6234804257864e-05
  34     0.000310189002491
  35    -0.0054879837583151
  36    -2.1660225839978e-05
  37    2.5590058976644e-05
  38    0.00021853362905884
  39    0.0015028542207653
  40     0.001373984048225
  41    0.0014324295369806
  42    -0.00015546084761703
  43    -1.2928067767191e-05
  44    -6.6315378929827e-05
  45    -2.1285499462129e-06
  46    -5.2588379541172e-05
  47    -3.0808869173934e-05
  48    -0.00031314355993376
  49    -5.9308029457408e-05
  50    0.00028641593987537
  51    0.0043208651261543
  52    -8.6515465807817e-05
  53    -0.00016847821097122
  54    -0.00061554082058301
  55    0.0010624683697594
  56    0.0015012933145878
  57     0.003783816075432
  58    0.00010210130886853
  59    0.00014611075734074
  60    0.00013619901229399
  61    -4.4056550513281e-05
  62    -9.2928568362488e-05
  63    0.00041557246002583
  64    0.00017021549977877
  65    3.3023972832261e-08
  66    -1.5006491643077e-06
  67    8.9571192050308e-08
  68    9.1021194324454e-07
  69    1.0514168133527e-06
  70    -5.5976151670293e-07
  71    6.3366690642218e-07
  72    -3.0289252410701e-07
  73    -1.6952885145996e-06
  74    -1.8942522496036e-07
  75    2.144448337106e-06
  76    -1.9358975942083e-07
  77    -8.6494803249898e-08
  78    -9.8045792030965e-08
  79    -6.3678655940383e-08
  80    -7.9361118207033e-08
  81    -9.8549216196017e-08
  82    -5.6286911531668e-07
  83    -2.0277440632145e-07
  84    -1.3920782880534e-06
  85    6.159509405443e-06
  86    -2.4285596348869e-07
  87    2.9569399929179e-08
  88    -4.6122164261599e-07
  89    -3.2038932170323e-06
  90    5.4868584126984e-06
  91    -1.203057694321e-07
  92    1.1113760860156e-07
  93    3.1993376442738e-07
  94    -6.5391668866974e-07
  95    2.3368014005995e-07
  96    -1.7889312272781e-08
  97    -9.3231249482018e-07
  98    -3.3557617142819e-07
  99    2.0376568019964e-07
 100    9.8595217783619e-07
 101    4.3842141803914e-07
 102    1.3953105189945e-06
 103    -5.6374772606027e-05
 104    7.1618855144753e-07
 105    -2.3792827807572e-07
 106    1.7953369359641e-06
 107    2.2013010228685e-05
 108    -2.3169616987566e-05
 109    6.0912601846996e-06
 110    -6.0549403953598e-07
 111    -9.4149357464608e-07
 112    4.2322197935906e-07
 113    6.2675964298875e-07
 114    1.1661668188139e-06
 115    -3.920257031874e-07
 116    -4.004315747938e-06
 117    1.1788828739377e-05
 118    1.9872241568381e-07
 119    -8.8974255317036e-07
 120    1.0716833520327e-06
 121    -3.4048414887122e-06
 122    7.1243672556018e-06
 123    -1.3167899446642e-05
 124    -3.9382837329767e-07
 125    5.0511160019314e-07
 126    4.2545183048371e-07
 127    2.5576127657296e-08
 128    1.2814537370461e-07
 129    -3.2769428487086e-07
 130    -4.1475489542042e-06
 131    -3.1105670235196e-05
 132    -4.1084715254298e-06
 133    -1.8884963531362e-06
 134    3.7541881989471e-06
 135    7.8450215777638e-05
 136    -4.3073949718521e-06
 137    1.6199976238264e-05
 138    -4.1401984761477e-07
 139    -6.3357348144493e-07
 140    -1.8702227579225e-06
 141    3.0598600680334e-07
 142    -1.2413893536858e-06
 143    9.5700062662321e-09
 144    1.8505988121902e-06
 145    2.5097483165556e-05
 146    4.7682584429269e-07
 147    1.2472999332928e-06
 148    -3.8328960534838e-06
 149    8.8009019844536e-06
 150    -2.9550688793078e-05
 151    1.4515969832314e-05
 152    4.9044931797597e-07
 153    -1.209357340923e-07
 154    1.5288591532289e-06
 155    1.9671554059561e-07
 156    7.2971846089795e-07
 157    -5.089346264382e-07
 158    -3.7519723939815e-06
 159    2.5103392411737e-05
 160    -8.235845870557e-08
 161    -8.1950876949486e-07
 162    8.4692484414407e-07
 163    7.3166367549551e-06
 164    -9.6534308740132e-06
 165    -1.3985678304424e-06
 166    -8.1545133777193e-07
 167    3.0824784150643e-07
 168    -1.7601086087933e-07
 169    -3.7159604664535e-07
 170    -6.0857740739384e-07
 171    -1.9046454846439e-08
 172    -2.6188087010889e-07
 173    -3.6576837939738e-06
 174    -5.6579114937075e-08
 175    1.5193687794672e-07
 176    -9.6069368970377e-07
 177    -9.1332488470618e-06
 178    -3.0706071130263e-06
 179    -4.7407003593384e-06
 180    2.885085899928e-07
 181    -1.0292510817422e-06
 182    -6.9052838700388e-08
 183    -6.0432834664679e-07
 184    -7.6057230676445e-07
 185    4.8702094546278e-07
 186    3.9261539821807e-06
 187    -2.0476321437751e-05
 188    8.2148215566218e-07
 189    8.2352338305258e-08
 190    2.4094431268621e-07
 191    1.1690156244569e-06
 192    7.8483431573476e-06
 193    8.8033017261533e-06
 194    -3.0968285728909e-07
 195    -6.0579620205686e-07
 196    -1.1640906273482e-06
 197    3.2715704796919e-07
 198    -2.7177353797655e-07
 199    1.1373445980921e-06
 200    -1.6079791780673e-06
 201    3.6700983626088e-07
 202    -4.8499976938985e-07
 203    2.7230882191639e-07
 204    4.0317759836162e-06
 205    -2.2093573903367e-06
 206    -8.2318958792235e-07
 207    1.0280753899737e-06
 208    -1.6886157478839e-05
 209    -1.6488128917585e-06
 210    -7.5873198181069e-07
 211    -1.4618016361482e-06
 212    -2.1392831794828e-06
 213    -4.4070867267127e-07
 214    2.0927860199237e-06
 215    1.9164971088473e-06
 216    -1.2912803807439e-05
 217    -4.3369128828439e-07
 218    2.3278007952102e-07
 219    -5.8209577435695e-07
 220    1.9266457824574e-06
 221    2.3934140438771e-06
 222    1.5185340826962e-05
 223    -0.0001805122669643
 224    -4.6389193243877e-06
 225    1.7905940150982e-07
 226    -1.9100229156447e-07
 227    -2.4854051432266e-05
 228    -3.6338262332632e-05
 229    0.00019070278115303
 230    -4.6268142801977e-06
 231    6.3374833542647e-06
 232    4.1559761911944e-06
 233    -2.2176660173074e-06
 234    -1.1170307637199e-06
 235    -5.7235583179186e-06
 236    -3.5938231424413e-05
 237    0.0005581690441956
 238    3.0412031143242e-06
 239    7.0860259267159e-06
 240    -1.2179146984873e-05
 241    -0.00017388511649736
 242    -4.7081908257761e-05
 243    -0.00010069051853384
 244    1.6127699819795e-05
 245    -1.322135469125e-06
 246    -3.3311330335231e-06
 247    1.3098099562961e-06
 248    3.8332271943198e-06
 249    8.1251306963481e-06
 250    1.7644139828083e-05
 251    4.9996329087109e-06
 252    3.7236592742213e-05
 253    -0.00078591529832867
 254    1.4508388563108e-05
 255    -1.2806735566951e-05
 256    2.4585425283831e-05
 257    -0.00034794864095725
 258    -1.0161988441248e-05
 259    -0.00010732920286623
 260    -1.5677737173546e-05
 261    2.6357739231637e-06
 262    2.8104536915582e-06
 263    -4.6948691375801e-06
 264    2.0436711726146e-06
 265    4.5085724967107e-06
 266    9.813736590808e-06
 267    -2.149262958027e-05
 268    -4.150501399988e-05
 269    -7.1937028044868e-05
 270    1.7463723155827e-05
 271    0.0033113233771936
 272    -0.0002411852477514
 273    -0.00016925637335196
 274    9.5475883130878e-05
 275    0.0017008641399149
 276    0.00082663068530376
 277    -0.0038367746216207
 278    0.00038232725454359
 279    -0.00010145932430048