[Molden Format]
made by pyscf v[2.0.1]
[Atoms] (AU)
C   1   6     0.69100024066471     0.64692934207205    -3.48223131169301
H   2   1     2.68052439830868     1.13355088658700    -3.25784032593313
C   3   6    -0.36286361513219     0.85440132524594    -5.97030179418974
H   4   1    -2.35448549047279     0.36322488579172    -6.17995817793143
C   5   6     0.93697958957450     1.61209284601821    -8.05828437677121
H   6   1     1.25179717896080     3.62344259528190    -8.36861463213972
C   7   6     1.93299030663405    -0.10622024085708    -9.90534865945394
H   8   1     1.60367989661651    -2.11561190296467    -9.56827000221191
H   9   1     1.55630230933075    -1.92953025305990    12.99630010416247
C   10   6     0.75233899775814    -2.21270439606481    11.10705728102219
H   11   1    -0.43433408177274    -3.90944857546550    11.22216085340412
C   12   6     2.86362581178706    -2.63237380607947     9.17926416456045
H   13   1     4.39038949912609    -1.24955421540245     9.49899813497433
H   14   1     3.74629220191363    -4.48798724300892     9.47414880959024
C   15   6     2.02478325613682    -2.42177285709634     6.44560829588644
C   16   6     3.88048732735477    -3.58795445234514     4.61402886975252
C   17   6    -0.18412382258602    -1.30464291234259     5.76021113872346
C   18   6    -2.10044360464350    -0.26837831858460     7.71610340967100
C   19   6    -3.08956938670431     2.35282328359417     6.88693925039594
C   20   6    -4.37372924086464    -2.09766595989678     7.93610724222001
C   21   6    -0.83850430601230     0.06372213486173    10.33002307638377
H   22   1     0.38411922151109     1.74281358582432    10.27380136542181
H   23   1    -2.30980003007874     0.45460143924521    11.73986301809809
H   24   1     4.58527064644668    -5.38706904487420     5.36778158031719
H   25   1     5.54944938085014    -2.37631462192748     4.35398898413318
H   26   1     3.06633019150423    -3.94118377050688     2.75255466040884
H   27   1    -4.17727778763735     2.26573369139522     5.12914900961283
H   28   1    -1.52662344944051     3.68001877445626     6.59540397144508
H   29   1    -4.32916174397830     3.13643051467482     8.35225460090378
H   30   1    -5.32329548508442    -2.36691813602939     6.11583672749896
H   31   1    -5.77989366602257    -1.33896741843465     9.25748940450990
H   32   1    -3.79310905208926    -3.96389819310853     8.61386170102686
C   33   6    -1.01100794811226    -1.06331657314144     3.11929490449947
C   34   6     0.37686231036534    -0.33275864505552     1.09165013605873
H   35   1    -3.01671213906703    -1.40297922279997     2.77827895090944
C   36   6    -0.64382707979370    -0.11591880174385    -1.42063131251064
H   37   1     2.35569259782137     0.17174499283897     1.33641070251401
H   38   1    -2.63317482980319    -0.60229203511219    -1.66119700387645
C   39   6     3.23483881481583     0.56109494848388   -12.01167590238676
C   40   6     4.17213386166354    -1.33546547775814   -13.78129708499957
H   41   1     3.62751071831436     2.52907164005278   -12.45960989181140
O   42   8     5.35190984410731    -0.86987395658954   -15.70799822813352
H   43   1     3.72751838268070    -3.32497850208065   -13.24806737881206
[GTO]
1 0
 s    6 1.00
             3047.5249  0.0018347001629433
             457.36951    0.01403730124668
             103.94869   0.068842606114048
             29.210155    0.23218442062076
              9.286663    0.46794134155879
              3.163927    0.36231203217765
 s    3 1.00
             7.8682724   -0.11933240861517
             1.8812885   -0.16085421161283
             0.5442493     1.1434564825515
 s    1 1.00
             0.1687144                   1
 p    3 1.00
             7.8682724   0.068999095584993
             1.8812885    0.31642397975315
             0.5442493    0.74430825237435
 p    1 1.00
             0.1687144                   1
 d    1 1.00
                   0.8                   1

2 0
 s    3 1.00
             18.731137    0.03349459952309
             2.8253937    0.23472694665786
             0.6401217    0.81375731841339
 s    1 1.00
             0.1612778                   1

3 0
 s    6 1.00
             3047.5249  0.0018347001629433
             457.36951    0.01403730124668
             103.94869   0.068842606114048
             29.210155    0.23218442062076
              9.286663    0.46794134155879
              3.163927    0.36231203217765
 s    3 1.00
             7.8682724   -0.11933240861517
             1.8812885   -0.16085421161283
             0.5442493     1.1434564825515
 s    1 1.00
             0.1687144                   1
 p    3 1.00
             7.8682724   0.068999095584993
             1.8812885    0.31642397975315
             0.5442493    0.74430825237435
 p    1 1.00
             0.1687144                   1
 d    1 1.00
                   0.8                   1

4 0
 s    3 1.00
             18.731137    0.03349459952309
             2.8253937    0.23472694665786
             0.6401217    0.81375731841339
 s    1 1.00
             0.1612778                   1

5 0
 s    6 1.00
             3047.5249  0.0018347001629433
             457.36951    0.01403730124668
             103.94869   0.068842606114048
             29.210155    0.23218442062076
              9.286663    0.46794134155879
              3.163927    0.36231203217765
 s    3 1.00
             7.8682724   -0.11933240861517
             1.8812885   -0.16085421161283
             0.5442493     1.1434564825515
 s    1 1.00
             0.1687144                   1
 p    3 1.00
             7.8682724   0.068999095584993
             1.8812885    0.31642397975315
             0.5442493    0.74430825237435
 p    1 1.00
             0.1687144                   1
 d    1 1.00
                   0.8                   1

6 0
 s    3 1.00
             18.731137    0.03349459952309
             2.8253937    0.23472694665786
             0.6401217    0.81375731841339
 s    1 1.00
             0.1612778                   1

7 0
 s    6 1.00
             3047.5249  0.0018347001629433
             457.36951    0.01403730124668
             103.94869   0.068842606114048
             29.210155    0.23218442062076
              9.286663    0.46794134155879
              3.163927    0.36231203217765
 s    3 1.00
             7.8682724   -0.11933240861517
             1.8812885   -0.16085421161283
             0.5442493     1.1434564825515
 s    1 1.00
             0.1687144                   1
 p    3 1.00
             7.8682724   0.068999095584993
             1.8812885    0.31642397975315
             0.5442493    0.74430825237435
 p    1 1.00
             0.1687144                   1
 d    1 1.00
                   0.8                   1

8 0
 s    3 1.00
             18.731137    0.03349459952309
             2.8253937    0.23472694665786
             0.6401217    0.81375731841339
 s    1 1.00
             0.1612778                   1

9 0
 s    3 1.00
             18.731137    0.03349459952309
             2.8253937    0.23472694665786
             0.6401217    0.81375731841339
 s    1 1.00
             0.1612778                   1

10 0
 s    6 1.00
             3047.5249  0.0018347001629433
             457.36951    0.01403730124668
             103.94869   0.068842606114048
             29.210155    0.23218442062076
              9.286663    0.46794134155879
              3.163927    0.36231203217765
 s    3 1.00
             7.8682724   -0.11933240861517
             1.8812885   -0.16085421161283
             0.5442493     1.1434564825515
 s    1 1.00
             0.1687144                   1
 p    3 1.00
             7.8682724   0.068999095584993
             1.8812885    0.31642397975315
             0.5442493    0.74430825237435
 p    1 1.00
             0.1687144                   1
 d    1 1.00
                   0.8                   1

11 0
 s    3 1.00
             18.731137    0.03349459952309
             2.8253937    0.23472694665786
             0.6401217    0.81375731841339
 s    1 1.00
             0.1612778                   1

12 0
 s    6 1.00
             3047.5249  0.0018347001629433
             457.36951    0.01403730124668
             103.94869   0.068842606114048
             29.210155    0.23218442062076
              9.286663    0.46794134155879
              3.163927    0.36231203217765
 s    3 1.00
             7.8682724   -0.11933240861517
             1.8812885   -0.16085421161283
             0.5442493     1.1434564825515
 s    1 1.00
             0.1687144                   1
 p    3 1.00
             7.8682724   0.068999095584993
             1.8812885    0.31642397975315
             0.5442493    0.74430825237435
 p    1 1.00
             0.1687144                   1
 d    1 1.00
                   0.8                   1

13 0
 s    3 1.00
             18.731137    0.03349459952309
             2.8253937    0.23472694665786
             0.6401217    0.81375731841339
 s    1 1.00
             0.1612778                   1

14 0
 s    3 1.00
             18.731137    0.03349459952309
             2.8253937    0.23472694665786
             0.6401217    0.81375731841339
 s    1 1.00
             0.1612778                   1

15 0
 s    6 1.00
             3047.5249  0.0018347001629433
             457.36951    0.01403730124668
             103.94869   0.068842606114048
             29.210155    0.23218442062076
              9.286663    0.46794134155879
              3.163927    0.36231203217765
 s    3 1.00
             7.8682724   -0.11933240861517
             1.8812885   -0.16085421161283
             0.5442493     1.1434564825515
 s    1 1.00
             0.1687144                   1
 p    3 1.00
             7.8682724   0.068999095584993
             1.8812885    0.31642397975315
             0.5442493    0.74430825237435
 p    1 1.00
             0.1687144                   1
 d    1 1.00
                   0.8                   1

16 0
 s    6 1.00
             3047.5249  0.0018347001629433
             457.36951    0.01403730124668
             103.94869   0.068842606114048
             29.210155    0.23218442062076
              9.286663    0.46794134155879
              3.163927    0.36231203217765
 s    3 1.00
             7.8682724   -0.11933240861517
             1.8812885   -0.16085421161283
             0.5442493     1.1434564825515
 s    1 1.00
             0.1687144                   1
 p    3 1.00
             7.8682724   0.068999095584993
             1.8812885    0.31642397975315
             0.5442493    0.74430825237435
 p    1 1.00
             0.1687144                   1
 d    1 1.00
                   0.8                   1

17 0
 s    6 1.00
             3047.5249  0.0018347001629433
             457.36951    0.01403730124668
             103.94869   0.068842606114048
             29.210155    0.23218442062076
              9.286663    0.46794134155879
              3.163927    0.36231203217765
 s    3 1.00
             7.8682724   -0.11933240861517
             1.8812885   -0.16085421161283
             0.5442493     1.1434564825515
 s    1 1.00
             0.1687144                   1
 p    3 1.00
             7.8682724   0.068999095584993
             1.8812885    0.31642397975315
             0.5442493    0.74430825237435
 p    1 1.00
             0.1687144                   1
 d    1 1.00
                   0.8                   1

18 0
 s    6 1.00
             3047.5249  0.0018347001629433
             457.36951    0.01403730124668
             103.94869   0.068842606114048
             29.210155    0.23218442062076
              9.286663    0.46794134155879
              3.163927    0.36231203217765
 s    3 1.00
             7.8682724   -0.11933240861517
             1.8812885   -0.16085421161283
             0.5442493     1.1434564825515
 s    1 1.00
             0.1687144                   1
 p    3 1.00
             7.8682724   0.068999095584993
             1.8812885    0.31642397975315
             0.5442493    0.74430825237435
 p    1 1.00
             0.1687144                   1
 d    1 1.00
                   0.8                   1

19 0
 s    6 1.00
             3047.5249  0.0018347001629433
             457.36951    0.01403730124668
             103.94869   0.068842606114048
             29.210155    0.23218442062076
              9.286663    0.46794134155879
              3.163927    0.36231203217765
 s    3 1.00
             7.8682724   -0.11933240861517
             1.8812885   -0.16085421161283
             0.5442493     1.1434564825515
 s    1 1.00
             0.1687144                   1
 p    3 1.00
             7.8682724   0.068999095584993
             1.8812885    0.31642397975315
             0.5442493    0.74430825237435
 p    1 1.00
             0.1687144                   1
 d    1 1.00
                   0.8                   1

20 0
 s    6 1.00
             3047.5249  0.0018347001629433
             457.36951    0.01403730124668
             103.94869   0.068842606114048
             29.210155    0.23218442062076
              9.286663    0.46794134155879
              3.163927    0.36231203217765
 s    3 1.00
             7.8682724   -0.11933240861517
             1.8812885   -0.16085421161283
             0.5442493     1.1434564825515
 s    1 1.00
             0.1687144                   1
 p    3 1.00
             7.8682724   0.068999095584993
             1.8812885    0.31642397975315
             0.5442493    0.74430825237435
 p    1 1.00
             0.1687144                   1
 d    1 1.00
                   0.8                   1

21 0
 s    6 1.00
             3047.5249  0.0018347001629433
             457.36951    0.01403730124668
             103.94869   0.068842606114048
             29.210155    0.23218442062076
              9.286663    0.46794134155879
              3.163927    0.36231203217765
 s    3 1.00
             7.8682724   -0.11933240861517
             1.8812885   -0.16085421161283
             0.5442493     1.1434564825515
 s    1 1.00
             0.1687144                   1
 p    3 1.00
             7.8682724   0.068999095584993
             1.8812885    0.31642397975315
             0.5442493    0.74430825237435
 p    1 1.00
             0.1687144                   1
 d    1 1.00
                   0.8                   1

22 0
 s    3 1.00
             18.731137    0.03349459952309
             2.8253937    0.23472694665786
             0.6401217    0.81375731841339
 s    1 1.00
             0.1612778                   1

23 0
 s    3 1.00
             18.731137    0.03349459952309
             2.8253937    0.23472694665786
             0.6401217    0.81375731841339
 s    1 1.00
             0.1612778                   1

24 0
 s    3 1.00
             18.731137    0.03349459952309
             2.8253937    0.23472694665786
             0.6401217    0.81375731841339
 s    1 1.00
             0.1612778                   1

25 0
 s    3 1.00
             18.731137    0.03349459952309
             2.8253937    0.23472694665786
             0.6401217    0.81375731841339
 s    1 1.00
             0.1612778                   1

26 0
 s    3 1.00
             18.731137    0.03349459952309
             2.8253937    0.23472694665786
             0.6401217    0.81375731841339
 s    1 1.00
             0.1612778                   1

27 0
 s    3 1.00
             18.731137    0.03349459952309
             2.8253937    0.23472694665786
             0.6401217    0.81375731841339
 s    1 1.00
             0.1612778                   1

28 0
 s    3 1.00
             18.731137    0.03349459952309
             2.8253937    0.23472694665786
             0.6401217    0.81375731841339
 s    1 1.00
             0.1612778                   1

29 0
 s    3 1.00
             18.731137    0.03349459952309
             2.8253937    0.23472694665786
             0.6401217    0.81375731841339
 s    1 1.00
             0.1612778                   1

30 0
 s    3 1.00
             18.731137    0.03349459952309
             2.8253937    0.23472694665786
             0.6401217    0.81375731841339
 s    1 1.00
             0.1612778                   1

31 0
 s    3 1.00
             18.731137    0.03349459952309
             2.8253937    0.23472694665786
             0.6401217    0.81375731841339
 s    1 1.00
             0.1612778                   1

32 0
 s    3 1.00
             18.731137    0.03349459952309
             2.8253937    0.23472694665786
             0.6401217    0.81375731841339
 s    1 1.00
             0.1612778                   1

33 0
 s    6 1.00
             3047.5249  0.0018347001629433
             457.36951    0.01403730124668
             103.94869   0.068842606114048
             29.210155    0.23218442062076
              9.286663    0.46794134155879
              3.163927    0.36231203217765
 s    3 1.00
             7.8682724   -0.11933240861517
             1.8812885   -0.16085421161283
             0.5442493     1.1434564825515
 s    1 1.00
             0.1687144                   1
 p    3 1.00
             7.8682724   0.068999095584993
             1.8812885    0.31642397975315
             0.5442493    0.74430825237435
 p    1 1.00
             0.1687144                   1
 d    1 1.00
                   0.8                   1

34 0
 s    6 1.00
             3047.5249  0.0018347001629433
             457.36951    0.01403730124668
             103.94869   0.068842606114048
             29.210155    0.23218442062076
              9.286663    0.46794134155879
              3.163927    0.36231203217765
 s    3 1.00
             7.8682724   -0.11933240861517
             1.8812885   -0.16085421161283
             0.5442493     1.1434564825515
 s    1 1.00
             0.1687144                   1
 p    3 1.00
             7.8682724   0.068999095584993
             1.8812885    0.31642397975315
             0.5442493    0.74430825237435
 p    1 1.00
             0.1687144                   1
 d    1 1.00
                   0.8                   1

35 0
 s    3 1.00
             18.731137    0.03349459952309
             2.8253937    0.23472694665786
             0.6401217    0.81375731841339
 s    1 1.00
             0.1612778                   1

36 0
 s    6 1.00
             3047.5249  0.0018347001629433
             457.36951    0.01403730124668
             103.94869   0.068842606114048
             29.210155    0.23218442062076
              9.286663    0.46794134155879
              3.163927    0.36231203217765
 s    3 1.00
             7.8682724   -0.11933240861517
             1.8812885   -0.16085421161283
             0.5442493     1.1434564825515
 s    1 1.00
             0.1687144                   1
 p    3 1.00
             7.8682724   0.068999095584993
             1.8812885    0.31642397975315
             0.5442493    0.74430825237435
 p    1 1.00
             0.1687144                   1
 d    1 1.00
                   0.8                   1

37 0
 s    3 1.00
             18.731137    0.03349459952309
             2.8253937    0.23472694665786
             0.6401217    0.81375731841339
 s    1 1.00
             0.1612778                   1

38 0
 s    3 1.00
             18.731137    0.03349459952309
             2.8253937    0.23472694665786
             0.6401217    0.81375731841339
 s    1 1.00
             0.1612778                   1

39 0
 s    6 1.00
             3047.5249  0.0018347001629433
             457.36951    0.01403730124668
             103.94869   0.068842606114048
             29.210155    0.23218442062076
              9.286663    0.46794134155879
              3.163927    0.36231203217765
 s    3 1.00
             7.8682724   -0.11933240861517
             1.8812885   -0.16085421161283
             0.5442493     1.1434564825515
 s    1 1.00
             0.1687144                   1
 p    3 1.00
             7.8682724   0.068999095584993
             1.8812885    0.31642397975315
             0.5442493    0.74430825237435
 p    1 1.00
             0.1687144                   1
 d    1 1.00
                   0.8                   1

40 0
 s    6 1.00
             3047.5249  0.0018347001629433
             457.36951    0.01403730124668
             103.94869   0.068842606114048
             29.210155    0.23218442062076
              9.286663    0.46794134155879
              3.163927    0.36231203217765
 s    3 1.00
             7.8682724   -0.11933240861517
             1.8812885   -0.16085421161283
             0.5442493     1.1434564825515
 s    1 1.00
             0.1687144                   1
 p    3 1.00
             7.8682724   0.068999095584993
             1.8812885    0.31642397975315
             0.5442493    0.74430825237435
 p    1 1.00
             0.1687144                   1
 d    1 1.00
                   0.8                   1

41 0
 s    3 1.00
             18.731137    0.03349459952309
             2.8253937    0.23472694665786
             0.6401217    0.81375731841339
 s    1 1.00
             0.1612778                   1

42 0
 s    6 1.00
             5484.6717   0.001831099805527
             825.23495   0.013950098518422
             188.04696    0.06844509273075
               52.9645    0.23271427528445
              16.89757    0.47019295006289
             5.7996353    0.35852086192309
 s    3 1.00
             15.539616   -0.11077750382508
             3.5999336   -0.14802630511126
             1.0137618     1.1307670390447
 s    1 1.00
             0.2700058                   1
 p    3 1.00
             15.539616   0.070874299543311
             3.5999336    0.33975279781076
             1.0137618    0.72715859531445
 p    1 1.00
             0.2700058                   1
 d    1 1.00
                   0.8                   1

43 0
 s    3 1.00
             18.731137    0.03349459952309
             2.8253937    0.23472694665786
             0.6401217    0.81375731841339
 s    1 1.00
             0.1612778                   1

[5d]
[7f]
[9g]

[MO]
 Sym= A
 Ene=               0
 Spin= Alpha
 Occup=    1.00000
   1    -4.0818551672945e-07
   2    -2.6463064116262e-05
   3    5.5961115854927e-05
   4    -1.6469677060231e-06
   5    -5.6552666880821e-06
   6    2.3692365370164e-05
   7    6.4797030241662e-06
   8    4.9374003422069e-05
   9    -0.00036490013883829
  10    2.5092792979745e-07
  11    1.1286192483093e-05
  12    3.4646758080062e-06
  13    1.4062909702243e-05
  14    -7.657327171793e-06
  15    -1.4721103020814e-05
  16    2.3775924122184e-05
  17    4.8322114692974e-06
  18    0.00017024374448188
  19    0.00050000921299726
  20    5.9891600073201e-05
  21    -6.8079572151531e-06
  22    -8.5348850442198e-05
  23    0.00016498799785342
  24    -8.1728276060896e-05
  25    -0.0007017823457201
  26    2.1570096617026e-05
  27    -2.3340806628917e-05
  28    4.6263714106218e-06
  29    4.4838535785904e-05
  30    -9.1181158109313e-06
  31    -8.3801697175685e-06
  32    2.7969160488989e-05
  33    8.1027490444682e-05
  34    0.00030713466856958
  35    -0.0047432678642154
  36    -0.00010519589779365
  37    8.0702739492723e-05
  38    0.00022847284853104
  39    -0.00025128694174124
  40    0.0020546267046322
  41    0.00072531378525286
  42    -4.142743945368e-05
  43    0.0001049901347442
  44    -8.4214660411344e-05
  45    4.0071018530601e-05
  46    3.7826993978353e-05
  47    -9.9536973035598e-06
  48    -0.0002697320232628
  49    -5.4018146311952e-05
  50    0.00031688503576597
  51    0.0039005549984792
  52    0.00025016975684046
  53    -0.00035539848883778
  54    -0.00048157412172108
  55    -0.0013716964146887
  56     0.002684948143323
  57    0.0025680639883344
  58    -2.9320540559012e-06
  59    4.7077921701868e-05
  60    0.00019612628164151
  61    1.2109000109762e-05
  62    -0.00012247156385396
  63    0.00041782937532936
  64    0.00014392609699564
  65    -2.6284975907645e-07
  66    -5.8675339196328e-07
  67    -7.0977458870498e-08
  68    -4.6743021860349e-07
  69    3.1868896089737e-06
  70    3.5188298802177e-07
  71    -4.1765767060664e-07
  72    3.9334305564365e-08
  73    3.0734476804538e-07
  74    1.2398007454511e-06
  75    4.2884632877423e-07
  76    -5.0763781645874e-08
  77     -1.3770995523e-07
  78    5.1068473633222e-08
  79    7.1596376605526e-08
  80    -1.1109170964755e-07
  81    6.4784047769227e-08
  82    -1.2366765597497e-07
  83    -4.1350096577575e-08
  84    -4.6895148621694e-08
  85    -1.1673249734767e-05
  86    4.5371158878415e-07
  87    7.5462166202592e-08
  88    6.0097504430304e-07
  89    3.3314766301552e-06
  90    -4.5369597296252e-06
  91    2.3077487860555e-06
  92    1.9561788350849e-07
  93    -3.3257371310215e-07
  94    2.4907487280881e-07
  95    5.7317781051263e-09
  96    -2.0491790148487e-07
  97    2.1797661163132e-07
  98    -2.0510757271373e-07
  99    1.6310934997752e-07
 100    -5.9595076282381e-07
 101    5.9921415338105e-08
 102    -1.4797430168061e-06
 103    1.4522581822349e-05
 104    1.4175221659521e-06
 105    7.2459647315927e-07
 106    -3.9002867395109e-07
 107    -1.8248194293532e-05
 108    1.895350481377e-05
 109    2.7562506081398e-05
 110    -5.6884814651204e-07
 111    -4.9448903024517e-07
 112    2.5581726260527e-07
 113    5.2393596138322e-07
 114    -4.6273968319191e-07
 115    -5.4154183115752e-07
 116    -4.6797981129878e-06
 117    3.6837358755125e-05
 118    -7.0380957742396e-07
 119    1.1059635089844e-06
 120    5.9615661970025e-07
 121    -7.9025338600682e-06
 122    1.9680505806976e-07
 123    1.541890218273e-06
 124    -4.1677388398881e-08
 125    -8.4331727189651e-08
 126    -1.1294024797686e-07
 127    -2.624545410047e-08
 128    -3.5731860452127e-07
 129    -8.3891908885394e-07
 130    -9.1182969634016e-06
 131    4.5273450495876e-05
 132    -4.2227793383269e-07
 133    -1.9436121037037e-06
 134    3.9438134457174e-06
 135    -2.499972048403e-05
 136    2.071853038229e-06
 137    -7.5363806111235e-05
 138    2.4632360920322e-06
 139    1.3341587125573e-06
 140    4.5530540012316e-07
 141    4.5976733002566e-07
 142    2.3939252286879e-07
 143    -5.0566461402875e-07
 144    -2.7017463910314e-06
 145    1.6848888943894e-05
 146    8.3462402261874e-07
 147    7.6432986916663e-07
 148    -3.0612357171331e-07
 149    1.0749869857074e-05
 150    -7.6670528580673e-06
 151    -1.4449582886861e-06
 152    -1.0847003856092e-06
 153    -3.016354528979e-07
 154    -3.9797972363453e-08
 155    6.7399964347759e-07
 156    -6.7898405093532e-07
 157    -7.0680582690153e-08
 158    1.0828404786145e-06
 159    2.9863440427909e-06
 160    8.2726265654559e-07
 161    -5.0365356415384e-07
 162    -2.3012424408321e-07
 163    -6.0017560428432e-06
 164    -3.3782732442718e-07
 165    7.1740892528819e-07
 166    3.3384597468647e-07
 167    -3.0996740103089e-08
 168    -3.1872935312326e-08
 169    -1.2542907750082e-07
 170    2.2757218943584e-07
 171    9.0989151429669e-08
 172    -5.5936204702369e-07
 173    -2.2575265066125e-06
 174    -9.6125877397728e-07
 175    -2.9701368274728e-07
 176    8.4469685551359e-07
 177    -5.7217622167123e-07
 178    9.5798305272384e-07
 179    -2.3475690748177e-06
 180    1.5969828053894e-07
 181    1.3863666086931e-07
 182    -2.3756317166113e-08
 183    -3.7254389438775e-07
 184    1.4958670019224e-07
 185    -2.5205326244687e-07
 186    -3.002584783605e-06
 187    1.9906245373618e-06
 188    -1.3384711516677e-07
 189    1.5798097942647e-07
 190    1.2600043301936e-06
 191    2.9492081969324e-06
 192    1.2233704850558e-06
 193    -5.4847200931156e-06
 194    3.9349751871946e-07
 195    -7.7867633153891e-08
 196    1.0549915441658e-07
 197    6.0348889188765e-08
 198    -1.0608720382566e-07
 199    -8.5572124330109e-07
 200    -1.7481289874176e-06
 201    2.4976018560782e-07
 202    3.8121066585086e-06
 203    -1.6020939189679e-06
 204    -1.7493265798308e-06
 205    -6.7164143279682e-07
 206    -3.0813989560167e-06
 207    1.8628805332648e-06
 208    -1.393041950125e-05
 209    1.1077268650762e-06
 210    -4.3353025696305e-06
 211    3.786994702561e-07
 212    2.6285539235416e-06
 213    -4.4916084553804e-07
 214    -2.8517348668878e-06
 215    -6.0284541416092e-07
 216    9.261361288147e-08
 217    5.2967462608996e-07
 218    1.5529922381584e-06
 219    1.7046719683617e-07
 220    9.8442850892856e-07
 221    -9.0731417510937e-07
 222    -7.7340300884168e-06
 223    -2.0329364819537e-06
 224    1.2773934098294e-06
 225    -3.9598531091726e-06
 226    2.3130490973044e-06
 227    1.764678101108e-05
 228    2.100197538203e-05
 229    -8.7466088936081e-05
 230    -1.3056101964662e-06
 231    -3.7067424265342e-06
 232    -2.2196025614248e-06
 233    1.6462493554516e-06
 234    2.9533770510851e-06
 235    -1.1770899561395e-06
 236    -1.4193318096753e-05
 237    4.1541065049523e-05
 238    -2.0614700534607e-06
 239    8.0538654741981e-06
 240    5.9090915472147e-06
 241    -2.4450753261473e-05
 242    -6.5635834508738e-06
 243    -0.00010001848095084
 244    2.8153298222982e-06
 245    6.9083259398194e-06
 246    2.0225635844232e-06
 247     2.44771525208e-06
 248    2.1489285580494e-06
 249    -3.3939478015865e-06
 250    1.1831297825157e-05
 251    -4.314952584886e-06
 252    -2.47750598008e-05
 253    0.00020567355432393
 254    6.6179385195249e-06
 255    -6.1448503219939e-06
 256    5.3421646380813e-06
 257    9.0763350017788e-05
 258    0.00011891775534402
 259    -0.0002342861467058
 260    6.3972151104492e-07
 261    -1.1977158408452e-05
 262    -5.7752523157701e-06
 263    6.9507397895539e-06
 264    7.4240268540968e-06
 265    -5.5151685339678e-06
 266    2.7323227762275e-05
 267    -8.8767669231241e-06
 268    4.0568766825415e-05
 269    -7.3047458965082e-05
 270    1.0539231154008e-05
 271    0.0033500266015379
 272    -0.00013253590176008
 273    -0.00025266786937401
 274    0.00013303240056791
 275    0.0021251846365539
 276    0.00062680207034798
 277    -0.0035502730289055
 278    0.00026295072456051
 279    -0.00021066262464656
 280    0.0001422767113601