[Molden Format]
made by pyscf v[2.0.1]
[Atoms] (AU)
C   1   6     0.69100024066471     0.64692934207205    -3.48223131169301
H   2   1     2.68052439830868     1.13355088658700    -3.25784032593313
C   3   6    -0.36286361513219     0.85440132524594    -5.97030179418974
H   4   1    -2.35448549047279     0.36322488579172    -6.17995817793143
C   5   6     0.93697958957450     1.61209284601821    -8.05828437677121
H   6   1    -0.10682308805726     2.30253989392639    -9.69373588628611
C   7   6     3.64263503193718     1.55467149193689    -8.23832629511906
H   8   1     4.66272936056768     0.85936926442728    -6.58433578959761
H   9   1     1.55630230933075    -1.92953025305990    12.99630010416247
C   10   6     0.75233899775814    -2.21270439606481    11.10705728102219
H   11   1    -0.43433408177274    -3.90944857546550    11.22216085340412
C   12   6     2.86362581178706    -2.63237380607947     9.17926416456045
H   13   1     4.39038949912609    -1.24955421540245     9.49899813497433
H   14   1     3.74629220191363    -4.48798724300892     9.47414880959024
C   15   6     2.02478325613682    -2.42177285709634     6.44560829588644
C   16   6     3.88048732735477    -3.58795445234514     4.61402886975252
C   17   6    -0.18412382258602    -1.30464291234259     5.76021113872346
C   18   6    -2.10044360464350    -0.26837831858460     7.71610340967100
C   19   6    -3.08956938670431     2.35282328359417     6.88693925039594
C   20   6    -4.37372924086464    -2.09766595989678     7.93610724222001
C   21   6    -0.83850430601230     0.06372213486173    10.33002307638377
H   22   1     0.38411922151109     1.74281358582432    10.27380136542181
H   23   1    -2.30980003007874     0.45460143924521    11.73986301809809
H   24   1     4.58527064644668    -5.38706904487420     5.36778158031719
H   25   1     5.54944938085014    -2.37631462192748     4.35398898413318
H   26   1     3.06633019150423    -3.94118377050688     2.75255466040884
H   27   1    -4.17727778763735     2.26573369139522     5.12914900961283
H   28   1    -1.52662344944051     3.68001877445626     6.59540397144508
H   29   1    -4.32916174397830     3.13643051467482     8.35225460090378
H   30   1    -5.32329548508442    -2.36691813602939     6.11583672749896
H   31   1    -5.77989366602257    -1.33896741843465     9.25748940450990
H   32   1    -3.79310905208926    -3.96389819310853     8.61386170102686
C   33   6    -1.01100794811226    -1.06331657314144     3.11929490449947
C   34   6     0.37686231036534    -0.33275864505552     1.09165013605873
H   35   1    -3.01671213906703    -1.40297922279997     2.77827895090944
C   36   6    -0.64382707979370    -0.11591880174385    -1.42063131251064
H   37   1     2.35569259782137     0.17174499283897     1.33641070251401
H   38   1    -2.63317482980319    -0.60229203511219    -1.66119700387645
C   39   6     5.01588399354044     2.28654094702299   -10.27677863573407
C   40   6     7.77080404832789     2.15450646451281   -10.27454889780196
H   41   1     4.11782812209845     2.99683739506263   -11.98462609656630
O   42   8     9.12060555425099     2.77825484064970   -12.03801083010553
H   43   1     8.60983853061047     1.41663292301779    -8.48800399433497
[GTO]
1 0
 s    6 1.00
             3047.5249  0.0018347001629433
             457.36951    0.01403730124668
             103.94869   0.068842606114048
             29.210155    0.23218442062076
              9.286663    0.46794134155879
              3.163927    0.36231203217765
 s    3 1.00
             7.8682724   -0.11933240861517
             1.8812885   -0.16085421161283
             0.5442493     1.1434564825515
 s    1 1.00
             0.1687144                   1
 p    3 1.00
             7.8682724   0.068999095584993
             1.8812885    0.31642397975315
             0.5442493    0.74430825237435
 p    1 1.00
             0.1687144                   1
 d    1 1.00
                   0.8                   1

2 0
 s    3 1.00
             18.731137    0.03349459952309
             2.8253937    0.23472694665786
             0.6401217    0.81375731841339
 s    1 1.00
             0.1612778                   1

3 0
 s    6 1.00
             3047.5249  0.0018347001629433
             457.36951    0.01403730124668
             103.94869   0.068842606114048
             29.210155    0.23218442062076
              9.286663    0.46794134155879
              3.163927    0.36231203217765
 s    3 1.00
             7.8682724   -0.11933240861517
             1.8812885   -0.16085421161283
             0.5442493     1.1434564825515
 s    1 1.00
             0.1687144                   1
 p    3 1.00
             7.8682724   0.068999095584993
             1.8812885    0.31642397975315
             0.5442493    0.74430825237435
 p    1 1.00
             0.1687144                   1
 d    1 1.00
                   0.8                   1

4 0
 s    3 1.00
             18.731137    0.03349459952309
             2.8253937    0.23472694665786
             0.6401217    0.81375731841339
 s    1 1.00
             0.1612778                   1

5 0
 s    6 1.00
             3047.5249  0.0018347001629433
             457.36951    0.01403730124668
             103.94869   0.068842606114048
             29.210155    0.23218442062076
              9.286663    0.46794134155879
              3.163927    0.36231203217765
 s    3 1.00
             7.8682724   -0.11933240861517
             1.8812885   -0.16085421161283
             0.5442493     1.1434564825515
 s    1 1.00
             0.1687144                   1
 p    3 1.00
             7.8682724   0.068999095584993
             1.8812885    0.31642397975315
             0.5442493    0.74430825237435
 p    1 1.00
             0.1687144                   1
 d    1 1.00
                   0.8                   1

6 0
 s    3 1.00
             18.731137    0.03349459952309
             2.8253937    0.23472694665786
             0.6401217    0.81375731841339
 s    1 1.00
             0.1612778                   1

7 0
 s    6 1.00
             3047.5249  0.0018347001629433
             457.36951    0.01403730124668
             103.94869   0.068842606114048
             29.210155    0.23218442062076
              9.286663    0.46794134155879
              3.163927    0.36231203217765
 s    3 1.00
             7.8682724   -0.11933240861517
             1.8812885   -0.16085421161283
             0.5442493     1.1434564825515
 s    1 1.00
             0.1687144                   1
 p    3 1.00
             7.8682724   0.068999095584993
             1.8812885    0.31642397975315
             0.5442493    0.74430825237435
 p    1 1.00
             0.1687144                   1
 d    1 1.00
                   0.8                   1

8 0
 s    3 1.00
             18.731137    0.03349459952309
             2.8253937    0.23472694665786
             0.6401217    0.81375731841339
 s    1 1.00
             0.1612778                   1

9 0
 s    3 1.00
             18.731137    0.03349459952309
             2.8253937    0.23472694665786
             0.6401217    0.81375731841339
 s    1 1.00
             0.1612778                   1

10 0
 s    6 1.00
             3047.5249  0.0018347001629433
             457.36951    0.01403730124668
             103.94869   0.068842606114048
             29.210155    0.23218442062076
              9.286663    0.46794134155879
              3.163927    0.36231203217765
 s    3 1.00
             7.8682724   -0.11933240861517
             1.8812885   -0.16085421161283
             0.5442493     1.1434564825515
 s    1 1.00
             0.1687144                   1
 p    3 1.00
             7.8682724   0.068999095584993
             1.8812885    0.31642397975315
             0.5442493    0.74430825237435
 p    1 1.00
             0.1687144                   1
 d    1 1.00
                   0.8                   1

11 0
 s    3 1.00
             18.731137    0.03349459952309
             2.8253937    0.23472694665786
             0.6401217    0.81375731841339
 s    1 1.00
             0.1612778                   1

12 0
 s    6 1.00
             3047.5249  0.0018347001629433
             457.36951    0.01403730124668
             103.94869   0.068842606114048
             29.210155    0.23218442062076
              9.286663    0.46794134155879
              3.163927    0.36231203217765
 s    3 1.00
             7.8682724   -0.11933240861517
             1.8812885   -0.16085421161283
             0.5442493     1.1434564825515
 s    1 1.00
             0.1687144                   1
 p    3 1.00
             7.8682724   0.068999095584993
             1.8812885    0.31642397975315
             0.5442493    0.74430825237435
 p    1 1.00
             0.1687144                   1
 d    1 1.00
                   0.8                   1

13 0
 s    3 1.00
             18.731137    0.03349459952309
             2.8253937    0.23472694665786
             0.6401217    0.81375731841339
 s    1 1.00
             0.1612778                   1

14 0
 s    3 1.00
             18.731137    0.03349459952309
             2.8253937    0.23472694665786
             0.6401217    0.81375731841339
 s    1 1.00
             0.1612778                   1

15 0
 s    6 1.00
             3047.5249  0.0018347001629433
             457.36951    0.01403730124668
             103.94869   0.068842606114048
             29.210155    0.23218442062076
              9.286663    0.46794134155879
              3.163927    0.36231203217765
 s    3 1.00
             7.8682724   -0.11933240861517
             1.8812885   -0.16085421161283
             0.5442493     1.1434564825515
 s    1 1.00
             0.1687144                   1
 p    3 1.00
             7.8682724   0.068999095584993
             1.8812885    0.31642397975315
             0.5442493    0.74430825237435
 p    1 1.00
             0.1687144                   1
 d    1 1.00
                   0.8                   1

16 0
 s    6 1.00
             3047.5249  0.0018347001629433
             457.36951    0.01403730124668
             103.94869   0.068842606114048
             29.210155    0.23218442062076
              9.286663    0.46794134155879
              3.163927    0.36231203217765
 s    3 1.00
             7.8682724   -0.11933240861517
             1.8812885   -0.16085421161283
             0.5442493     1.1434564825515
 s    1 1.00
             0.1687144                   1
 p    3 1.00
             7.8682724   0.068999095584993
             1.8812885    0.31642397975315
             0.5442493    0.74430825237435
 p    1 1.00
             0.1687144                   1
 d    1 1.00
                   0.8                   1

17 0
 s    6 1.00
             3047.5249  0.0018347001629433
             457.36951    0.01403730124668
             103.94869   0.068842606114048
             29.210155    0.23218442062076
              9.286663    0.46794134155879
              3.163927    0.36231203217765
 s    3 1.00
             7.8682724   -0.11933240861517
             1.8812885   -0.16085421161283
             0.5442493     1.1434564825515
 s    1 1.00
             0.1687144                   1
 p    3 1.00
             7.8682724   0.068999095584993
             1.8812885    0.31642397975315
             0.5442493    0.74430825237435
 p    1 1.00
             0.1687144                   1
 d    1 1.00
                   0.8                   1

18 0
 s    6 1.00
             3047.5249  0.0018347001629433
             457.36951    0.01403730124668
             103.94869   0.068842606114048
             29.210155    0.23218442062076
              9.286663    0.46794134155879
              3.163927    0.36231203217765
 s    3 1.00
             7.8682724   -0.11933240861517
             1.8812885   -0.16085421161283
             0.5442493     1.1434564825515
 s    1 1.00
             0.1687144                   1
 p    3 1.00
             7.8682724   0.068999095584993
             1.8812885    0.31642397975315
             0.5442493    0.74430825237435
 p    1 1.00
             0.1687144                   1
 d    1 1.00
                   0.8                   1

19 0
 s    6 1.00
             3047.5249  0.0018347001629433
             457.36951    0.01403730124668
             103.94869   0.068842606114048
             29.210155    0.23218442062076
              9.286663    0.46794134155879
              3.163927    0.36231203217765
 s    3 1.00
             7.8682724   -0.11933240861517
             1.8812885   -0.16085421161283
             0.5442493     1.1434564825515
 s    1 1.00
             0.1687144                   1
 p    3 1.00
             7.8682724   0.068999095584993
             1.8812885    0.31642397975315
             0.5442493    0.74430825237435
 p    1 1.00
             0.1687144                   1
 d    1 1.00
                   0.8                   1

20 0
 s    6 1.00
             3047.5249  0.0018347001629433
             457.36951    0.01403730124668
             103.94869   0.068842606114048
             29.210155    0.23218442062076
              9.286663    0.46794134155879
              3.163927    0.36231203217765
 s    3 1.00
             7.8682724   -0.11933240861517
             1.8812885   -0.16085421161283
             0.5442493     1.1434564825515
 s    1 1.00
             0.1687144                   1
 p    3 1.00
             7.8682724   0.068999095584993
             1.8812885    0.31642397975315
             0.5442493    0.74430825237435
 p    1 1.00
             0.1687144                   1
 d    1 1.00
                   0.8                   1

21 0
 s    6 1.00
             3047.5249  0.0018347001629433
             457.36951    0.01403730124668
             103.94869   0.068842606114048
             29.210155    0.23218442062076
              9.286663    0.46794134155879
              3.163927    0.36231203217765
 s    3 1.00
             7.8682724   -0.11933240861517
             1.8812885   -0.16085421161283
             0.5442493     1.1434564825515
 s    1 1.00
             0.1687144                   1
 p    3 1.00
             7.8682724   0.068999095584993
             1.8812885    0.31642397975315
             0.5442493    0.74430825237435
 p    1 1.00
             0.1687144                   1
 d    1 1.00
                   0.8                   1

22 0
 s    3 1.00
             18.731137    0.03349459952309
             2.8253937    0.23472694665786
             0.6401217    0.81375731841339
 s    1 1.00
             0.1612778                   1

23 0
 s    3 1.00
             18.731137    0.03349459952309
             2.8253937    0.23472694665786
             0.6401217    0.81375731841339
 s    1 1.00
             0.1612778                   1

24 0
 s    3 1.00
             18.731137    0.03349459952309
             2.8253937    0.23472694665786
             0.6401217    0.81375731841339
 s    1 1.00
             0.1612778                   1

25 0
 s    3 1.00
             18.731137    0.03349459952309
             2.8253937    0.23472694665786
             0.6401217    0.81375731841339
 s    1 1.00
             0.1612778                   1

26 0
 s    3 1.00
             18.731137    0.03349459952309
             2.8253937    0.23472694665786
             0.6401217    0.81375731841339
 s    1 1.00
             0.1612778                   1

27 0
 s    3 1.00
             18.731137    0.03349459952309
             2.8253937    0.23472694665786
             0.6401217    0.81375731841339
 s    1 1.00
             0.1612778                   1

28 0
 s    3 1.00
             18.731137    0.03349459952309
             2.8253937    0.23472694665786
             0.6401217    0.81375731841339
 s    1 1.00
             0.1612778                   1

29 0
 s    3 1.00
             18.731137    0.03349459952309
             2.8253937    0.23472694665786
             0.6401217    0.81375731841339
 s    1 1.00
             0.1612778                   1

30 0
 s    3 1.00
             18.731137    0.03349459952309
             2.8253937    0.23472694665786
             0.6401217    0.81375731841339
 s    1 1.00
             0.1612778                   1

31 0
 s    3 1.00
             18.731137    0.03349459952309
             2.8253937    0.23472694665786
             0.6401217    0.81375731841339
 s    1 1.00
             0.1612778                   1

32 0
 s    3 1.00
             18.731137    0.03349459952309
             2.8253937    0.23472694665786
             0.6401217    0.81375731841339
 s    1 1.00
             0.1612778                   1

33 0
 s    6 1.00
             3047.5249  0.0018347001629433
             457.36951    0.01403730124668
             103.94869   0.068842606114048
             29.210155    0.23218442062076
              9.286663    0.46794134155879
              3.163927    0.36231203217765
 s    3 1.00
             7.8682724   -0.11933240861517
             1.8812885   -0.16085421161283
             0.5442493     1.1434564825515
 s    1 1.00
             0.1687144                   1
 p    3 1.00
             7.8682724   0.068999095584993
             1.8812885    0.31642397975315
             0.5442493    0.74430825237435
 p    1 1.00
             0.1687144                   1
 d    1 1.00
                   0.8                   1

34 0
 s    6 1.00
             3047.5249  0.0018347001629433
             457.36951    0.01403730124668
             103.94869   0.068842606114048
             29.210155    0.23218442062076
              9.286663    0.46794134155879
              3.163927    0.36231203217765
 s    3 1.00
             7.8682724   -0.11933240861517
             1.8812885   -0.16085421161283
             0.5442493     1.1434564825515
 s    1 1.00
             0.1687144                   1
 p    3 1.00
             7.8682724   0.068999095584993
             1.8812885    0.31642397975315
             0.5442493    0.74430825237435
 p    1 1.00
             0.1687144                   1
 d    1 1.00
                   0.8                   1

35 0
 s    3 1.00
             18.731137    0.03349459952309
             2.8253937    0.23472694665786
             0.6401217    0.81375731841339
 s    1 1.00
             0.1612778                   1

36 0
 s    6 1.00
             3047.5249  0.0018347001629433
             457.36951    0.01403730124668
             103.94869   0.068842606114048
             29.210155    0.23218442062076
              9.286663    0.46794134155879
              3.163927    0.36231203217765
 s    3 1.00
             7.8682724   -0.11933240861517
             1.8812885   -0.16085421161283
             0.5442493     1.1434564825515
 s    1 1.00
             0.1687144                   1
 p    3 1.00
             7.8682724   0.068999095584993
             1.8812885    0.31642397975315
             0.5442493    0.74430825237435
 p    1 1.00
             0.1687144                   1
 d    1 1.00
                   0.8                   1

37 0
 s    3 1.00
             18.731137    0.03349459952309
             2.8253937    0.23472694665786
             0.6401217    0.81375731841339
 s    1 1.00
             0.1612778                   1

38 0
 s    3 1.00
             18.731137    0.03349459952309
             2.8253937    0.23472694665786
             0.6401217    0.81375731841339
 s    1 1.00
             0.1612778                   1

39 0
 s    6 1.00
             3047.5249  0.0018347001629433
             457.36951    0.01403730124668
             103.94869   0.068842606114048
             29.210155    0.23218442062076
              9.286663    0.46794134155879
              3.163927    0.36231203217765
 s    3 1.00
             7.8682724   -0.11933240861517
             1.8812885   -0.16085421161283
             0.5442493     1.1434564825515
 s    1 1.00
             0.1687144                   1
 p    3 1.00
             7.8682724   0.068999095584993
             1.8812885    0.31642397975315
             0.5442493    0.74430825237435
 p    1 1.00
             0.1687144                   1
 d    1 1.00
                   0.8                   1

40 0
 s    6 1.00
             3047.5249  0.0018347001629433
             457.36951    0.01403730124668
             103.94869   0.068842606114048
             29.210155    0.23218442062076
              9.286663    0.46794134155879
              3.163927    0.36231203217765
 s    3 1.00
             7.8682724   -0.11933240861517
             1.8812885   -0.16085421161283
             0.5442493     1.1434564825515
 s    1 1.00
             0.1687144                   1
 p    3 1.00
             7.8682724   0.068999095584993
             1.8812885    0.31642397975315
             0.5442493    0.74430825237435
 p    1 1.00
             0.1687144                   1
 d    1 1.00
                   0.8                   1

41 0
 s    3 1.00
             18.731137    0.03349459952309
             2.8253937    0.23472694665786
             0.6401217    0.81375731841339
 s    1 1.00
             0.1612778                   1

42 0
 s    6 1.00
             5484.6717   0.001831099805527
             825.23495   0.013950098518422
             188.04696    0.06844509273075
               52.9645    0.23271427528445
              16.89757    0.47019295006289
             5.7996353    0.35852086192309
 s    3 1.00
             15.539616   -0.11077750382508
             3.5999336   -0.14802630511126
             1.0137618     1.1307670390447
 s    1 1.00
             0.2700058                   1
 p    3 1.00
             15.539616   0.070874299543311
             3.5999336    0.33975279781076
             1.0137618    0.72715859531445
 p    1 1.00
             0.2700058                   1
 d    1 1.00
                   0.8                   1

43 0
 s    3 1.00
             18.731137    0.03349459952309
             2.8253937    0.23472694665786
             0.6401217    0.81375731841339
 s    1 1.00
             0.1612778                   1

[5d]
[7f]
[9g]

[MO]
 Sym= A
 Ene=               0
 Spin= Alpha
 Occup=    1.00000
   1    -1.3962017486517e-05
   2    -9.9903938744912e-05
   3    0.0013569329058468
   4    -3.7337298989996e-05
   5    1.673900879931e-05
   6    1.9861531070248e-05
   7    -4.2766617485655e-05
   8    0.0001085350198915
   9    -0.001333859685492
  10    4.0997927106389e-05
  11    4.0855013572092e-05
  12    5.1641535864948e-06
  13    4.7930489317163e-06
  14    -1.301638818674e-06
  15    -4.0251665804005e-05
  16    2.1805375534833e-06
  17    3.1119994624826e-05
  18    0.00015182641371178
  19    -0.0028417146056635
  20    -2.8435403951652e-05
  21    -2.0127425740333e-05
  22    8.7226118905906e-05
  23    -0.0018162013534303
  24    -0.00017950927878461
  25    -0.00045525407663558
  26    -4.9827476837764e-05
  27    2.7003015788941e-05
  28    3.7131191165253e-06
  29    -2.8433097769898e-05
  30    -2.8074506671386e-05
  31    -6.0401703892904e-05
  32    -0.00038206739089359
  33    -9.5274598599711e-05
  34    -0.00037666757730062
  35    0.0060693952639409
  36    0.00020249665087464
  37    3.2121176042096e-05
  38    -8.512701681237e-05
  39    0.0028131605862678
  40    -0.0006270903533815
  41    0.0015427201189703
  42    -2.2083143921725e-05
  43    -5.0003731332468e-05
  44    -4.4926221078741e-05
  45    0.00016390162470879
  46    -6.3460555377839e-06
  47    5.6057971899645e-05
  48    0.0005511776350746
  49    6.031481924654e-05
  50    -0.00028420252453425
  51    -0.0046164421224544
  52    -0.00064259054195331
  53    -1.3121881640954e-06
  54    0.0001105273633852
  55    0.0047533304841316
  56    -0.0002163097421574
  57    -0.00020794485598282
  58    0.00020710779542173
  59    -2.8533933199706e-05
  60    -0.00010645279732149
  61    -0.00012135200503295
  62    2.5280505502241e-05
  63    -0.00038728388608549
  64    -0.00032300931656871
  65    -3.4912091817713e-07
  66    1.5927031280179e-06
  67    -8.7184312640342e-08
  68    -9.9186603999951e-07
  69    -1.0462294283521e-06
  70    6.6430533211518e-07
  71    -9.8225164363765e-07
  72    7.1748583704547e-08
  73    2.6063603498671e-06
  74    2.4624435623685e-06
  75    -1.11059160512e-06
  76    3.4125285361946e-07
  77    2.1148458497898e-07
  78    9.2502452312009e-08
  79    1.7132305778024e-07
  80    2.141898401301e-07
  81    2.9768708216146e-07
  82    1.8782087949984e-06
  83    3.1785425349235e-07
  84    2.6620148672384e-06
  85    3.7329775437196e-06
  86    -2.2516372327863e-07
  87    9.4051594672558e-07
  88    4.7155199101951e-08
  89    2.7952879186244e-06
  90    -1.1098938165232e-05
  91    -4.7767413346042e-06
  92    -1.6301858457815e-07
  93    -2.2997022525248e-07
  94    7.9055221776931e-07
  95    -4.7897599768925e-07
  96    1.2866162008254e-07
  97    1.4965450916181e-06
  98    2.5520681772676e-06
  99    -1.2019128072125e-06
 100    -3.0425211777735e-06
 101    -7.9469227084916e-07
 102    -3.6864183979937e-06
 103    8.9125954595669e-05
 104    -2.7714992803349e-06
 105    -7.2633442752566e-07
 106    -9.8983522264552e-07
 107    -2.1854858594356e-05
 108    2.4650854771993e-05
 109    -4.186749673893e-05
 110    6.4968029584164e-07
 111    1.6724165362879e-06
 112    -7.1511610630685e-07
 113    -2.0378402546815e-08
 114    -1.1841021196139e-06
 115    3.3992706098693e-07
 116    3.1239743137475e-06
 117    -1.8765695730269e-05
 118    1.651239934006e-07
 119    1.6063130467705e-06
 120    -1.6386884285096e-06
 121    1.137612091754e-05
 122    -1.8104776213631e-05
 123    4.6019300789499e-06
 124    7.836318900652e-07
 125    -1.2694189227804e-07
 126    -1.2199901044373e-06
 127    -5.6394696469727e-07
 128    2.292389699534e-07
 129    1.0988452256416e-06
 130     5.60414019639e-06
 131    -3.4554679777116e-05
 132    4.9513264821063e-06
 133    -1.1902221679532e-06
 134    -2.5107519588003e-06
 135    -0.00010468259013119
 136    2.0132186805056e-05
 137    6.2191778865855e-05
 138    -2.157061572626e-06
 139    -3.395432031898e-07
 140    2.7209936485945e-06
 141    -2.6861117152376e-07
 142    2.6859351052071e-06
 143    6.7274488038784e-07
 144    3.5657644870606e-06
 145    -7.2976459966944e-05
 146    5.7876622137436e-07
 147    1.1822407056395e-08
 148    5.3316659832444e-06
 149    -3.5722282436704e-05
 150    3.6543736549596e-05
 151    -1.845880825976e-05
 152    -4.0511325999887e-07
 153    1.7394743213981e-07
 154    -1.9457285120756e-06
 155    -6.9402549981383e-07
 156    1.3343223124483e-08
 157    7.1621381657915e-07
 158    5.9995599601394e-06
 159    -3.2023798160168e-05
 160    8.4092677022754e-07
 161    4.0846310642386e-07
 162    -7.6195808478823e-07
 163    -6.1174096396952e-06
 164    1.2677654121763e-05
 165    4.2041743581566e-06
 166    6.3121178783557e-07
 167    7.5786184990733e-08
 168    -2.3007922463524e-08
 169    8.2901849337964e-07
 170    2.0607221882139e-07
 171    -2.4195963680871e-08
 172    -6.3607571686696e-07
 173    7.9991282676172e-08
 174    -1.0471117872294e-06
 175    -3.1655972000852e-08
 176    2.0410402281705e-06
 177    1.6254530231521e-05
 178    -5.8079012211445e-07
 179    3.247113904484e-06
 180    -1.9119900797732e-07
 181    1.5892551970789e-06
 182    -2.181761363652e-07
 183    1.1139425702756e-06
 184    1.1411643714619e-06
 185    -6.4870257394274e-07
 186    -4.7305491428895e-06
 187    3.7481646265192e-05
 188    -1.2588882189149e-06
 189    -3.5628633478081e-07
 190    -1.5259003009063e-06
 191    -3.8332405620531e-06
 192    -8.4603286021077e-06
 193    -1.6307729905678e-05
 194    8.3623080859972e-07
 195    1.0322487256827e-06
 196    1.1632447824161e-06
 197    -6.725632737052e-07
 198    5.9439005198065e-07
 199    -1.7609940935634e-06
 200    1.2440271010438e-06
 201    -6.5927122030964e-07
 202    -1.0568998850687e-06
 203    -1.288454804062e-06
 204    -7.6512133007148e-06
 205    3.1377465343908e-06
 206    6.0189356701066e-08
 207    3.1513448330633e-06
 208    -5.2095355303041e-07
 209    2.2041341561884e-06
 210    3.9213339702375e-06
 211    1.5137830587079e-06
 212    2.7563359285709e-06
 213     8.57950703424e-07
 214    -3.9181802061416e-06
 215    -3.6751188300323e-06
 216    1.9096479564527e-05
 217    1.246853622983e-06
 218    3.2888970180043e-06
 219    9.0093695849899e-08
 220    -4.2179236159498e-06
 221    -5.0327509917449e-06
 222    -3.1299288941733e-05
 223    0.00043185642987825
 224    3.2883196790434e-06
 225    6.3093873605657e-06
 226    -6.2873795653046e-06
 227    0.00012575582398947
 228    5.3421920365344e-05
 229    -0.00020196714385267
 230    8.3095194821625e-06
 231    -7.2346877340358e-06
 232    -7.5539583579105e-06
 233    3.489759861877e-06
 234    3.2795955857728e-06
 235    5.1701232483512e-06
 236    2.441329937753e-05
 237    -0.00067928773305703
 238    -8.1158001365868e-06
 239    -9.6635253591119e-06
 240    2.3452105521634e-05
 241    0.00026366330599287
 242    7.6425370005535e-05
 243    -6.4849158590332e-05
 244    -1.2280143975259e-05
 245    7.1308363421318e-06
 246    8.5227728781002e-06
 247    -5.3451081176521e-07
 248    3.1764444852226e-08
 249    -2.6912056627294e-06
 250    -1.274858995801e-05
 251    -3.0718353854939e-06
 252    -1.4983812709304e-05
 253    0.0005841662979986
 254    -8.1561865350926e-06
 255    -4.0359051896901e-06
 256    -2.9786644013729e-05
 257    0.00035728730793357
 258    9.5297254092611e-05
 259    0.00026283422208358
 260    4.3732377289168e-06
 261    1.9528804684594e-06
 262    -6.7741191745043e-06
 263    3.5056669295657e-07
 264    9.1085713245482e-06
 265    -2.0116998399507e-05
 266    -5.6667787893722e-06
 267    2.598662488438e-05
 268    0.00011599288427254
 269    7.5159788541689e-05
 270    3.0968466650005e-06
 271    -0.0036190611722702
 272    -2.1239211492864e-05
 273    0.00010319733307709
 274    -0.00029025435318271
 275    -0.0028619833225516
 276    -0.00098029556676736
 277    0.0029071764852256
 278    0.00012888619495157
 279    0.00035268361831563
 280    -4.3168775093357e-05