[Molden Format]
made by pyscf v[2.0.1]
[Atoms] (AU)
C   1   6     0.69100024066471     0.64692934207205    -3.48223131169301
H   2   1     2.68052439830868     1.13355088658700    -3.25784032593313
C   3   6    -0.36286361513219     0.85440132524594    -5.97030179418974
H   4   1    -2.35448549047279     0.36322488579172    -6.17995817793143
C   5   6     0.93697958957450     1.61209284601821    -8.05828437677121
H   6   1     0.01358296644616     2.85086245433209    -9.41980240085128
C   7   6     3.49095983212942     0.86501358647737    -8.58301400036413
H   8   1     4.39173101664678    -0.37544723242066    -7.20113468241566
H   9   1     1.55630230933075    -1.92953025305990    12.99630010416247
C   10   6     0.75233899775814    -2.21270439606481    11.10705728102219
H   11   1    -0.43433408177274    -3.90944857546550    11.22216085340412
C   12   6     2.86362581178706    -2.63237380607947     9.17926416456045
H   13   1     4.39038949912609    -1.24955421540245     9.49899813497433
H   14   1     3.74629220191363    -4.48798724300892     9.47414880959024
C   15   6     2.02478325613682    -2.42177285709634     6.44560829588644
C   16   6     3.88048732735477    -3.58795445234514     4.61402886975252
C   17   6    -0.18412382258602    -1.30464291234259     5.76021113872346
C   18   6    -2.10044360464350    -0.26837831858460     7.71610340967100
C   19   6    -3.08956938670431     2.35282328359417     6.88693925039594
C   20   6    -4.37372924086464    -2.09766595989678     7.93610724222001
C   21   6    -0.83850430601230     0.06372213486173    10.33002307638377
H   22   1     0.38411922151109     1.74281358582432    10.27380136542181
H   23   1    -2.30980003007874     0.45460143924521    11.73986301809809
H   24   1     4.58527064644668    -5.38706904487420     5.36778158031719
H   25   1     5.54944938085014    -2.37631462192748     4.35398898413318
H   26   1     3.06633019150423    -3.94118377050688     2.75255466040884
H   27   1    -4.17727778763735     2.26573369139522     5.12914900961283
H   28   1    -1.52662344944051     3.68001877445626     6.59540397144508
H   29   1    -4.32916174397830     3.13643051467482     8.35225460090378
H   30   1    -5.32329548508442    -2.36691813602939     6.11583672749896
H   31   1    -5.77989366602257    -1.33896741843465     9.25748940450990
H   32   1    -3.79310905208926    -3.96389819310853     8.61386170102686
C   33   6    -1.01100794811226    -1.06331657314144     3.11929490449947
C   34   6     0.37686231036534    -0.33275864505552     1.09165013605873
H   35   1    -3.01671213906703    -1.40297922279997     2.77827895090944
C   36   6    -0.64382707979370    -0.11591880174385    -1.42063131251064
H   37   1     2.35569259782137     0.17174499283897     1.33641070251401
H   38   1    -2.63317482980319    -0.60229203511219    -1.66119700387645
C   39   6     4.85727779250226     1.56932506344372   -10.63578143211247
C   40   6     7.45078580641309     0.70440198785573   -10.99998857146552
H   41   1     4.07326566832422     2.80126406203857   -12.08333786763668
O   42   8     8.78463246786107     1.26137953491899   -12.79761289932761
H   43   1     8.17650804893433    -0.55247504818230    -9.47232163774676
[GTO]
1 0
 s    6 1.00
             3047.5249  0.0018347001629433
             457.36951    0.01403730124668
             103.94869   0.068842606114048
             29.210155    0.23218442062076
              9.286663    0.46794134155879
              3.163927    0.36231203217765
 s    3 1.00
             7.8682724   -0.11933240861517
             1.8812885   -0.16085421161283
             0.5442493     1.1434564825515
 s    1 1.00
             0.1687144                   1
 p    3 1.00
             7.8682724   0.068999095584993
             1.8812885    0.31642397975315
             0.5442493    0.74430825237435
 p    1 1.00
             0.1687144                   1
 d    1 1.00
                   0.8                   1

2 0
 s    3 1.00
             18.731137    0.03349459952309
             2.8253937    0.23472694665786
             0.6401217    0.81375731841339
 s    1 1.00
             0.1612778                   1

3 0
 s    6 1.00
             3047.5249  0.0018347001629433
             457.36951    0.01403730124668
             103.94869   0.068842606114048
             29.210155    0.23218442062076
              9.286663    0.46794134155879
              3.163927    0.36231203217765
 s    3 1.00
             7.8682724   -0.11933240861517
             1.8812885   -0.16085421161283
             0.5442493     1.1434564825515
 s    1 1.00
             0.1687144                   1
 p    3 1.00
             7.8682724   0.068999095584993
             1.8812885    0.31642397975315
             0.5442493    0.74430825237435
 p    1 1.00
             0.1687144                   1
 d    1 1.00
                   0.8                   1

4 0
 s    3 1.00
             18.731137    0.03349459952309
             2.8253937    0.23472694665786
             0.6401217    0.81375731841339
 s    1 1.00
             0.1612778                   1

5 0
 s    6 1.00
             3047.5249  0.0018347001629433
             457.36951    0.01403730124668
             103.94869   0.068842606114048
             29.210155    0.23218442062076
              9.286663    0.46794134155879
              3.163927    0.36231203217765
 s    3 1.00
             7.8682724   -0.11933240861517
             1.8812885   -0.16085421161283
             0.5442493     1.1434564825515
 s    1 1.00
             0.1687144                   1
 p    3 1.00
             7.8682724   0.068999095584993
             1.8812885    0.31642397975315
             0.5442493    0.74430825237435
 p    1 1.00
             0.1687144                   1
 d    1 1.00
                   0.8                   1

6 0
 s    3 1.00
             18.731137    0.03349459952309
             2.8253937    0.23472694665786
             0.6401217    0.81375731841339
 s    1 1.00
             0.1612778                   1

7 0
 s    6 1.00
             3047.5249  0.0018347001629433
             457.36951    0.01403730124668
             103.94869   0.068842606114048
             29.210155    0.23218442062076
              9.286663    0.46794134155879
              3.163927    0.36231203217765
 s    3 1.00
             7.8682724   -0.11933240861517
             1.8812885   -0.16085421161283
             0.5442493     1.1434564825515
 s    1 1.00
             0.1687144                   1
 p    3 1.00
             7.8682724   0.068999095584993
             1.8812885    0.31642397975315
             0.5442493    0.74430825237435
 p    1 1.00
             0.1687144                   1
 d    1 1.00
                   0.8                   1

8 0
 s    3 1.00
             18.731137    0.03349459952309
             2.8253937    0.23472694665786
             0.6401217    0.81375731841339
 s    1 1.00
             0.1612778                   1

9 0
 s    3 1.00
             18.731137    0.03349459952309
             2.8253937    0.23472694665786
             0.6401217    0.81375731841339
 s    1 1.00
             0.1612778                   1

10 0
 s    6 1.00
             3047.5249  0.0018347001629433
             457.36951    0.01403730124668
             103.94869   0.068842606114048
             29.210155    0.23218442062076
              9.286663    0.46794134155879
              3.163927    0.36231203217765
 s    3 1.00
             7.8682724   -0.11933240861517
             1.8812885   -0.16085421161283
             0.5442493     1.1434564825515
 s    1 1.00
             0.1687144                   1
 p    3 1.00
             7.8682724   0.068999095584993
             1.8812885    0.31642397975315
             0.5442493    0.74430825237435
 p    1 1.00
             0.1687144                   1
 d    1 1.00
                   0.8                   1

11 0
 s    3 1.00
             18.731137    0.03349459952309
             2.8253937    0.23472694665786
             0.6401217    0.81375731841339
 s    1 1.00
             0.1612778                   1

12 0
 s    6 1.00
             3047.5249  0.0018347001629433
             457.36951    0.01403730124668
             103.94869   0.068842606114048
             29.210155    0.23218442062076
              9.286663    0.46794134155879
              3.163927    0.36231203217765
 s    3 1.00
             7.8682724   -0.11933240861517
             1.8812885   -0.16085421161283
             0.5442493     1.1434564825515
 s    1 1.00
             0.1687144                   1
 p    3 1.00
             7.8682724   0.068999095584993
             1.8812885    0.31642397975315
             0.5442493    0.74430825237435
 p    1 1.00
             0.1687144                   1
 d    1 1.00
                   0.8                   1

13 0
 s    3 1.00
             18.731137    0.03349459952309
             2.8253937    0.23472694665786
             0.6401217    0.81375731841339
 s    1 1.00
             0.1612778                   1

14 0
 s    3 1.00
             18.731137    0.03349459952309
             2.8253937    0.23472694665786
             0.6401217    0.81375731841339
 s    1 1.00
             0.1612778                   1

15 0
 s    6 1.00
             3047.5249  0.0018347001629433
             457.36951    0.01403730124668
             103.94869   0.068842606114048
             29.210155    0.23218442062076
              9.286663    0.46794134155879
              3.163927    0.36231203217765
 s    3 1.00
             7.8682724   -0.11933240861517
             1.8812885   -0.16085421161283
             0.5442493     1.1434564825515
 s    1 1.00
             0.1687144                   1
 p    3 1.00
             7.8682724   0.068999095584993
             1.8812885    0.31642397975315
             0.5442493    0.74430825237435
 p    1 1.00
             0.1687144                   1
 d    1 1.00
                   0.8                   1

16 0
 s    6 1.00
             3047.5249  0.0018347001629433
             457.36951    0.01403730124668
             103.94869   0.068842606114048
             29.210155    0.23218442062076
              9.286663    0.46794134155879
              3.163927    0.36231203217765
 s    3 1.00
             7.8682724   -0.11933240861517
             1.8812885   -0.16085421161283
             0.5442493     1.1434564825515
 s    1 1.00
             0.1687144                   1
 p    3 1.00
             7.8682724   0.068999095584993
             1.8812885    0.31642397975315
             0.5442493    0.74430825237435
 p    1 1.00
             0.1687144                   1
 d    1 1.00
                   0.8                   1

17 0
 s    6 1.00
             3047.5249  0.0018347001629433
             457.36951    0.01403730124668
             103.94869   0.068842606114048
             29.210155    0.23218442062076
              9.286663    0.46794134155879
              3.163927    0.36231203217765
 s    3 1.00
             7.8682724   -0.11933240861517
             1.8812885   -0.16085421161283
             0.5442493     1.1434564825515
 s    1 1.00
             0.1687144                   1
 p    3 1.00
             7.8682724   0.068999095584993
             1.8812885    0.31642397975315
             0.5442493    0.74430825237435
 p    1 1.00
             0.1687144                   1
 d    1 1.00
                   0.8                   1

18 0
 s    6 1.00
             3047.5249  0.0018347001629433
             457.36951    0.01403730124668
             103.94869   0.068842606114048
             29.210155    0.23218442062076
              9.286663    0.46794134155879
              3.163927    0.36231203217765
 s    3 1.00
             7.8682724   -0.11933240861517
             1.8812885   -0.16085421161283
             0.5442493     1.1434564825515
 s    1 1.00
             0.1687144                   1
 p    3 1.00
             7.8682724   0.068999095584993
             1.8812885    0.31642397975315
             0.5442493    0.74430825237435
 p    1 1.00
             0.1687144                   1
 d    1 1.00
                   0.8                   1

19 0
 s    6 1.00
             3047.5249  0.0018347001629433
             457.36951    0.01403730124668
             103.94869   0.068842606114048
             29.210155    0.23218442062076
              9.286663    0.46794134155879
              3.163927    0.36231203217765
 s    3 1.00
             7.8682724   -0.11933240861517
             1.8812885   -0.16085421161283
             0.5442493     1.1434564825515
 s    1 1.00
             0.1687144                   1
 p    3 1.00
             7.8682724   0.068999095584993
             1.8812885    0.31642397975315
             0.5442493    0.74430825237435
 p    1 1.00
             0.1687144                   1
 d    1 1.00
                   0.8                   1

20 0
 s    6 1.00
             3047.5249  0.0018347001629433
             457.36951    0.01403730124668
             103.94869   0.068842606114048
             29.210155    0.23218442062076
              9.286663    0.46794134155879
              3.163927    0.36231203217765
 s    3 1.00
             7.8682724   -0.11933240861517
             1.8812885   -0.16085421161283
             0.5442493     1.1434564825515
 s    1 1.00
             0.1687144                   1
 p    3 1.00
             7.8682724   0.068999095584993
             1.8812885    0.31642397975315
             0.5442493    0.74430825237435
 p    1 1.00
             0.1687144                   1
 d    1 1.00
                   0.8                   1

21 0
 s    6 1.00
             3047.5249  0.0018347001629433
             457.36951    0.01403730124668
             103.94869   0.068842606114048
             29.210155    0.23218442062076
              9.286663    0.46794134155879
              3.163927    0.36231203217765
 s    3 1.00
             7.8682724   -0.11933240861517
             1.8812885   -0.16085421161283
             0.5442493     1.1434564825515
 s    1 1.00
             0.1687144                   1
 p    3 1.00
             7.8682724   0.068999095584993
             1.8812885    0.31642397975315
             0.5442493    0.74430825237435
 p    1 1.00
             0.1687144                   1
 d    1 1.00
                   0.8                   1

22 0
 s    3 1.00
             18.731137    0.03349459952309
             2.8253937    0.23472694665786
             0.6401217    0.81375731841339
 s    1 1.00
             0.1612778                   1

23 0
 s    3 1.00
             18.731137    0.03349459952309
             2.8253937    0.23472694665786
             0.6401217    0.81375731841339
 s    1 1.00
             0.1612778                   1

24 0
 s    3 1.00
             18.731137    0.03349459952309
             2.8253937    0.23472694665786
             0.6401217    0.81375731841339
 s    1 1.00
             0.1612778                   1

25 0
 s    3 1.00
             18.731137    0.03349459952309
             2.8253937    0.23472694665786
             0.6401217    0.81375731841339
 s    1 1.00
             0.1612778                   1

26 0
 s    3 1.00
             18.731137    0.03349459952309
             2.8253937    0.23472694665786
             0.6401217    0.81375731841339
 s    1 1.00
             0.1612778                   1

27 0
 s    3 1.00
             18.731137    0.03349459952309
             2.8253937    0.23472694665786
             0.6401217    0.81375731841339
 s    1 1.00
             0.1612778                   1

28 0
 s    3 1.00
             18.731137    0.03349459952309
             2.8253937    0.23472694665786
             0.6401217    0.81375731841339
 s    1 1.00
             0.1612778                   1

29 0
 s    3 1.00
             18.731137    0.03349459952309
             2.8253937    0.23472694665786
             0.6401217    0.81375731841339
 s    1 1.00
             0.1612778                   1

30 0
 s    3 1.00
             18.731137    0.03349459952309
             2.8253937    0.23472694665786
             0.6401217    0.81375731841339
 s    1 1.00
             0.1612778                   1

31 0
 s    3 1.00
             18.731137    0.03349459952309
             2.8253937    0.23472694665786
             0.6401217    0.81375731841339
 s    1 1.00
             0.1612778                   1

32 0
 s    3 1.00
             18.731137    0.03349459952309
             2.8253937    0.23472694665786
             0.6401217    0.81375731841339
 s    1 1.00
             0.1612778                   1

33 0
 s    6 1.00
             3047.5249  0.0018347001629433
             457.36951    0.01403730124668
             103.94869   0.068842606114048
             29.210155    0.23218442062076
              9.286663    0.46794134155879
              3.163927    0.36231203217765
 s    3 1.00
             7.8682724   -0.11933240861517
             1.8812885   -0.16085421161283
             0.5442493     1.1434564825515
 s    1 1.00
             0.1687144                   1
 p    3 1.00
             7.8682724   0.068999095584993
             1.8812885    0.31642397975315
             0.5442493    0.74430825237435
 p    1 1.00
             0.1687144                   1
 d    1 1.00
                   0.8                   1

34 0
 s    6 1.00
             3047.5249  0.0018347001629433
             457.36951    0.01403730124668
             103.94869   0.068842606114048
             29.210155    0.23218442062076
              9.286663    0.46794134155879
              3.163927    0.36231203217765
 s    3 1.00
             7.8682724   -0.11933240861517
             1.8812885   -0.16085421161283
             0.5442493     1.1434564825515
 s    1 1.00
             0.1687144                   1
 p    3 1.00
             7.8682724   0.068999095584993
             1.8812885    0.31642397975315
             0.5442493    0.74430825237435
 p    1 1.00
             0.1687144                   1
 d    1 1.00
                   0.8                   1

35 0
 s    3 1.00
             18.731137    0.03349459952309
             2.8253937    0.23472694665786
             0.6401217    0.81375731841339
 s    1 1.00
             0.1612778                   1

36 0
 s    6 1.00
             3047.5249  0.0018347001629433
             457.36951    0.01403730124668
             103.94869   0.068842606114048
             29.210155    0.23218442062076
              9.286663    0.46794134155879
              3.163927    0.36231203217765
 s    3 1.00
             7.8682724   -0.11933240861517
             1.8812885   -0.16085421161283
             0.5442493     1.1434564825515
 s    1 1.00
             0.1687144                   1
 p    3 1.00
             7.8682724   0.068999095584993
             1.8812885    0.31642397975315
             0.5442493    0.74430825237435
 p    1 1.00
             0.1687144                   1
 d    1 1.00
                   0.8                   1

37 0
 s    3 1.00
             18.731137    0.03349459952309
             2.8253937    0.23472694665786
             0.6401217    0.81375731841339
 s    1 1.00
             0.1612778                   1

38 0
 s    3 1.00
             18.731137    0.03349459952309
             2.8253937    0.23472694665786
             0.6401217    0.81375731841339
 s    1 1.00
             0.1612778                   1

39 0
 s    6 1.00
             3047.5249  0.0018347001629433
             457.36951    0.01403730124668
             103.94869   0.068842606114048
             29.210155    0.23218442062076
              9.286663    0.46794134155879
              3.163927    0.36231203217765
 s    3 1.00
             7.8682724   -0.11933240861517
             1.8812885   -0.16085421161283
             0.5442493     1.1434564825515
 s    1 1.00
             0.1687144                   1
 p    3 1.00
             7.8682724   0.068999095584993
             1.8812885    0.31642397975315
             0.5442493    0.74430825237435
 p    1 1.00
             0.1687144                   1
 d    1 1.00
                   0.8                   1

40 0
 s    6 1.00
             3047.5249  0.0018347001629433
             457.36951    0.01403730124668
             103.94869   0.068842606114048
             29.210155    0.23218442062076
              9.286663    0.46794134155879
              3.163927    0.36231203217765
 s    3 1.00
             7.8682724   -0.11933240861517
             1.8812885   -0.16085421161283
             0.5442493     1.1434564825515
 s    1 1.00
             0.1687144                   1
 p    3 1.00
             7.8682724   0.068999095584993
             1.8812885    0.31642397975315
             0.5442493    0.74430825237435
 p    1 1.00
             0.1687144                   1
 d    1 1.00
                   0.8                   1

41 0
 s    3 1.00
             18.731137    0.03349459952309
             2.8253937    0.23472694665786
             0.6401217    0.81375731841339
 s    1 1.00
             0.1612778                   1

42 0
 s    6 1.00
             5484.6717   0.001831099805527
             825.23495   0.013950098518422
             188.04696    0.06844509273075
               52.9645    0.23271427528445
              16.89757    0.47019295006289
             5.7996353    0.35852086192309
 s    3 1.00
             15.539616   -0.11077750382508
             3.5999336   -0.14802630511126
             1.0137618     1.1307670390447
 s    1 1.00
             0.2700058                   1
 p    3 1.00
             15.539616   0.070874299543311
             3.5999336    0.33975279781076
             1.0137618    0.72715859531445
 p    1 1.00
             0.2700058                   1
 d    1 1.00
                   0.8                   1

43 0
 s    3 1.00
             18.731137    0.03349459952309
             2.8253937    0.23472694665786
             0.6401217    0.81375731841339
 s    1 1.00
             0.1612778                   1

[5d]
[7f]
[9g]

[MO]
 Sym= A
 Ene=               0
 Spin= Alpha
 Occup=    1.00000
   1    7.4122589721841e-06
   2    6.465711931631e-05
   3    -0.00087066520901593
   4    2.3997683102952e-05
   5    -2.9241584273384e-05
   6    -1.0412241211007e-05
   7    5.6063856529598e-05
   8    7.6669671691725e-05
   9    0.00054230109750555
  10    -2.3702342398815e-05
  11    -1.7820758503638e-05
  12    -6.8234748758518e-06
  13    2.3077028980958e-06
  14    -3.7289750489279e-06
  15    1.2667915434874e-05
  16    2.8536692734208e-05
  17    -1.5463087520988e-05
  18    -2.0395128513759e-05
  19    0.0017301080764416
  20    4.6037021270682e-05
  21    1.7628122901049e-05
  22    -7.7605121817394e-05
  23    0.0010890791719528
  24    -2.9060075520747e-05
  25    4.8569346659001e-05
  26    3.8186566704033e-05
  27    -2.6759675101849e-05
  28    1.4376004299342e-05
  29    2.7291968487336e-05
  30    2.7057844745058e-05
  31    2.0789903200231e-05
  32    0.00019810354623248
  33    8.4989550313253e-05
  34    0.00031045607580207
  35    -0.005189477791671
  36    -0.00021313450766755
  37    8.1368711288407e-06
  38    0.00010754457714673
  39    -0.0021650935023936
  40    0.0012650142677881
  41    -0.00076594838577461
  42    2.5833503970769e-05
  43    7.9681666942154e-05
  44    2.7748708097334e-05
  45    -0.00011478271607921
  46    7.5221624923009e-05
  47    -2.9591375885372e-05
  48    -0.00038467598265151
  49    -5.6643362328321e-05
  50    0.00030450537860358
  51    0.0042503293381691
  52    0.00060419299431041
  53    -0.00014719284988979
  54    -0.00017695112160135
  55    -0.0039559041737479
  56    0.0013573777685529
  57    0.00059192742867154
  58    -0.00016102768254558
  59    9.8436771227995e-06
  60    0.00013902554435387
  61    0.00010048503626022
  62    -7.1629648269433e-05
  63    0.00041005798308858
  64    0.00022766142184238
  65    1.4000064417364e-07
  66    -1.0248582782746e-06
  67    1.0285774318517e-08
  68    2.8000323997347e-07
  69    1.6907919081873e-06
  70    -2.2466546700444e-07
  71    3.707815752181e-07
  72    6.0389693593929e-08
  73    -1.3101503893398e-06
  74    -9.617457394797e-07
  75    3.4116153567036e-07
  76    -2.2103342801126e-07
  77    -1.8498922512287e-07
  78    -4.1542517871116e-08
  79    -8.7002476447813e-08
  80    -1.9203419663149e-07
  81    -1.2956651650735e-07
  82    -1.1788584565732e-06
  83    -2.0772409108793e-07
  84    -1.760777892029e-06
  85    -1.0657711719165e-05
  86    4.742919720296e-07
  87    -6.9705083612284e-07
  88    3.9302202475258e-07
  89    -1.4836066850663e-07
  90    4.6911057599365e-06
  91    5.2314652520605e-06
  92    1.8578474105016e-07
  93    -1.8579025217209e-08
  94    -2.959025942086e-07
  95    3.274336657666e-07
  96    -2.0027569480634e-07
  97    -7.1856493154148e-07
  98    -1.7453040233542e-06
  99    9.0458528323842e-07
 100    1.7220408121444e-06
 101    5.7381108492193e-07
 102    2.1612343827589e-06
 103    -5.2495281066957e-05
 104    2.5598593465467e-06
 105    6.9210085255232e-07
 106    1.0502674111616e-07
 107    4.8384807585148e-06
 108    -4.1950925542605e-06
 109    4.5802743027181e-05
 110    -6.4660837025703e-07
 111    -1.3195613591804e-06
 112    5.5880069273298e-07
 113    -7.7571174348383e-08
 114    4.1495801775418e-07
 115    -4.1007943069626e-07
 116    -3.691384661113e-06
 117    2.9078474711414e-05
 118    -4.4731510105602e-07
 119    -5.6980459601742e-07
 120    1.4530210775501e-06
 121    -1.2660343525468e-05
 122    1.2782441434348e-05
 123    5.9522908169354e-07
 124    -5.5687064049183e-07
 125    -1.3919728371697e-07
 126    7.6722165547203e-07
 127    5.0983379054223e-07
 128    -4.212708253428e-07
 129    -1.1496057826451e-06
 130    -7.4630147353839e-06
 131    5.9634323817745e-05
 132    -2.9500253547369e-06
 133    1.1096350956461e-06
 134    2.864555036975e-06
 135    5.2020117604162e-05
 136    -1.8021053841643e-05
 137    -8.8547066777094e-05
 138    2.729497018365e-06
 139    1.2088217552387e-06
 140    -1.3722759554571e-06
 141    4.2711099929699e-07
 142    -1.6149469843378e-06
 143    -8.4626400413717e-07
 144    -5.3423471394898e-06
 145    6.2005456394576e-05
 146    -1.6493008820138e-07
 147    -1.8316434469001e-07
 148    -3.0805811311115e-06
 149     3.11857560577e-05
 150    -2.1149624913314e-05
 151    5.5694773660494e-06
 152    -1.8829263264903e-07
 153    -3.6758759255602e-07
 154    9.9104029726001e-07
 155    7.7004144021796e-07
 156    -6.168878447541e-07
 157    -3.6654253951549e-07
 158    -2.6113802121996e-06
 159    1.5564774393676e-05
 160    -2.308994800014e-07
 161    -1.8773175453415e-07
 162    1.8901240218236e-08
 163    -1.2389494317288e-06
 164    -5.7609192411671e-06
 165    -1.8637059342851e-06
 166    2.0752780116841e-09
 167    -2.9972887816048e-07
 168    5.7003211256221e-08
 169    -5.0859222718845e-07
 170    1.5093123489049e-07
 171    3.443402571488e-08
 172    1.3475111500165e-07
 173    2.4559237181652e-07
 174    2.5918638872881e-07
 175    -1.7101138151284e-07
 176    -8.0031442144639e-07
 177    -8.7233214706457e-06
 178    1.9900736765971e-06
 179    -1.7879477518533e-06
 180    1.2140077582156e-07
 181    -8.1649953187156e-07
 182    2.1629324797053e-07
 183    -8.0622179484523e-07
 184    -5.1551857295726e-07
 185    2.4995728526943e-07
 186    1.1514339898067e-06
 187    -2.1707174168665e-05
 188    6.6560151911635e-07
 189    2.8476787546318e-07
 190    1.7151399642401e-06
 191    3.2374376022171e-06
 192    4.4727034843943e-06
 193    7.6254519049199e-06
 194    -4.3889210805679e-07
 195    -6.3108709522353e-07
 196    -4.2993303458499e-07
 197    4.8248522834813e-07
 198    -4.0616958207123e-07
 199    6.9144076608577e-07
 200    -1.0565213037122e-06
 201    4.7393767572113e-07
 202    2.5078227494008e-06
 203    2.1378993459753e-07
 204    4.4650005760101e-06
 205    -2.1826458072073e-06
 206    -9.2964951249664e-07
 207    -2.0363270053555e-06
 208    -1.2265425820613e-06
 209    -4.1917321973893e-07
 210    -4.8144427848696e-06
 211    -3.84655614563e-07
 212    9.8255323427449e-08
 213    -7.3011776133699e-07
 214    8.0298472370184e-07
 215    1.736744427486e-06
 216    -9.3138338025214e-06
 217    -5.6864514343071e-07
 218    -1.5138004528316e-06
 219    1.7823232416788e-07
 220    2.8472860989182e-06
 221    2.5491853823147e-06
 222    1.4412290863561e-05
 223    -0.00026259972794404
 224    9.0246886117402e-10
 225    -7.1717714932483e-06
 226    5.5299106171708e-06
 227    -8.1611907380246e-05
 228    -1.6016587886836e-05
 229    5.2353828495751e-05
 230    -5.2393263476664e-06
 231    1.6432634530899e-06
 232    3.4872427129703e-06
 233    -1.0965016467196e-06
 234    -6.3955703705722e-07
 235    -2.8677617618661e-06
 236    -1.6241767028864e-05
 237    0.00035960149373057
 238    3.7388669329344e-06
 239    8.3354867585828e-06
 240    -1.0189859906873e-05
 241    -0.0001526065439137
 242    -4.3608458437459e-05
 243    2.7960047692975e-05
 244    5.6907419251663e-06
 245    -1.2594728923068e-06
 246    -5.2579213210016e-06
 247    1.7120860353777e-06
 248    -5.6586372030413e-07
 249    -2.1299788406955e-06
 250    6.5545898178873e-06
 251    -1.0885036769284e-06
 252    -1.2078072532978e-05
 253    -0.00010194209990592
 254    2.4159765636878e-06
 255    5.2173121563559e-06
 256    1.9335063334142e-05
 257    -9.7200386460527e-05
 258    -2.4522413858935e-05
 259    -0.000272849728928
 260    1.0176639214387e-06
 261    -8.4908549372801e-06
 262    2.7818762365228e-06
 263    6.1322827724413e-06
 264    -5.5584906424971e-06
 265    1.1085711625173e-05
 266    1.0951713232846e-05
 267    -1.7503481228732e-05
 268    -3.9696766818221e-05
 269    -7.2732418081465e-05
 270    1.243130571664e-05
 271    0.0033405308472363
 272    2.6994771553871e-05
 273    -0.00015585738881088
 274    0.00026669923364997
 275    0.0026933941273345
 276    0.0008407405894233
 277    -0.0031722246389495
 278    -4.1618989415328e-05
 279    -0.00034083679512404
 280    0.00013054664646486