[Molden Format]
made by pyscf v[2.0.1]
[Atoms] (AU)
C   1   6     0.69100024066471     0.64692934207205    -3.48223131169301
H   2   1     2.68052439830868     1.13355088658700    -3.25784032593313
C   3   6    -0.36286361513219     0.85440132524594    -5.97030179418974
H   4   1    -2.35448549047279     0.36322488579172    -6.17995817793143
C   5   6     0.93697958957450     1.61209284601821    -8.05828437677121
H   6   1     0.50725181311820     3.44287068169954    -8.89764684313250
C   7   6     2.86970100877903     0.12057508237944    -9.23991306333710
H   8   1     3.28022106466413    -1.70875314533660    -8.37692190559989
H   9   1     1.55630230933075    -1.92953025305990    12.99630010416247
C   10   6     0.75233899775814    -2.21270439606481    11.10705728102219
H   11   1    -0.43433408177274    -3.90944857546550    11.22216085340412
C   12   6     2.86362581178706    -2.63237380607947     9.17926416456045
H   13   1     4.39038949912609    -1.24955421540245     9.49899813497433
H   14   1     3.74629220191363    -4.48798724300892     9.47414880959024
C   15   6     2.02478325613682    -2.42177285709634     6.44560829588644
C   16   6     3.88048732735477    -3.58795445234514     4.61402886975252
C   17   6    -0.18412382258602    -1.30464291234259     5.76021113872346
C   18   6    -2.10044360464350    -0.26837831858460     7.71610340967100
C   19   6    -3.08956938670431     2.35282328359417     6.88693925039594
C   20   6    -4.37372924086464    -2.09766595989678     7.93610724222001
C   21   6    -0.83850430601230     0.06372213486173    10.33002307638377
H   22   1     0.38411922151109     1.74281358582432    10.27380136542181
H   23   1    -2.30980003007874     0.45460143924521    11.73986301809809
H   24   1     4.58527064644668    -5.38706904487420     5.36778158031719
H   25   1     5.54944938085014    -2.37631462192748     4.35398898413318
H   26   1     3.06633019150423    -3.94118377050688     2.75255466040884
H   27   1    -4.17727778763735     2.26573369139522     5.12914900961283
H   28   1    -1.52662344944051     3.68001877445626     6.59540397144508
H   29   1    -4.32916174397830     3.13643051467482     8.35225460090378
H   30   1    -5.32329548508442    -2.36691813602939     6.11583672749896
H   31   1    -5.77989366602257    -1.33896741843465     9.25748940450990
H   32   1    -3.79310905208926    -3.96389819310853     8.61386170102686
C   33   6    -1.01100794811226    -1.06331657314144     3.11929490449947
C   34   6     0.37686231036534    -0.33275864505552     1.09165013605873
H   35   1    -3.01671213906703    -1.40297922279997     2.77827895090944
C   36   6    -0.64382707979370    -0.11591880174385    -1.42063131251064
H   37   1     2.35569259782137     0.17174499283897     1.33641070251401
H   38   1    -2.63317482980319    -0.60229203511219    -1.66119700387645
C   39   6     4.20991814769739     0.79575668965015   -11.31949989075694
C   40   6     6.14288813089389    -0.86010693489370   -12.38193355267250
H   41   1     3.89481568247576     2.59125541029260   -12.27063769452772
O   42   8     7.41472391465697    -0.37430332261595   -14.24398959848541
H   43   1     6.40229959564941    -2.67780216203268   -11.34807250251721
[GTO]
1 0
 s    6 1.00
             3047.5249  0.0018347001629433
             457.36951    0.01403730124668
             103.94869   0.068842606114048
             29.210155    0.23218442062076
              9.286663    0.46794134155879
              3.163927    0.36231203217765
 s    3 1.00
             7.8682724   -0.11933240861517
             1.8812885   -0.16085421161283
             0.5442493     1.1434564825515
 s    1 1.00
             0.1687144                   1
 p    3 1.00
             7.8682724   0.068999095584993
             1.8812885    0.31642397975315
             0.5442493    0.74430825237435
 p    1 1.00
             0.1687144                   1
 d    1 1.00
                   0.8                   1

2 0
 s    3 1.00
             18.731137    0.03349459952309
             2.8253937    0.23472694665786
             0.6401217    0.81375731841339
 s    1 1.00
             0.1612778                   1

3 0
 s    6 1.00
             3047.5249  0.0018347001629433
             457.36951    0.01403730124668
             103.94869   0.068842606114048
             29.210155    0.23218442062076
              9.286663    0.46794134155879
              3.163927    0.36231203217765
 s    3 1.00
             7.8682724   -0.11933240861517
             1.8812885   -0.16085421161283
             0.5442493     1.1434564825515
 s    1 1.00
             0.1687144                   1
 p    3 1.00
             7.8682724   0.068999095584993
             1.8812885    0.31642397975315
             0.5442493    0.74430825237435
 p    1 1.00
             0.1687144                   1
 d    1 1.00
                   0.8                   1

4 0
 s    3 1.00
             18.731137    0.03349459952309
             2.8253937    0.23472694665786
             0.6401217    0.81375731841339
 s    1 1.00
             0.1612778                   1

5 0
 s    6 1.00
             3047.5249  0.0018347001629433
             457.36951    0.01403730124668
             103.94869   0.068842606114048
             29.210155    0.23218442062076
              9.286663    0.46794134155879
              3.163927    0.36231203217765
 s    3 1.00
             7.8682724   -0.11933240861517
             1.8812885   -0.16085421161283
             0.5442493     1.1434564825515
 s    1 1.00
             0.1687144                   1
 p    3 1.00
             7.8682724   0.068999095584993
             1.8812885    0.31642397975315
             0.5442493    0.74430825237435
 p    1 1.00
             0.1687144                   1
 d    1 1.00
                   0.8                   1

6 0
 s    3 1.00
             18.731137    0.03349459952309
             2.8253937    0.23472694665786
             0.6401217    0.81375731841339
 s    1 1.00
             0.1612778                   1

7 0
 s    6 1.00
             3047.5249  0.0018347001629433
             457.36951    0.01403730124668
             103.94869   0.068842606114048
             29.210155    0.23218442062076
              9.286663    0.46794134155879
              3.163927    0.36231203217765
 s    3 1.00
             7.8682724   -0.11933240861517
             1.8812885   -0.16085421161283
             0.5442493     1.1434564825515
 s    1 1.00
             0.1687144                   1
 p    3 1.00
             7.8682724   0.068999095584993
             1.8812885    0.31642397975315
             0.5442493    0.74430825237435
 p    1 1.00
             0.1687144                   1
 d    1 1.00
                   0.8                   1

8 0
 s    3 1.00
             18.731137    0.03349459952309
             2.8253937    0.23472694665786
             0.6401217    0.81375731841339
 s    1 1.00
             0.1612778                   1

9 0
 s    3 1.00
             18.731137    0.03349459952309
             2.8253937    0.23472694665786
             0.6401217    0.81375731841339
 s    1 1.00
             0.1612778                   1

10 0
 s    6 1.00
             3047.5249  0.0018347001629433
             457.36951    0.01403730124668
             103.94869   0.068842606114048
             29.210155    0.23218442062076
              9.286663    0.46794134155879
              3.163927    0.36231203217765
 s    3 1.00
             7.8682724   -0.11933240861517
             1.8812885   -0.16085421161283
             0.5442493     1.1434564825515
 s    1 1.00
             0.1687144                   1
 p    3 1.00
             7.8682724   0.068999095584993
             1.8812885    0.31642397975315
             0.5442493    0.74430825237435
 p    1 1.00
             0.1687144                   1
 d    1 1.00
                   0.8                   1

11 0
 s    3 1.00
             18.731137    0.03349459952309
             2.8253937    0.23472694665786
             0.6401217    0.81375731841339
 s    1 1.00
             0.1612778                   1

12 0
 s    6 1.00
             3047.5249  0.0018347001629433
             457.36951    0.01403730124668
             103.94869   0.068842606114048
             29.210155    0.23218442062076
              9.286663    0.46794134155879
              3.163927    0.36231203217765
 s    3 1.00
             7.8682724   -0.11933240861517
             1.8812885   -0.16085421161283
             0.5442493     1.1434564825515
 s    1 1.00
             0.1687144                   1
 p    3 1.00
             7.8682724   0.068999095584993
             1.8812885    0.31642397975315
             0.5442493    0.74430825237435
 p    1 1.00
             0.1687144                   1
 d    1 1.00
                   0.8                   1

13 0
 s    3 1.00
             18.731137    0.03349459952309
             2.8253937    0.23472694665786
             0.6401217    0.81375731841339
 s    1 1.00
             0.1612778                   1

14 0
 s    3 1.00
             18.731137    0.03349459952309
             2.8253937    0.23472694665786
             0.6401217    0.81375731841339
 s    1 1.00
             0.1612778                   1

15 0
 s    6 1.00
             3047.5249  0.0018347001629433
             457.36951    0.01403730124668
             103.94869   0.068842606114048
             29.210155    0.23218442062076
              9.286663    0.46794134155879
              3.163927    0.36231203217765
 s    3 1.00
             7.8682724   -0.11933240861517
             1.8812885   -0.16085421161283
             0.5442493     1.1434564825515
 s    1 1.00
             0.1687144                   1
 p    3 1.00
             7.8682724   0.068999095584993
             1.8812885    0.31642397975315
             0.5442493    0.74430825237435
 p    1 1.00
             0.1687144                   1
 d    1 1.00
                   0.8                   1

16 0
 s    6 1.00
             3047.5249  0.0018347001629433
             457.36951    0.01403730124668
             103.94869   0.068842606114048
             29.210155    0.23218442062076
              9.286663    0.46794134155879
              3.163927    0.36231203217765
 s    3 1.00
             7.8682724   -0.11933240861517
             1.8812885   -0.16085421161283
             0.5442493     1.1434564825515
 s    1 1.00
             0.1687144                   1
 p    3 1.00
             7.8682724   0.068999095584993
             1.8812885    0.31642397975315
             0.5442493    0.74430825237435
 p    1 1.00
             0.1687144                   1
 d    1 1.00
                   0.8                   1

17 0
 s    6 1.00
             3047.5249  0.0018347001629433
             457.36951    0.01403730124668
             103.94869   0.068842606114048
             29.210155    0.23218442062076
              9.286663    0.46794134155879
              3.163927    0.36231203217765
 s    3 1.00
             7.8682724   -0.11933240861517
             1.8812885   -0.16085421161283
             0.5442493     1.1434564825515
 s    1 1.00
             0.1687144                   1
 p    3 1.00
             7.8682724   0.068999095584993
             1.8812885    0.31642397975315
             0.5442493    0.74430825237435
 p    1 1.00
             0.1687144                   1
 d    1 1.00
                   0.8                   1

18 0
 s    6 1.00
             3047.5249  0.0018347001629433
             457.36951    0.01403730124668
             103.94869   0.068842606114048
             29.210155    0.23218442062076
              9.286663    0.46794134155879
              3.163927    0.36231203217765
 s    3 1.00
             7.8682724   -0.11933240861517
             1.8812885   -0.16085421161283
             0.5442493     1.1434564825515
 s    1 1.00
             0.1687144                   1
 p    3 1.00
             7.8682724   0.068999095584993
             1.8812885    0.31642397975315
             0.5442493    0.74430825237435
 p    1 1.00
             0.1687144                   1
 d    1 1.00
                   0.8                   1

19 0
 s    6 1.00
             3047.5249  0.0018347001629433
             457.36951    0.01403730124668
             103.94869   0.068842606114048
             29.210155    0.23218442062076
              9.286663    0.46794134155879
              3.163927    0.36231203217765
 s    3 1.00
             7.8682724   -0.11933240861517
             1.8812885   -0.16085421161283
             0.5442493     1.1434564825515
 s    1 1.00
             0.1687144                   1
 p    3 1.00
             7.8682724   0.068999095584993
             1.8812885    0.31642397975315
             0.5442493    0.74430825237435
 p    1 1.00
             0.1687144                   1
 d    1 1.00
                   0.8                   1

20 0
 s    6 1.00
             3047.5249  0.0018347001629433
             457.36951    0.01403730124668
             103.94869   0.068842606114048
             29.210155    0.23218442062076
              9.286663    0.46794134155879
              3.163927    0.36231203217765
 s    3 1.00
             7.8682724   -0.11933240861517
             1.8812885   -0.16085421161283
             0.5442493     1.1434564825515
 s    1 1.00
             0.1687144                   1
 p    3 1.00
             7.8682724   0.068999095584993
             1.8812885    0.31642397975315
             0.5442493    0.74430825237435
 p    1 1.00
             0.1687144                   1
 d    1 1.00
                   0.8                   1

21 0
 s    6 1.00
             3047.5249  0.0018347001629433
             457.36951    0.01403730124668
             103.94869   0.068842606114048
             29.210155    0.23218442062076
              9.286663    0.46794134155879
              3.163927    0.36231203217765
 s    3 1.00
             7.8682724   -0.11933240861517
             1.8812885   -0.16085421161283
             0.5442493     1.1434564825515
 s    1 1.00
             0.1687144                   1
 p    3 1.00
             7.8682724   0.068999095584993
             1.8812885    0.31642397975315
             0.5442493    0.74430825237435
 p    1 1.00
             0.1687144                   1
 d    1 1.00
                   0.8                   1

22 0
 s    3 1.00
             18.731137    0.03349459952309
             2.8253937    0.23472694665786
             0.6401217    0.81375731841339
 s    1 1.00
             0.1612778                   1

23 0
 s    3 1.00
             18.731137    0.03349459952309
             2.8253937    0.23472694665786
             0.6401217    0.81375731841339
 s    1 1.00
             0.1612778                   1

24 0
 s    3 1.00
             18.731137    0.03349459952309
             2.8253937    0.23472694665786
             0.6401217    0.81375731841339
 s    1 1.00
             0.1612778                   1

25 0
 s    3 1.00
             18.731137    0.03349459952309
             2.8253937    0.23472694665786
             0.6401217    0.81375731841339
 s    1 1.00
             0.1612778                   1

26 0
 s    3 1.00
             18.731137    0.03349459952309
             2.8253937    0.23472694665786
             0.6401217    0.81375731841339
 s    1 1.00
             0.1612778                   1

27 0
 s    3 1.00
             18.731137    0.03349459952309
             2.8253937    0.23472694665786
             0.6401217    0.81375731841339
 s    1 1.00
             0.1612778                   1

28 0
 s    3 1.00
             18.731137    0.03349459952309
             2.8253937    0.23472694665786
             0.6401217    0.81375731841339
 s    1 1.00
             0.1612778                   1

29 0
 s    3 1.00
             18.731137    0.03349459952309
             2.8253937    0.23472694665786
             0.6401217    0.81375731841339
 s    1 1.00
             0.1612778                   1

30 0
 s    3 1.00
             18.731137    0.03349459952309
             2.8253937    0.23472694665786
             0.6401217    0.81375731841339
 s    1 1.00
             0.1612778                   1

31 0
 s    3 1.00
             18.731137    0.03349459952309
             2.8253937    0.23472694665786
             0.6401217    0.81375731841339
 s    1 1.00
             0.1612778                   1

32 0
 s    3 1.00
             18.731137    0.03349459952309
             2.8253937    0.23472694665786
             0.6401217    0.81375731841339
 s    1 1.00
             0.1612778                   1

33 0
 s    6 1.00
             3047.5249  0.0018347001629433
             457.36951    0.01403730124668
             103.94869   0.068842606114048
             29.210155    0.23218442062076
              9.286663    0.46794134155879
              3.163927    0.36231203217765
 s    3 1.00
             7.8682724   -0.11933240861517
             1.8812885   -0.16085421161283
             0.5442493     1.1434564825515
 s    1 1.00
             0.1687144                   1
 p    3 1.00
             7.8682724   0.068999095584993
             1.8812885    0.31642397975315
             0.5442493    0.74430825237435
 p    1 1.00
             0.1687144                   1
 d    1 1.00
                   0.8                   1

34 0
 s    6 1.00
             3047.5249  0.0018347001629433
             457.36951    0.01403730124668
             103.94869   0.068842606114048
             29.210155    0.23218442062076
              9.286663    0.46794134155879
              3.163927    0.36231203217765
 s    3 1.00
             7.8682724   -0.11933240861517
             1.8812885   -0.16085421161283
             0.5442493     1.1434564825515
 s    1 1.00
             0.1687144                   1
 p    3 1.00
             7.8682724   0.068999095584993
             1.8812885    0.31642397975315
             0.5442493    0.74430825237435
 p    1 1.00
             0.1687144                   1
 d    1 1.00
                   0.8                   1

35 0
 s    3 1.00
             18.731137    0.03349459952309
             2.8253937    0.23472694665786
             0.6401217    0.81375731841339
 s    1 1.00
             0.1612778                   1

36 0
 s    6 1.00
             3047.5249  0.0018347001629433
             457.36951    0.01403730124668
             103.94869   0.068842606114048
             29.210155    0.23218442062076
              9.286663    0.46794134155879
              3.163927    0.36231203217765
 s    3 1.00
             7.8682724   -0.11933240861517
             1.8812885   -0.16085421161283
             0.5442493     1.1434564825515
 s    1 1.00
             0.1687144                   1
 p    3 1.00
             7.8682724   0.068999095584993
             1.8812885    0.31642397975315
             0.5442493    0.74430825237435
 p    1 1.00
             0.1687144                   1
 d    1 1.00
                   0.8                   1

37 0
 s    3 1.00
             18.731137    0.03349459952309
             2.8253937    0.23472694665786
             0.6401217    0.81375731841339
 s    1 1.00
             0.1612778                   1

38 0
 s    3 1.00
             18.731137    0.03349459952309
             2.8253937    0.23472694665786
             0.6401217    0.81375731841339
 s    1 1.00
             0.1612778                   1

39 0
 s    6 1.00
             3047.5249  0.0018347001629433
             457.36951    0.01403730124668
             103.94869   0.068842606114048
             29.210155    0.23218442062076
              9.286663    0.46794134155879
              3.163927    0.36231203217765
 s    3 1.00
             7.8682724   -0.11933240861517
             1.8812885   -0.16085421161283
             0.5442493     1.1434564825515
 s    1 1.00
             0.1687144                   1
 p    3 1.00
             7.8682724   0.068999095584993
             1.8812885    0.31642397975315
             0.5442493    0.74430825237435
 p    1 1.00
             0.1687144                   1
 d    1 1.00
                   0.8                   1

40 0
 s    6 1.00
             3047.5249  0.0018347001629433
             457.36951    0.01403730124668
             103.94869   0.068842606114048
             29.210155    0.23218442062076
              9.286663    0.46794134155879
              3.163927    0.36231203217765
 s    3 1.00
             7.8682724   -0.11933240861517
             1.8812885   -0.16085421161283
             0.5442493     1.1434564825515
 s    1 1.00
             0.1687144                   1
 p    3 1.00
             7.8682724   0.068999095584993
             1.8812885    0.31642397975315
             0.5442493    0.74430825237435
 p    1 1.00
             0.1687144                   1
 d    1 1.00
                   0.8                   1

41 0
 s    3 1.00
             18.731137    0.03349459952309
             2.8253937    0.23472694665786
             0.6401217    0.81375731841339
 s    1 1.00
             0.1612778                   1

42 0
 s    6 1.00
             5484.6717   0.001831099805527
             825.23495   0.013950098518422
             188.04696    0.06844509273075
               52.9645    0.23271427528445
              16.89757    0.47019295006289
             5.7996353    0.35852086192309
 s    3 1.00
             15.539616   -0.11077750382508
             3.5999336   -0.14802630511126
             1.0137618     1.1307670390447
 s    1 1.00
             0.2700058                   1
 p    3 1.00
             15.539616   0.070874299543311
             3.5999336    0.33975279781076
             1.0137618    0.72715859531445
 p    1 1.00
             0.2700058                   1
 d    1 1.00
                   0.8                   1

43 0
 s    3 1.00
             18.731137    0.03349459952309
             2.8253937    0.23472694665786
             0.6401217    0.81375731841339
 s    1 1.00
             0.1612778                   1

[5d]
[7f]
[9g]

[MO]
 Sym= A
 Ene=               0
 Spin= Alpha
 Occup=    1.00000
   1    6.6815406231675e-07
   2    -7.0077584359889e-06
   3    0.00025092027876966
   4    -4.0556785444373e-06
   5    2.857738620306e-05
   6    -3.3425969470979e-06
   7    -8.4250085181733e-05
   8    -0.00016695379924773
   9    0.00021971650359129
  10    4.2070641758789e-06
  11    -4.3091585540988e-06
  12    2.4903273465482e-06
  13    -1.2130912954581e-05
  14    7.6683326865378e-06
  15    9.7189108531936e-06
  16    3.0155856255864e-06
  17    -9.9691828071787e-07
  18    -0.00013537401888355
  19    -0.00071142038976753
  20    -6.5275752429649e-05
  21    -7.5782811914292e-06
  22    7.8470874657833e-05
  23    -0.00039614192183739
  24    0.00013832819665575
  25    0.00043802303544968
  26    -2.5460502436734e-05
  27    2.4913495949902e-05
  28    -1.8887881450399e-05
  29    -3.6537491432656e-05
  30    -1.5951485930193e-05
  31    1.4988236215756e-05
  32    -5.4369406680187e-05
  33    -8.1106901165033e-05
  34    -0.00030408197020242
  35    0.0047309517391325
  36    0.00019174087418693
  37    -5.8402743510962e-05
  38    -0.0001635694554538
  39     0.001261611142953
  40    -0.0018669729569233
  41    -6.4773440271266e-05
  42    -9.7136669795966e-06
  43    -0.00011456471039344
  44    2.4994215196438e-05
  45    2.1304353173161e-05
  46    -9.5559646347069e-05
  47    1.521961990226e-05
  48    0.0002878429581265
  49    5.4545669469259e-05
  50    -0.00031627656700595
  51    -0.0039642478656761
  52    -0.00047439752075199
  53    0.00030238077174532
  54    0.00031810933909862
  55    0.0027891940951924
  56    -0.0023735477065176
  57    -0.0015570384230439
  58    8.475404981606e-05
  59    -1.1981389050415e-05
  60    -0.00017951179201109
  61    -6.1202413588977e-05
  62    0.00011225732032251
  63    -0.00041882524408683
  64    -0.00015317760909717
  65    1.5702162659933e-07
  66    6.6766224234377e-07
  67    6.2867969013242e-08
  68    3.332442475039e-07
  69    -2.5699442100139e-06
  70    -2.4019974093925e-07
  71    2.9088779390842e-07
  72    -1.0221378565517e-07
  73    -1.5543472589685e-07
  74    -8.9947903126009e-07
  75    -1.8412458027757e-07
  76    9.7972589156025e-08
  77    1.5217519481454e-07
  78    -2.1899797124607e-08
  79    -2.1663235632869e-08
  80    1.4615960905443e-07
  81    -6.5083240422082e-08
  82    2.7053402733104e-07
  83    9.1294236147871e-08
  84    6.0540156987133e-07
  85    1.4613452948582e-05
  86    -6.2857033809416e-07
  87    2.3179948735383e-07
  88    -7.0993675451513e-07
  89    -2.6387762405049e-06
  90    2.7575128568066e-06
  91    -4.1567063569657e-06
  92    -2.2360481927731e-07
  93    2.9672316004139e-07
  94    -1.9499825723955e-07
  95    -1.1622662336749e-07
  96    2.4810235597522e-07
  97    -6.9705580610893e-08
  98    6.4653804997738e-07
  99    -4.4518336161714e-07
 100    4.0038870286203e-09
 101    -2.5463045994192e-07
 102    1.8357929192806e-07
 103    5.1807631653721e-06
 104    -2.0601903574481e-06
 105    -7.4107222650065e-07
 106    5.5917927007006e-07
 107    1.4623719134351e-05
 108    -1.712702000026e-05
 109    -4.0830874085233e-05
 110    6.7854074185232e-07
 111    8.0674871476277e-07
 112    -3.5180286627016e-07
 113    -1.3743181437404e-07
 114    3.5432318363016e-07
 115    5.2239390371423e-07
 116    4.6239249698846e-06
 117    -3.9158189926237e-05
 118    7.6143537327251e-07
 119    -6.7160888306592e-07
 120    -9.7002660271818e-07
 121    1.1351428690351e-05
 122    -5.0277767243136e-06
 123    -4.1535269042339e-06
 124    2.229834362013e-07
 125    2.7962963887513e-07
 126    -1.5068866887592e-07
 127    -2.4773361921907e-07
 128    5.3252446492718e-07
 129    1.0897187569968e-06
 130    9.431187705321e-06
 131    -6.4894508600391e-05
 132    1.0299742249531e-06
 133    3.9629880315942e-07
 134    -3.760151950885e-06
 135    8.1989132822652e-06
 136    8.7067818118324e-06
 137    9.8414213965153e-05
 138    -2.9315120382302e-06
 139    -1.8224443571954e-06
 140    -8.9836573906924e-08
 141    -5.7656568972856e-07
 142    2.3723058238351e-07
 143    8.2966758661216e-07
 144    5.4165609772451e-06
 145    -3.8755201207379e-05
 146    -4.8777198500125e-07
 147    -1.8839850829735e-07
 148    8.0500709005418e-07
 149    -2.0744212761174e-05
 150    8.0374494369883e-06
 151    4.3530902750664e-06
 152    8.9829203457577e-07
 153    4.8989533416806e-07
 154    -8.777030692596e-08
 155    -8.0144696542389e-07
 156    9.7481953175875e-07
 157    7.0113571252565e-08
 158    -7.0126170280395e-07
 159    -1.9964818386254e-06
 160    -5.552627629654e-07
 161    2.319615699249e-07
 162    4.7973316823936e-07
 163    7.2571582798917e-06
 164    -1.4873467200345e-07
 165    -4.730612448921e-07
 166    -4.9027670314259e-07
 167    3.0750360894374e-07
 168    -3.0089417595595e-08
 169    1.8628830490716e-07
 170    -3.7342048148035e-07
 171    -6.0967383706825e-08
 172    5.886976440592e-07
 173    1.4765609077154e-07
 174    6.9148430526023e-07
 175    3.3810013278157e-07
 176    -5.9258014340797e-07
 177    1.8940354524787e-06
 178    -2.1165305072419e-06
 179    1.6781401705707e-06
 180    -1.2105501398247e-07
 181    2.4092705509641e-09
 182    -1.3450663731709e-07
 183    4.8887563977012e-07
 184    -6.6829173748012e-08
 185    1.7991697732051e-07
 186    2.5352413364677e-06
 187    3.5189901582143e-06
 188    -4.2474033766679e-08
 189    -2.1157924268861e-07
 190    -1.6794724121795e-06
 191    -2.6855811695408e-06
 192    -1.0262839654416e-06
 193    2.5514061940155e-06
 194    -1.1770008621365e-07
 195    1.897614371796e-07
 196    -1.6969908258716e-07
 197    -2.1866844017229e-07
 198    1.880974153815e-07
 199    5.2194299614067e-07
 200    1.2127134139045e-06
 201    -2.6739394646498e-07
 202    -3.8853029542246e-06
 203    1.1809798656254e-06
 204    -2.2316575841935e-07
 205    9.8914909232729e-07
 206    3.0673820202831e-06
 207    -2.4904635586554e-07
 208    7.3082884694413e-06
 209    -1.1945138519927e-06
 210    5.2765694826088e-06
 211    -5.5336755098546e-07
 212    -2.6349673566345e-06
 213    5.8038376181179e-07
 214    2.4768050589042e-06
 215    1.5662820280585e-07
 216    1.4296761087835e-06
 217    -2.2844609068556e-07
 218    -7.3090859431528e-07
 219    -2.8926186668337e-07
 220    -1.364167876433e-06
 221    1.534445593578e-07
 222    3.9689979159567e-06
 223    6.757693035927e-05
 224    -1.8119565287991e-06
 225    6.5603845048675e-06
 226    -3.8760126964551e-06
 227    1.1304860772286e-05
 228    -1.9591583027971e-05
 229    8.2610548861444e-05
 230    2.1179870450336e-06
 231    3.662696917891e-06
 232    1.0371422005671e-06
 233    -1.4736404443699e-06
 234    -2.3554561599081e-06
 235    1.0707101076338e-06
 236    1.1235193949826e-05
 237    -7.8874567760784e-05
 238    7.6874817266792e-07
 239    -7.8945109074767e-06
 240    -3.3056329481547e-06
 241    5.1726118609671e-05
 242    9.4225068508941e-06
 243    5.9998342862166e-05
 244    -1.2898530648933e-06
 245    -5.7065847871428e-06
 246    5.9347505196018e-07
 247    -2.741853240115e-06
 248    -1.5011955282097e-07
 249    5.2256556142152e-06
 250    -1.0183726584762e-05
 251    4.3837084385763e-06
 252    3.3009415992925e-05
 253    -0.00026906075740792
 254    2.8662767983151e-08
 255    -9.3482985982157e-07
 256    -1.0249424724285e-05
 257    -9.5276066571057e-05
 258    -6.9746188064108e-05
 259    0.00028837452185829
 260    -3.9588226529323e-06
 261    1.3452077482063e-05
 262    2.4855156156608e-06
 263    -9.6052864483192e-06
 264    -1.2577681335346e-06
 265    9.9072758559312e-07
 266    -2.8078868305696e-05
 267    1.1064377608735e-05
 268    -2.1167433894702e-05
 269    7.2691312957114e-05
 270    -1.2231088192417e-05
 271    -0.0033184589636012
 272    6.8245496912202e-06
 273    0.00022270555259956
 274    -0.00022044507662893
 275    -0.0024372431278901
 276    -0.00069464941030892
 277    0.0033510828341969
 278    -0.00012015695722003
 279    0.00028310174038263