[Molden Format]
made by pyscf v[2.0.1]
[Atoms] (AU)
C   1   6     0.69100024066471     0.64692934207205    -3.48223131169301
H   2   1     2.68052439830868     1.13355088658700    -3.25784032593313
C   3   6    -0.36286361513219     0.85440132524594    -5.97030179418974
H   4   1    -2.35448549047279     0.36322488579172    -6.17995817793143
C   5   6     0.93697958957450     1.61209284601821    -8.05828437677121
H   6   1     2.28684852848462     3.15852966115860    -7.89296704602693
C   7   6     0.63106041134958     0.47904579632082   -10.50346361691732
H   8   1    -0.72718870892227    -1.06897620367389   -10.63951300078030
H   9   1     1.55630230933075    -1.92953025305990    12.99630010416247
C   10   6     0.75233899775814    -2.21270439606481    11.10705728102219
H   11   1    -0.43433408177274    -3.90944857546550    11.22216085340412
C   12   6     2.86362581178706    -2.63237380607947     9.17926416456045
H   13   1     4.39038949912609    -1.24955421540245     9.49899813497433
H   14   1     3.74629220191363    -4.48798724300892     9.47414880959024
C   15   6     2.02478325613682    -2.42177285709634     6.44560829588644
C   16   6     3.88048732735477    -3.58795445234514     4.61402886975252
C   17   6    -0.18412382258602    -1.30464291234259     5.76021113872346
C   18   6    -2.10044360464350    -0.26837831858460     7.71610340967100
C   19   6    -3.08956938670431     2.35282328359417     6.88693925039594
C   20   6    -4.37372924086464    -2.09766595989678     7.93610724222001
C   21   6    -0.83850430601230     0.06372213486173    10.33002307638377
H   22   1     0.38411922151109     1.74281358582432    10.27380136542181
H   23   1    -2.30980003007874     0.45460143924521    11.73986301809809
H   24   1     4.58527064644668    -5.38706904487420     5.36778158031719
H   25   1     5.54944938085014    -2.37631462192748     4.35398898413318
H   26   1     3.06633019150423    -3.94118377050688     2.75255466040884
H   27   1    -4.17727778763735     2.26573369139522     5.12914900961283
H   28   1    -1.52662344944051     3.68001877445626     6.59540397144508
H   29   1    -4.32916174397830     3.13643051467482     8.35225460090378
H   30   1    -5.32329548508442    -2.36691813602939     6.11583672749896
H   31   1    -5.77989366602257    -1.33896741843465     9.25748940450990
H   32   1    -3.79310905208926    -3.96389819310853     8.61386170102686
C   33   6    -1.01100794811226    -1.06331657314144     3.11929490449947
C   34   6     0.37686231036534    -0.33275864505552     1.09165013605873
H   35   1    -3.01671213906703    -1.40297922279997     2.77827895090944
C   36   6    -0.64382707979370    -0.11591880174385    -1.42063131251064
H   37   1     2.35569259782137     0.17174499283897     1.33641070251401
H   38   1    -2.63317482980319    -0.60229203511219    -1.66119700387645
C   39   6     1.88057107480096     1.17167710004378   -12.63318625924474
C   40   6     1.43424299107759    -0.10242214041261   -15.03828188134704
H   41   1     3.25774949416826     2.69847908646217   -12.62832443574420
O   42   8     2.48751113017790     0.42264932688836   -17.02215443525925
H   43   1     0.01015752982003    -1.65333508727432   -14.95564685399208
[GTO]
1 0
 s    6 1.00
             3047.5249  0.0018347001629433
             457.36951    0.01403730124668
             103.94869   0.068842606114048
             29.210155    0.23218442062076
              9.286663    0.46794134155879
              3.163927    0.36231203217765
 s    3 1.00
             7.8682724   -0.11933240861517
             1.8812885   -0.16085421161283
             0.5442493     1.1434564825515
 s    1 1.00
             0.1687144                   1
 p    3 1.00
             7.8682724   0.068999095584993
             1.8812885    0.31642397975315
             0.5442493    0.74430825237435
 p    1 1.00
             0.1687144                   1
 d    1 1.00
                   0.8                   1

2 0
 s    3 1.00
             18.731137    0.03349459952309
             2.8253937    0.23472694665786
             0.6401217    0.81375731841339
 s    1 1.00
             0.1612778                   1

3 0
 s    6 1.00
             3047.5249  0.0018347001629433
             457.36951    0.01403730124668
             103.94869   0.068842606114048
             29.210155    0.23218442062076
              9.286663    0.46794134155879
              3.163927    0.36231203217765
 s    3 1.00
             7.8682724   -0.11933240861517
             1.8812885   -0.16085421161283
             0.5442493     1.1434564825515
 s    1 1.00
             0.1687144                   1
 p    3 1.00
             7.8682724   0.068999095584993
             1.8812885    0.31642397975315
             0.5442493    0.74430825237435
 p    1 1.00
             0.1687144                   1
 d    1 1.00
                   0.8                   1

4 0
 s    3 1.00
             18.731137    0.03349459952309
             2.8253937    0.23472694665786
             0.6401217    0.81375731841339
 s    1 1.00
             0.1612778                   1

5 0
 s    6 1.00
             3047.5249  0.0018347001629433
             457.36951    0.01403730124668
             103.94869   0.068842606114048
             29.210155    0.23218442062076
              9.286663    0.46794134155879
              3.163927    0.36231203217765
 s    3 1.00
             7.8682724   -0.11933240861517
             1.8812885   -0.16085421161283
             0.5442493     1.1434564825515
 s    1 1.00
             0.1687144                   1
 p    3 1.00
             7.8682724   0.068999095584993
             1.8812885    0.31642397975315
             0.5442493    0.74430825237435
 p    1 1.00
             0.1687144                   1
 d    1 1.00
                   0.8                   1

6 0
 s    3 1.00
             18.731137    0.03349459952309
             2.8253937    0.23472694665786
             0.6401217    0.81375731841339
 s    1 1.00
             0.1612778                   1

7 0
 s    6 1.00
             3047.5249  0.0018347001629433
             457.36951    0.01403730124668
             103.94869   0.068842606114048
             29.210155    0.23218442062076
              9.286663    0.46794134155879
              3.163927    0.36231203217765
 s    3 1.00
             7.8682724   -0.11933240861517
             1.8812885   -0.16085421161283
             0.5442493     1.1434564825515
 s    1 1.00
             0.1687144                   1
 p    3 1.00
             7.8682724   0.068999095584993
             1.8812885    0.31642397975315
             0.5442493    0.74430825237435
 p    1 1.00
             0.1687144                   1
 d    1 1.00
                   0.8                   1

8 0
 s    3 1.00
             18.731137    0.03349459952309
             2.8253937    0.23472694665786
             0.6401217    0.81375731841339
 s    1 1.00
             0.1612778                   1

9 0
 s    3 1.00
             18.731137    0.03349459952309
             2.8253937    0.23472694665786
             0.6401217    0.81375731841339
 s    1 1.00
             0.1612778                   1

10 0
 s    6 1.00
             3047.5249  0.0018347001629433
             457.36951    0.01403730124668
             103.94869   0.068842606114048
             29.210155    0.23218442062076
              9.286663    0.46794134155879
              3.163927    0.36231203217765
 s    3 1.00
             7.8682724   -0.11933240861517
             1.8812885   -0.16085421161283
             0.5442493     1.1434564825515
 s    1 1.00
             0.1687144                   1
 p    3 1.00
             7.8682724   0.068999095584993
             1.8812885    0.31642397975315
             0.5442493    0.74430825237435
 p    1 1.00
             0.1687144                   1
 d    1 1.00
                   0.8                   1

11 0
 s    3 1.00
             18.731137    0.03349459952309
             2.8253937    0.23472694665786
             0.6401217    0.81375731841339
 s    1 1.00
             0.1612778                   1

12 0
 s    6 1.00
             3047.5249  0.0018347001629433
             457.36951    0.01403730124668
             103.94869   0.068842606114048
             29.210155    0.23218442062076
              9.286663    0.46794134155879
              3.163927    0.36231203217765
 s    3 1.00
             7.8682724   -0.11933240861517
             1.8812885   -0.16085421161283
             0.5442493     1.1434564825515
 s    1 1.00
             0.1687144                   1
 p    3 1.00
             7.8682724   0.068999095584993
             1.8812885    0.31642397975315
             0.5442493    0.74430825237435
 p    1 1.00
             0.1687144                   1
 d    1 1.00
                   0.8                   1

13 0
 s    3 1.00
             18.731137    0.03349459952309
             2.8253937    0.23472694665786
             0.6401217    0.81375731841339
 s    1 1.00
             0.1612778                   1

14 0
 s    3 1.00
             18.731137    0.03349459952309
             2.8253937    0.23472694665786
             0.6401217    0.81375731841339
 s    1 1.00
             0.1612778                   1

15 0
 s    6 1.00
             3047.5249  0.0018347001629433
             457.36951    0.01403730124668
             103.94869   0.068842606114048
             29.210155    0.23218442062076
              9.286663    0.46794134155879
              3.163927    0.36231203217765
 s    3 1.00
             7.8682724   -0.11933240861517
             1.8812885   -0.16085421161283
             0.5442493     1.1434564825515
 s    1 1.00
             0.1687144                   1
 p    3 1.00
             7.8682724   0.068999095584993
             1.8812885    0.31642397975315
             0.5442493    0.74430825237435
 p    1 1.00
             0.1687144                   1
 d    1 1.00
                   0.8                   1

16 0
 s    6 1.00
             3047.5249  0.0018347001629433
             457.36951    0.01403730124668
             103.94869   0.068842606114048
             29.210155    0.23218442062076
              9.286663    0.46794134155879
              3.163927    0.36231203217765
 s    3 1.00
             7.8682724   -0.11933240861517
             1.8812885   -0.16085421161283
             0.5442493     1.1434564825515
 s    1 1.00
             0.1687144                   1
 p    3 1.00
             7.8682724   0.068999095584993
             1.8812885    0.31642397975315
             0.5442493    0.74430825237435
 p    1 1.00
             0.1687144                   1
 d    1 1.00
                   0.8                   1

17 0
 s    6 1.00
             3047.5249  0.0018347001629433
             457.36951    0.01403730124668
             103.94869   0.068842606114048
             29.210155    0.23218442062076
              9.286663    0.46794134155879
              3.163927    0.36231203217765
 s    3 1.00
             7.8682724   -0.11933240861517
             1.8812885   -0.16085421161283
             0.5442493     1.1434564825515
 s    1 1.00
             0.1687144                   1
 p    3 1.00
             7.8682724   0.068999095584993
             1.8812885    0.31642397975315
             0.5442493    0.74430825237435
 p    1 1.00
             0.1687144                   1
 d    1 1.00
                   0.8                   1

18 0
 s    6 1.00
             3047.5249  0.0018347001629433
             457.36951    0.01403730124668
             103.94869   0.068842606114048
             29.210155    0.23218442062076
              9.286663    0.46794134155879
              3.163927    0.36231203217765
 s    3 1.00
             7.8682724   -0.11933240861517
             1.8812885   -0.16085421161283
             0.5442493     1.1434564825515
 s    1 1.00
             0.1687144                   1
 p    3 1.00
             7.8682724   0.068999095584993
             1.8812885    0.31642397975315
             0.5442493    0.74430825237435
 p    1 1.00
             0.1687144                   1
 d    1 1.00
                   0.8                   1

19 0
 s    6 1.00
             3047.5249  0.0018347001629433
             457.36951    0.01403730124668
             103.94869   0.068842606114048
             29.210155    0.23218442062076
              9.286663    0.46794134155879
              3.163927    0.36231203217765
 s    3 1.00
             7.8682724   -0.11933240861517
             1.8812885   -0.16085421161283
             0.5442493     1.1434564825515
 s    1 1.00
             0.1687144                   1
 p    3 1.00
             7.8682724   0.068999095584993
             1.8812885    0.31642397975315
             0.5442493    0.74430825237435
 p    1 1.00
             0.1687144                   1
 d    1 1.00
                   0.8                   1

20 0
 s    6 1.00
             3047.5249  0.0018347001629433
             457.36951    0.01403730124668
             103.94869   0.068842606114048
             29.210155    0.23218442062076
              9.286663    0.46794134155879
              3.163927    0.36231203217765
 s    3 1.00
             7.8682724   -0.11933240861517
             1.8812885   -0.16085421161283
             0.5442493     1.1434564825515
 s    1 1.00
             0.1687144                   1
 p    3 1.00
             7.8682724   0.068999095584993
             1.8812885    0.31642397975315
             0.5442493    0.74430825237435
 p    1 1.00
             0.1687144                   1
 d    1 1.00
                   0.8                   1

21 0
 s    6 1.00
             3047.5249  0.0018347001629433
             457.36951    0.01403730124668
             103.94869   0.068842606114048
             29.210155    0.23218442062076
              9.286663    0.46794134155879
              3.163927    0.36231203217765
 s    3 1.00
             7.8682724   -0.11933240861517
             1.8812885   -0.16085421161283
             0.5442493     1.1434564825515
 s    1 1.00
             0.1687144                   1
 p    3 1.00
             7.8682724   0.068999095584993
             1.8812885    0.31642397975315
             0.5442493    0.74430825237435
 p    1 1.00
             0.1687144                   1
 d    1 1.00
                   0.8                   1

22 0
 s    3 1.00
             18.731137    0.03349459952309
             2.8253937    0.23472694665786
             0.6401217    0.81375731841339
 s    1 1.00
             0.1612778                   1

23 0
 s    3 1.00
             18.731137    0.03349459952309
             2.8253937    0.23472694665786
             0.6401217    0.81375731841339
 s    1 1.00
             0.1612778                   1

24 0
 s    3 1.00
             18.731137    0.03349459952309
             2.8253937    0.23472694665786
             0.6401217    0.81375731841339
 s    1 1.00
             0.1612778                   1

25 0
 s    3 1.00
             18.731137    0.03349459952309
             2.8253937    0.23472694665786
             0.6401217    0.81375731841339
 s    1 1.00
             0.1612778                   1

26 0
 s    3 1.00
             18.731137    0.03349459952309
             2.8253937    0.23472694665786
             0.6401217    0.81375731841339
 s    1 1.00
             0.1612778                   1

27 0
 s    3 1.00
             18.731137    0.03349459952309
             2.8253937    0.23472694665786
             0.6401217    0.81375731841339
 s    1 1.00
             0.1612778                   1

28 0
 s    3 1.00
             18.731137    0.03349459952309
             2.8253937    0.23472694665786
             0.6401217    0.81375731841339
 s    1 1.00
             0.1612778                   1

29 0
 s    3 1.00
             18.731137    0.03349459952309
             2.8253937    0.23472694665786
             0.6401217    0.81375731841339
 s    1 1.00
             0.1612778                   1

30 0
 s    3 1.00
             18.731137    0.03349459952309
             2.8253937    0.23472694665786
             0.6401217    0.81375731841339
 s    1 1.00
             0.1612778                   1

31 0
 s    3 1.00
             18.731137    0.03349459952309
             2.8253937    0.23472694665786
             0.6401217    0.81375731841339
 s    1 1.00
             0.1612778                   1

32 0
 s    3 1.00
             18.731137    0.03349459952309
             2.8253937    0.23472694665786
             0.6401217    0.81375731841339
 s    1 1.00
             0.1612778                   1

33 0
 s    6 1.00
             3047.5249  0.0018347001629433
             457.36951    0.01403730124668
             103.94869   0.068842606114048
             29.210155    0.23218442062076
              9.286663    0.46794134155879
              3.163927    0.36231203217765
 s    3 1.00
             7.8682724   -0.11933240861517
             1.8812885   -0.16085421161283
             0.5442493     1.1434564825515
 s    1 1.00
             0.1687144                   1
 p    3 1.00
             7.8682724   0.068999095584993
             1.8812885    0.31642397975315
             0.5442493    0.74430825237435
 p    1 1.00
             0.1687144                   1
 d    1 1.00
                   0.8                   1

34 0
 s    6 1.00
             3047.5249  0.0018347001629433
             457.36951    0.01403730124668
             103.94869   0.068842606114048
             29.210155    0.23218442062076
              9.286663    0.46794134155879
              3.163927    0.36231203217765
 s    3 1.00
             7.8682724   -0.11933240861517
             1.8812885   -0.16085421161283
             0.5442493     1.1434564825515
 s    1 1.00
             0.1687144                   1
 p    3 1.00
             7.8682724   0.068999095584993
             1.8812885    0.31642397975315
             0.5442493    0.74430825237435
 p    1 1.00
             0.1687144                   1
 d    1 1.00
                   0.8                   1

35 0
 s    3 1.00
             18.731137    0.03349459952309
             2.8253937    0.23472694665786
             0.6401217    0.81375731841339
 s    1 1.00
             0.1612778                   1

36 0
 s    6 1.00
             3047.5249  0.0018347001629433
             457.36951    0.01403730124668
             103.94869   0.068842606114048
             29.210155    0.23218442062076
              9.286663    0.46794134155879
              3.163927    0.36231203217765
 s    3 1.00
             7.8682724   -0.11933240861517
             1.8812885   -0.16085421161283
             0.5442493     1.1434564825515
 s    1 1.00
             0.1687144                   1
 p    3 1.00
             7.8682724   0.068999095584993
             1.8812885    0.31642397975315
             0.5442493    0.74430825237435
 p    1 1.00
             0.1687144                   1
 d    1 1.00
                   0.8                   1

37 0
 s    3 1.00
             18.731137    0.03349459952309
             2.8253937    0.23472694665786
             0.6401217    0.81375731841339
 s    1 1.00
             0.1612778                   1

38 0
 s    3 1.00
             18.731137    0.03349459952309
             2.8253937    0.23472694665786
             0.6401217    0.81375731841339
 s    1 1.00
             0.1612778                   1

39 0
 s    6 1.00
             3047.5249  0.0018347001629433
             457.36951    0.01403730124668
             103.94869   0.068842606114048
             29.210155    0.23218442062076
              9.286663    0.46794134155879
              3.163927    0.36231203217765
 s    3 1.00
             7.8682724   -0.11933240861517
             1.8812885   -0.16085421161283
             0.5442493     1.1434564825515
 s    1 1.00
             0.1687144                   1
 p    3 1.00
             7.8682724   0.068999095584993
             1.8812885    0.31642397975315
             0.5442493    0.74430825237435
 p    1 1.00
             0.1687144                   1
 d    1 1.00
                   0.8                   1

40 0
 s    6 1.00
             3047.5249  0.0018347001629433
             457.36951    0.01403730124668
             103.94869   0.068842606114048
             29.210155    0.23218442062076
              9.286663    0.46794134155879
              3.163927    0.36231203217765
 s    3 1.00
             7.8682724   -0.11933240861517
             1.8812885   -0.16085421161283
             0.5442493     1.1434564825515
 s    1 1.00
             0.1687144                   1
 p    3 1.00
             7.8682724   0.068999095584993
             1.8812885    0.31642397975315
             0.5442493    0.74430825237435
 p    1 1.00
             0.1687144                   1
 d    1 1.00
                   0.8                   1

41 0
 s    3 1.00
             18.731137    0.03349459952309
             2.8253937    0.23472694665786
             0.6401217    0.81375731841339
 s    1 1.00
             0.1612778                   1

42 0
 s    6 1.00
             5484.6717   0.001831099805527
             825.23495   0.013950098518422
             188.04696    0.06844509273075
               52.9645    0.23271427528445
              16.89757    0.47019295006289
             5.7996353    0.35852086192309
 s    3 1.00
             15.539616   -0.11077750382508
             3.5999336   -0.14802630511126
             1.0137618     1.1307670390447
 s    1 1.00
             0.2700058                   1
 p    3 1.00
             15.539616   0.070874299543311
             3.5999336    0.33975279781076
             1.0137618    0.72715859531445
 p    1 1.00
             0.2700058                   1
 d    1 1.00
                   0.8                   1

43 0
 s    3 1.00
             18.731137    0.03349459952309
             2.8253937    0.23472694665786
             0.6401217    0.81375731841339
 s    1 1.00
             0.1612778                   1

[5d]
[7f]
[9g]

[MO]
 Sym= A
 Ene=               0
 Spin= Alpha
 Occup=    1.00000
   1    -5.6107565056953e-06
   2    -3.2719553941017e-06
   3    -0.00012480231669979
   4    -8.2716410249857e-06
   5    -2.8353383713691e-05
   6    -3.5258179438733e-07
   7    0.0001731626808715
   8    0.0002144169615224
   9    -0.00039213402823967
  10    1.2233562510997e-05
  11    1.2963611713291e-05
  12    -1.0438600403088e-06
  13    -2.5414491182463e-06
  14    2.4423246685523e-06
  15    -2.1928968152236e-05
  16    -3.5004387276086e-05
  17    9.9131258327028e-06
  18    -2.1181688218589e-05
  19    -0.0014410516043506
  20    -3.3491799575742e-05
  21    8.1683329008162e-06
  22    7.883211193671e-05
  23    -0.00032768084282103
  24    -8.9255561035833e-05
  25    0.00076469183196289
  26    -4.0634232956097e-05
  27    2.0996143649855e-05
  28    1.8688279438475e-05
  29    -3.0862144848853e-05
  30    3.1654908652028e-05
  31    -3.8845984355761e-07
  32    3.2965619600907e-05
  33    -8.3052694880294e-05
  34    -0.00029135024381566
  35    0.0051957583877738
  36    3.3668244162247e-05
  37    -4.2374663806997e-05
  38    -0.00022571020235192
  39    -0.0011452394893976
  40    -0.0015913250632903
  41    -0.0013067785234996
  42    0.00013455402350625
  43    -1.5190516195065e-05
  44    8.6631274506207e-05
  45    -1.6380059014694e-05
  46    4.5973999905404e-05
  47    2.2750415987531e-05
  48    0.00030270394354288
  49    5.6888123406332e-05
  50    -0.00030127709817014
  51    -0.0041555417295229
  52    2.9417549989508e-05
  53    0.00022771932604318
  54    0.00060129752370626
  55    -0.00062150987564025
  56    -0.0018950464720489
  57    -0.0035446558764735
  58    -8.4916467508918e-05
  59    -0.00012241625824419
  60    -0.00015649646789128
  61    3.5854736581991e-05
  62    0.00010146566616453
  63    -0.00041898078743305
  64    -0.00015722693970017
  65    4.7355509895144e-08
  66    1.2012834160584e-06
  67    -5.1183922317409e-08
  68    -5.197612745711e-07
  69    -1.6939016926331e-06
  70    3.2885507725085e-07
  71    -3.7172776529037e-07
  72    2.1716681839377e-07
  73    1.2434810409249e-06
  74    -2.2825383855442e-07
  75    -1.6709365174161e-06
  76    1.4952986770425e-07
  77    9.5648929212051e-08
  78    5.6131019351697e-08
  79    2.0619331735547e-08
  80    7.9359056851008e-08
  81    6.9045482862955e-08
  82    4.1486468634744e-07
  83    1.4186837203352e-07
  84    9.4738986739274e-07
  85    -2.2928393559845e-06
  86    9.3773970438305e-08
  87    -9.7261185175502e-08
  88    1.9255503811737e-07
  89    1.4783714889731e-06
  90    -2.7499283685538e-06
  91    -2.0364834971625e-07
  92    -1.136643150802e-07
  93    -1.6543546606313e-07
  94    4.1110271237425e-07
  95    -1.6072187050321e-07
  96    4.4550147486168e-08
  97     5.66181967449e-07
  98    8.6230758146458e-08
  99    -1.1201909665871e-07
 100    -4.5772171298527e-07
 101    -2.806335027906e-07
 102    -4.6373306963535e-07
 103    3.4552263619448e-05
 104    -5.660817691337e-07
 105    2.2400263951429e-07
 106    -1.2606901887822e-06
 107    -1.1569913559135e-05
 108    1.2936986130326e-05
 109    -8.3315025197034e-06
 110    5.4603843223573e-07
 111    7.7379488169582e-07
 112    -3.5648619174922e-07
 113    -6.6975161799803e-07
 114    -7.4358912964443e-07
 115    4.1219980973161e-07
 116    4.0395926111312e-06
 117    -1.6700546164716e-05
 118    1.3571597255454e-08
 119    2.6731467805381e-07
 120    -8.6486596594146e-07
 121    3.5882541159178e-06
 122    -4.1145118231599e-06
 123    1.0071163619696e-05
 124    2.7361644507371e-07
 125    -4.0104307237452e-07
 126    -2.2466768312123e-07
 127    4.5422845684208e-08
 128    -5.3930590153103e-08
 129    4.0810863570737e-07
 130    5.1545443267441e-06
 131     1.59885136702e-05
 132    2.9881612390024e-06
 133    2.022067640447e-06
 134    -3.7265832836844e-06
 135    -4.9609997411783e-05
 136    4.187188244147e-07
 137    1.1006182761124e-06
 138    -1.8409102921223e-07
 139    2.6123132114595e-07
 140    1.2446583921157e-06
 141    -3.0145450999642e-07
 142    8.1607898523385e-07
 143    1.9616459208974e-08
 144    -1.3124738021328e-06
 145    -1.8114081006515e-05
 146    -5.3476275545128e-07
 147    -1.2105983854547e-06
 148    2.8254446062833e-06
 149    -7.1881465234024e-06
 150    2.3909333400008e-05
 151    -1.1635014162289e-05
 152    -8.4102510190645e-08
 153    1.0627726323628e-07
 154    -1.1103730430864e-06
 155    -2.8390737717132e-07
 156    -4.5632352264657e-07
 157    3.8290458003614e-07
 158    2.557694972312e-06
 159    -1.9833654507171e-05
 160    -1.7628188830457e-07
 161    7.6070237403108e-07
 162    -6.7526513919244e-07
 163    -4.3885658341394e-06
 164    7.5298893258274e-06
 165    9.351955859307e-07
 166    5.7192842722096e-07
 167    -2.7723483257576e-07
 168    1.399035028208e-07
 169    3.0641532404953e-07
 170    4.2846938331669e-07
 171    -6.1163077693733e-09
 172    2.8580497229847e-07
 173    3.5499197785261e-06
 174    2.5790226650247e-07
 175    -7.8349118812013e-08
 176    5.0944765354138e-07
 177    6.8340400127729e-06
 178    2.2234584430936e-06
 179    4.2413772307333e-06
 180    -2.6391909285626e-07
 181    7.1905924079369e-07
 182    9.6027888770728e-08
 183    5.2284691700587e-07
 184    5.2177815248233e-07
 185    -2.9248017937644e-07
 186    -2.1881153667408e-06
 187    1.4102168733782e-05
 188    -5.4031177144857e-07
 189    -8.8679349238114e-08
 190    -3.8489302959496e-07
 191    -1.6543695198551e-06
 192    -6.265051764532e-06
 193    -4.8284846047965e-06
 194    9.3924119171558e-08
 195    4.5537380079309e-07
 196    8.6637565894432e-07
 197    -2.2803611403079e-07
 198    2.1169534972273e-07
 199    -6.0616936071012e-07
 200    1.6929874492573e-06
 201    -3.2130712418596e-07
 202    -4.6262299867422e-07
 203    2.9174871400954e-07
 204    -2.0229088404862e-06
 205    1.6841086233244e-06
 206    1.1302906113077e-06
 207    -1.5335261664713e-06
 208    1.7421083887159e-05
 209    1.0246742512357e-06
 210    1.4661490340311e-06
 211    1.0675831678043e-06
 212    9.5339080100887e-07
 213    3.8058783384254e-07
 214    -9.5716646830524e-07
 215    -1.2480080090937e-06
 216    9.4780846691326e-06
 217    1.7989198752754e-07
 218    -5.5411313209052e-07
 219    4.1200152444447e-07
 220    -1.6534283603136e-06
 221    -1.4848943775751e-06
 222    -8.957431759248e-06
 223    0.00012609289800126
 224    3.4770058024255e-06
 225    -1.7618831902284e-07
 226    -2.354234158643e-07
 227    1.0065061362037e-05
 228    2.1671773807119e-05
 229    -0.00012256351809938
 230    3.6473218720791e-06
 231    -3.9405859866379e-06
 232    -2.3988327974194e-06
 233    1.3010406833851e-06
 234    4.3082210431114e-08
 235    4.5594981103454e-06
 236    3.055058608951e-05
 237    -0.000422278986578
 238    -1.6302060721971e-06
 239    -6.8994592053402e-06
 240    7.4766614473167e-06
 241    0.00013108086311468
 242    3.840565424424e-05
 243    0.00010451854026039
 244    -1.3001391250343e-05
 245    -7.1885979897282e-07
 246    1.3882803872239e-06
 247    -1.4326912392557e-06
 248    -3.8222900742958e-06
 249    -5.6186829360104e-06
 250    -1.6403633683003e-05
 251    -2.7918601999579e-06
 252    -2.3005621420288e-05
 253    0.00055595040672355
 254    -1.3238091536524e-05
 255    1.3617521627514e-05
 256    -1.8973164128924e-05
 257    0.00024463070883591
 258    -2.9578132677827e-05
 259    0.00012317800771782
 260    1.2113664563522e-05
 261    4.0481448771243e-07
 262    1.1962848454521e-07
 263    2.6572275818143e-06
 264    -4.4636427173196e-06
 265    -1.4195966642487e-06
 266    -1.365612759328e-05
 267    1.7759332541912e-05
 268    2.069976925073e-05
 269    7.1919447048629e-05
 270    -1.8169879096599e-05
 271    -0.0032872658388621
 272    0.00022392402481756
 273    0.00019294872038338
 274    -9.7004824973064e-05
 275    -0.0018015712064483
 276    -0.00077273303305947
 277    0.0037859639406999
 278    -0.00037218741043257
 279    0.00012128276761381
 280    -2.229072038412e-05