[Molden Format]
made by pyscf v[2.0.1]
[Atoms] (AU)
C   1   6     0.69100024066471     0.64692934207205    -3.48223131169301
H   2   1     2.68052439830868     1.13355088658700    -3.25784032593313
C   3   6    -0.36286361513219     0.85440132524594    -5.97030179418974
H   4   1    -2.35448549047279     0.36322488579172    -6.17995817793143
C   5   6     0.93697958957450     1.61209284601821    -8.05828437677121
H   6   1     1.11826626333964     3.62551264984471    -8.45099117670825
C   7   6     2.10097243920823    -0.10888483292738    -9.80174075747215
H   8   1     1.90436861547379    -2.12023320363586    -9.38275759847606
H   9   1     1.55630230933075    -1.92953025305990    12.99630010416247
C   10   6     0.75233899775814    -2.21270439606481    11.10705728102219
H   11   1    -0.43433408177274    -3.90944857546550    11.22216085340412
C   12   6     2.86362581178706    -2.63237380607947     9.17926416456045
H   13   1     4.39038949912609    -1.24955421540245     9.49899813497433
H   14   1     3.74629220191363    -4.48798724300892     9.47414880959024
C   15   6     2.02478325613682    -2.42177285709634     6.44560829588644
C   16   6     3.88048732735477    -3.58795445234514     4.61402886975252
C   17   6    -0.18412382258602    -1.30464291234259     5.76021113872346
C   18   6    -2.10044360464350    -0.26837831858460     7.71610340967100
C   19   6    -3.08956938670431     2.35282328359417     6.88693925039594
C   20   6    -4.37372924086464    -2.09766595989678     7.93610724222001
C   21   6    -0.83850430601230     0.06372213486173    10.33002307638377
H   22   1     0.38411922151109     1.74281358582432    10.27380136542181
H   23   1    -2.30980003007874     0.45460143924521    11.73986301809809
H   24   1     4.58527064644668    -5.38706904487420     5.36778158031719
H   25   1     5.54944938085014    -2.37631462192748     4.35398898413318
H   26   1     3.06633019150423    -3.94118377050688     2.75255466040884
H   27   1    -4.17727778763735     2.26573369139522     5.12914900961283
H   28   1    -1.52662344944051     3.68001877445626     6.59540397144508
H   29   1    -4.32916174397830     3.13643051467482     8.35225460090378
H   30   1    -5.32329548508442    -2.36691813602939     6.11583672749896
H   31   1    -5.77989366602257    -1.33896741843465     9.25748940450990
H   32   1    -3.79310905208926    -3.96389819310853     8.61386170102686
C   33   6    -1.01100794811226    -1.06331657314144     3.11929490449947
C   34   6     0.37686231036534    -0.33275864505552     1.09165013605873
H   35   1    -3.01671213906703    -1.40297922279997     2.77827895090944
C   36   6    -0.64382707979370    -0.11591880174385    -1.42063131251064
H   37   1     2.35569259782137     0.17174499283897     1.33641070251401
H   38   1    -2.63317482980319    -0.60229203511219    -1.66119700387645
C   39   6     3.40965399787931     0.55809653308114   -11.90393532262733
C   40   6     4.52549279160481    -1.34135539088305   -13.56345596406470
H   41   1     3.67536210453709     2.52791097593625   -12.43024189111277
O   42   8     5.72170846290986    -0.87635365493868   -15.48013684009233
H   43   1     4.20717735374393    -3.33265649371778   -12.95224886476863
[GTO]
1 0
 s    6 1.00
             3047.5249  0.0018347001629433
             457.36951    0.01403730124668
             103.94869   0.068842606114048
             29.210155    0.23218442062076
              9.286663    0.46794134155879
              3.163927    0.36231203217765
 s    3 1.00
             7.8682724   -0.11933240861517
             1.8812885   -0.16085421161283
             0.5442493     1.1434564825515
 s    1 1.00
             0.1687144                   1
 p    3 1.00
             7.8682724   0.068999095584993
             1.8812885    0.31642397975315
             0.5442493    0.74430825237435
 p    1 1.00
             0.1687144                   1
 d    1 1.00
                   0.8                   1

2 0
 s    3 1.00
             18.731137    0.03349459952309
             2.8253937    0.23472694665786
             0.6401217    0.81375731841339
 s    1 1.00
             0.1612778                   1

3 0
 s    6 1.00
             3047.5249  0.0018347001629433
             457.36951    0.01403730124668
             103.94869   0.068842606114048
             29.210155    0.23218442062076
              9.286663    0.46794134155879
              3.163927    0.36231203217765
 s    3 1.00
             7.8682724   -0.11933240861517
             1.8812885   -0.16085421161283
             0.5442493     1.1434564825515
 s    1 1.00
             0.1687144                   1
 p    3 1.00
             7.8682724   0.068999095584993
             1.8812885    0.31642397975315
             0.5442493    0.74430825237435
 p    1 1.00
             0.1687144                   1
 d    1 1.00
                   0.8                   1

4 0
 s    3 1.00
             18.731137    0.03349459952309
             2.8253937    0.23472694665786
             0.6401217    0.81375731841339
 s    1 1.00
             0.1612778                   1

5 0
 s    6 1.00
             3047.5249  0.0018347001629433
             457.36951    0.01403730124668
             103.94869   0.068842606114048
             29.210155    0.23218442062076
              9.286663    0.46794134155879
              3.163927    0.36231203217765
 s    3 1.00
             7.8682724   -0.11933240861517
             1.8812885   -0.16085421161283
             0.5442493     1.1434564825515
 s    1 1.00
             0.1687144                   1
 p    3 1.00
             7.8682724   0.068999095584993
             1.8812885    0.31642397975315
             0.5442493    0.74430825237435
 p    1 1.00
             0.1687144                   1
 d    1 1.00
                   0.8                   1

6 0
 s    3 1.00
             18.731137    0.03349459952309
             2.8253937    0.23472694665786
             0.6401217    0.81375731841339
 s    1 1.00
             0.1612778                   1

7 0
 s    6 1.00
             3047.5249  0.0018347001629433
             457.36951    0.01403730124668
             103.94869   0.068842606114048
             29.210155    0.23218442062076
              9.286663    0.46794134155879
              3.163927    0.36231203217765
 s    3 1.00
             7.8682724   -0.11933240861517
             1.8812885   -0.16085421161283
             0.5442493     1.1434564825515
 s    1 1.00
             0.1687144                   1
 p    3 1.00
             7.8682724   0.068999095584993
             1.8812885    0.31642397975315
             0.5442493    0.74430825237435
 p    1 1.00
             0.1687144                   1
 d    1 1.00
                   0.8                   1

8 0
 s    3 1.00
             18.731137    0.03349459952309
             2.8253937    0.23472694665786
             0.6401217    0.81375731841339
 s    1 1.00
             0.1612778                   1

9 0
 s    3 1.00
             18.731137    0.03349459952309
             2.8253937    0.23472694665786
             0.6401217    0.81375731841339
 s    1 1.00
             0.1612778                   1

10 0
 s    6 1.00
             3047.5249  0.0018347001629433
             457.36951    0.01403730124668
             103.94869   0.068842606114048
             29.210155    0.23218442062076
              9.286663    0.46794134155879
              3.163927    0.36231203217765
 s    3 1.00
             7.8682724   -0.11933240861517
             1.8812885   -0.16085421161283
             0.5442493     1.1434564825515
 s    1 1.00
             0.1687144                   1
 p    3 1.00
             7.8682724   0.068999095584993
             1.8812885    0.31642397975315
             0.5442493    0.74430825237435
 p    1 1.00
             0.1687144                   1
 d    1 1.00
                   0.8                   1

11 0
 s    3 1.00
             18.731137    0.03349459952309
             2.8253937    0.23472694665786
             0.6401217    0.81375731841339
 s    1 1.00
             0.1612778                   1

12 0
 s    6 1.00
             3047.5249  0.0018347001629433
             457.36951    0.01403730124668
             103.94869   0.068842606114048
             29.210155    0.23218442062076
              9.286663    0.46794134155879
              3.163927    0.36231203217765
 s    3 1.00
             7.8682724   -0.11933240861517
             1.8812885   -0.16085421161283
             0.5442493     1.1434564825515
 s    1 1.00
             0.1687144                   1
 p    3 1.00
             7.8682724   0.068999095584993
             1.8812885    0.31642397975315
             0.5442493    0.74430825237435
 p    1 1.00
             0.1687144                   1
 d    1 1.00
                   0.8                   1

13 0
 s    3 1.00
             18.731137    0.03349459952309
             2.8253937    0.23472694665786
             0.6401217    0.81375731841339
 s    1 1.00
             0.1612778                   1

14 0
 s    3 1.00
             18.731137    0.03349459952309
             2.8253937    0.23472694665786
             0.6401217    0.81375731841339
 s    1 1.00
             0.1612778                   1

15 0
 s    6 1.00
             3047.5249  0.0018347001629433
             457.36951    0.01403730124668
             103.94869   0.068842606114048
             29.210155    0.23218442062076
              9.286663    0.46794134155879
              3.163927    0.36231203217765
 s    3 1.00
             7.8682724   -0.11933240861517
             1.8812885   -0.16085421161283
             0.5442493     1.1434564825515
 s    1 1.00
             0.1687144                   1
 p    3 1.00
             7.8682724   0.068999095584993
             1.8812885    0.31642397975315
             0.5442493    0.74430825237435
 p    1 1.00
             0.1687144                   1
 d    1 1.00
                   0.8                   1

16 0
 s    6 1.00
             3047.5249  0.0018347001629433
             457.36951    0.01403730124668
             103.94869   0.068842606114048
             29.210155    0.23218442062076
              9.286663    0.46794134155879
              3.163927    0.36231203217765
 s    3 1.00
             7.8682724   -0.11933240861517
             1.8812885   -0.16085421161283
             0.5442493     1.1434564825515
 s    1 1.00
             0.1687144                   1
 p    3 1.00
             7.8682724   0.068999095584993
             1.8812885    0.31642397975315
             0.5442493    0.74430825237435
 p    1 1.00
             0.1687144                   1
 d    1 1.00
                   0.8                   1

17 0
 s    6 1.00
             3047.5249  0.0018347001629433
             457.36951    0.01403730124668
             103.94869   0.068842606114048
             29.210155    0.23218442062076
              9.286663    0.46794134155879
              3.163927    0.36231203217765
 s    3 1.00
             7.8682724   -0.11933240861517
             1.8812885   -0.16085421161283
             0.5442493     1.1434564825515
 s    1 1.00
             0.1687144                   1
 p    3 1.00
             7.8682724   0.068999095584993
             1.8812885    0.31642397975315
             0.5442493    0.74430825237435
 p    1 1.00
             0.1687144                   1
 d    1 1.00
                   0.8                   1

18 0
 s    6 1.00
             3047.5249  0.0018347001629433
             457.36951    0.01403730124668
             103.94869   0.068842606114048
             29.210155    0.23218442062076
              9.286663    0.46794134155879
              3.163927    0.36231203217765
 s    3 1.00
             7.8682724   -0.11933240861517
             1.8812885   -0.16085421161283
             0.5442493     1.1434564825515
 s    1 1.00
             0.1687144                   1
 p    3 1.00
             7.8682724   0.068999095584993
             1.8812885    0.31642397975315
             0.5442493    0.74430825237435
 p    1 1.00
             0.1687144                   1
 d    1 1.00
                   0.8                   1

19 0
 s    6 1.00
             3047.5249  0.0018347001629433
             457.36951    0.01403730124668
             103.94869   0.068842606114048
             29.210155    0.23218442062076
              9.286663    0.46794134155879
              3.163927    0.36231203217765
 s    3 1.00
             7.8682724   -0.11933240861517
             1.8812885   -0.16085421161283
             0.5442493     1.1434564825515
 s    1 1.00
             0.1687144                   1
 p    3 1.00
             7.8682724   0.068999095584993
             1.8812885    0.31642397975315
             0.5442493    0.74430825237435
 p    1 1.00
             0.1687144                   1
 d    1 1.00
                   0.8                   1

20 0
 s    6 1.00
             3047.5249  0.0018347001629433
             457.36951    0.01403730124668
             103.94869   0.068842606114048
             29.210155    0.23218442062076
              9.286663    0.46794134155879
              3.163927    0.36231203217765
 s    3 1.00
             7.8682724   -0.11933240861517
             1.8812885   -0.16085421161283
             0.5442493     1.1434564825515
 s    1 1.00
             0.1687144                   1
 p    3 1.00
             7.8682724   0.068999095584993
             1.8812885    0.31642397975315
             0.5442493    0.74430825237435
 p    1 1.00
             0.1687144                   1
 d    1 1.00
                   0.8                   1

21 0
 s    6 1.00
             3047.5249  0.0018347001629433
             457.36951    0.01403730124668
             103.94869   0.068842606114048
             29.210155    0.23218442062076
              9.286663    0.46794134155879
              3.163927    0.36231203217765
 s    3 1.00
             7.8682724   -0.11933240861517
             1.8812885   -0.16085421161283
             0.5442493     1.1434564825515
 s    1 1.00
             0.1687144                   1
 p    3 1.00
             7.8682724   0.068999095584993
             1.8812885    0.31642397975315
             0.5442493    0.74430825237435
 p    1 1.00
             0.1687144                   1
 d    1 1.00
                   0.8                   1

22 0
 s    3 1.00
             18.731137    0.03349459952309
             2.8253937    0.23472694665786
             0.6401217    0.81375731841339
 s    1 1.00
             0.1612778                   1

23 0
 s    3 1.00
             18.731137    0.03349459952309
             2.8253937    0.23472694665786
             0.6401217    0.81375731841339
 s    1 1.00
             0.1612778                   1

24 0
 s    3 1.00
             18.731137    0.03349459952309
             2.8253937    0.23472694665786
             0.6401217    0.81375731841339
 s    1 1.00
             0.1612778                   1

25 0
 s    3 1.00
             18.731137    0.03349459952309
             2.8253937    0.23472694665786
             0.6401217    0.81375731841339
 s    1 1.00
             0.1612778                   1

26 0
 s    3 1.00
             18.731137    0.03349459952309
             2.8253937    0.23472694665786
             0.6401217    0.81375731841339
 s    1 1.00
             0.1612778                   1

27 0
 s    3 1.00
             18.731137    0.03349459952309
             2.8253937    0.23472694665786
             0.6401217    0.81375731841339
 s    1 1.00
             0.1612778                   1

28 0
 s    3 1.00
             18.731137    0.03349459952309
             2.8253937    0.23472694665786
             0.6401217    0.81375731841339
 s    1 1.00
             0.1612778                   1

29 0
 s    3 1.00
             18.731137    0.03349459952309
             2.8253937    0.23472694665786
             0.6401217    0.81375731841339
 s    1 1.00
             0.1612778                   1

30 0
 s    3 1.00
             18.731137    0.03349459952309
             2.8253937    0.23472694665786
             0.6401217    0.81375731841339
 s    1 1.00
             0.1612778                   1

31 0
 s    3 1.00
             18.731137    0.03349459952309
             2.8253937    0.23472694665786
             0.6401217    0.81375731841339
 s    1 1.00
             0.1612778                   1

32 0
 s    3 1.00
             18.731137    0.03349459952309
             2.8253937    0.23472694665786
             0.6401217    0.81375731841339
 s    1 1.00
             0.1612778                   1

33 0
 s    6 1.00
             3047.5249  0.0018347001629433
             457.36951    0.01403730124668
             103.94869   0.068842606114048
             29.210155    0.23218442062076
              9.286663    0.46794134155879
              3.163927    0.36231203217765
 s    3 1.00
             7.8682724   -0.11933240861517
             1.8812885   -0.16085421161283
             0.5442493     1.1434564825515
 s    1 1.00
             0.1687144                   1
 p    3 1.00
             7.8682724   0.068999095584993
             1.8812885    0.31642397975315
             0.5442493    0.74430825237435
 p    1 1.00
             0.1687144                   1
 d    1 1.00
                   0.8                   1

34 0
 s    6 1.00
             3047.5249  0.0018347001629433
             457.36951    0.01403730124668
             103.94869   0.068842606114048
             29.210155    0.23218442062076
              9.286663    0.46794134155879
              3.163927    0.36231203217765
 s    3 1.00
             7.8682724   -0.11933240861517
             1.8812885   -0.16085421161283
             0.5442493     1.1434564825515
 s    1 1.00
             0.1687144                   1
 p    3 1.00
             7.8682724   0.068999095584993
             1.8812885    0.31642397975315
             0.5442493    0.74430825237435
 p    1 1.00
             0.1687144                   1
 d    1 1.00
                   0.8                   1

35 0
 s    3 1.00
             18.731137    0.03349459952309
             2.8253937    0.23472694665786
             0.6401217    0.81375731841339
 s    1 1.00
             0.1612778                   1

36 0
 s    6 1.00
             3047.5249  0.0018347001629433
             457.36951    0.01403730124668
             103.94869   0.068842606114048
             29.210155    0.23218442062076
              9.286663    0.46794134155879
              3.163927    0.36231203217765
 s    3 1.00
             7.8682724   -0.11933240861517
             1.8812885   -0.16085421161283
             0.5442493     1.1434564825515
 s    1 1.00
             0.1687144                   1
 p    3 1.00
             7.8682724   0.068999095584993
             1.8812885    0.31642397975315
             0.5442493    0.74430825237435
 p    1 1.00
             0.1687144                   1
 d    1 1.00
                   0.8                   1

37 0
 s    3 1.00
             18.731137    0.03349459952309
             2.8253937    0.23472694665786
             0.6401217    0.81375731841339
 s    1 1.00
             0.1612778                   1

38 0
 s    3 1.00
             18.731137    0.03349459952309
             2.8253937    0.23472694665786
             0.6401217    0.81375731841339
 s    1 1.00
             0.1612778                   1

39 0
 s    6 1.00
             3047.5249  0.0018347001629433
             457.36951    0.01403730124668
             103.94869   0.068842606114048
             29.210155    0.23218442062076
              9.286663    0.46794134155879
              3.163927    0.36231203217765
 s    3 1.00
             7.8682724   -0.11933240861517
             1.8812885   -0.16085421161283
             0.5442493     1.1434564825515
 s    1 1.00
             0.1687144                   1
 p    3 1.00
             7.8682724   0.068999095584993
             1.8812885    0.31642397975315
             0.5442493    0.74430825237435
 p    1 1.00
             0.1687144                   1
 d    1 1.00
                   0.8                   1

40 0
 s    6 1.00
             3047.5249  0.0018347001629433
             457.36951    0.01403730124668
             103.94869   0.068842606114048
             29.210155    0.23218442062076
              9.286663    0.46794134155879
              3.163927    0.36231203217765
 s    3 1.00
             7.8682724   -0.11933240861517
             1.8812885   -0.16085421161283
             0.5442493     1.1434564825515
 s    1 1.00
             0.1687144                   1
 p    3 1.00
             7.8682724   0.068999095584993
             1.8812885    0.31642397975315
             0.5442493    0.74430825237435
 p    1 1.00
             0.1687144                   1
 d    1 1.00
                   0.8                   1

41 0
 s    3 1.00
             18.731137    0.03349459952309
             2.8253937    0.23472694665786
             0.6401217    0.81375731841339
 s    1 1.00
             0.1612778                   1

42 0
 s    6 1.00
             5484.6717   0.001831099805527
             825.23495   0.013950098518422
             188.04696    0.06844509273075
               52.9645    0.23271427528445
              16.89757    0.47019295006289
             5.7996353    0.35852086192309
 s    3 1.00
             15.539616   -0.11077750382508
             3.5999336   -0.14802630511126
             1.0137618     1.1307670390447
 s    1 1.00
             0.2700058                   1
 p    3 1.00
             15.539616   0.070874299543311
             3.5999336    0.33975279781076
             1.0137618    0.72715859531445
 p    1 1.00
             0.2700058                   1
 d    1 1.00
                   0.8                   1

43 0
 s    3 1.00
             18.731137    0.03349459952309
             2.8253937    0.23472694665786
             0.6401217    0.81375731841339
 s    1 1.00
             0.1612778                   1

[5d]
[7f]
[9g]

[MO]
 Sym= A
 Ene=               0
 Spin= Alpha
 Occup=    1.00000
   1    -5.8684323336335e-07
   2    -2.4530938254593e-05
   3    2.1703708863007e-05
   4    -1.1412876134879e-06
   5    -1.1776050379152e-05
   6    2.3074541803535e-05
   7    2.5602454892865e-05
   8    7.9175151771124e-05
   9    -0.0003933210973294
  10    7.1626649730701e-07
  11    1.1578039881736e-05
  12    2.8493714730573e-06
  13    1.453929647061e-05
  14    -7.998295034777e-06
  15    -1.591652714092e-05
  16    1.9677874155068e-05
  17    5.3237447361097e-06
  18    0.00017604240741964
  19    0.00047080730754623
  20    6.2527797444201e-05
  21    -4.7671243779669e-06
  22    -8.5144604283924e-05
  23    0.00017416140825116
  24    -9.9158266198404e-05
  25    -0.00067610327459653
  26    2.0838805375108e-05
  27    -2.3721236660965e-05
  28    7.7955520421215e-06
  29    4.4584085188166e-05
  30    -4.3908168655811e-06
  31    -9.7149828050503e-06
  32    3.2443484075765e-05
  33    8.1257762829901e-05
  34    0.00031088984014936
  35    -0.0047352722484324
  36    -0.00011585787255715
  37    8.1675955482985e-05
  38    0.00022411488842134
  39    -0.00042348996148636
  40    0.0020642630814561
  41    0.00063349906454753
  42    -3.065738529872e-05
  43    0.00011101531542588
  44    -7.619008072654e-05
  45    3.4423536031412e-05
  46    5.0757133517683e-05
  47    -1.0665200179869e-05
  48    -0.0002699342001602
  49    -5.411381880603e-05
  50    0.00031657202861505
  51    0.0039035060897861
  52    0.00028743510151845
  53    -0.00035694875673077
  54    -0.00045912875914193
  55    -0.0016319787797565
  56    0.0026906017098098
  57    0.0024189274020705
  58    -1.5688924201323e-05
  59    3.9310500085933e-05
  60    0.0001962926279467
  61    1.9451509286129e-05
  62    -0.00012323567190712
  63    0.00041752430943216
  64    0.00014401924079715
  65    -2.652626275877e-07
  66    -5.9632856743319e-07
  67    -8.0469044405737e-08
  68    -4.8690207909922e-07
  69    3.1905882674815e-06
  70    3.8831796025491e-07
  71    -4.5728691453631e-07
  72    5.2183540396068e-08
  73    4.0090034327664e-07
  74    1.2224469736508e-06
  75    3.7446313975623e-07
  76    -5.0325476096322e-08
  77    -1.4173114871809e-07
  78    5.2009686676386e-08
  79    6.9299890776459e-08
  80    -1.1784216658933e-07
  81    7.3715939890875e-08
  82    -1.5129389420368e-07
  83    -5.0780678714642e-08
  84    -5.8862921927449e-08
  85    -1.2678987298331e-05
  86    4.9058188882935e-07
  87    3.4541474243743e-08
  88    6.2414228135386e-07
  89    3.4818463156444e-06
  90    -4.7042675894192e-06
  91    2.583556410703e-06
  92    2.085394046102e-07
  93    -3.6161303421323e-07
  94    2.6775619028782e-07
  95    7.9447897301035e-09
  96    -2.2689287653424e-07
  97    1.8928796505501e-07
  98    -4.0070913481808e-07
  99    2.2794172240909e-07
 100    -5.1882021643599e-07
 101    9.1059115910246e-08
 102    -1.4475270945503e-06
 103    1.4347973332858e-05
 104    1.706410959538e-06
 105    9.8678154023804e-07
 106    -4.8250898338656e-07
 107    -1.9230391694064e-05
 108    2.0718291726746e-05
 109    3.0273181750229e-05
 110    -5.8951268206301e-07
 111    -5.1578944877857e-07
 112    2.6547378976612e-07
 113    4.7090446536966e-07
 114    -5.0949780348105e-07
 115    -5.5495952070201e-07
 116    -4.7389553973486e-06
 117    3.8429082541267e-05
 118    -7.522105845272e-07
 119    1.116374688384e-06
 120    6.0484652608519e-07
 121    -8.6247006299854e-06
 122    6.3088415426498e-07
 123    2.4747146370796e-06
 124    -5.0616358996924e-08
 125    -1.2971329998377e-07
 126    -9.1559423657195e-08
 127    4.0678660858368e-09
 128    -4.0919901732945e-07
 129    -8.8764965402592e-07
 130    -9.4207803402583e-06
 131    5.0773941968639e-05
 132    -4.4291576907872e-07
 133    -1.9109681378132e-06
 134    3.9686732856066e-06
 135    -2.68147417373e-05
 136    5.5139668706336e-07
 137    -8.2150123205397e-05
 138    2.6411594552334e-06
 139    1.4839593727931e-06
 140    5.2549995068421e-07
 141    4.9768553800904e-07
 142    2.5953494346458e-07
 143    -5.9316412376522e-07
 144    -3.2489953317712e-06
 145    1.9810250491647e-05
 146    8.6641756414137e-07
 147    6.812942454965e-07
 148    -2.7624824790137e-07
 149    1.2254348813719e-05
 150    -6.7607058265068e-06
 151    -2.729697565759e-06
 152    -1.1265912133876e-06
 153    -3.408366139554e-07
 154    -8.3750182977464e-08
 155    7.0654485305392e-07
 156    -7.8468210679178e-07
 157    -6.8776574010855e-08
 158    1.2981274448112e-06
 159    1.9220609282992e-06
 160    8.4194108571031e-07
 161    -4.8959734712463e-07
 162    -3.4651576740948e-07
 163    -6.812410512922e-06
 164    1.8868119701941e-07
 165    8.1689278016299e-07
 166    4.0414701484266e-07
 167    -8.0325089396389e-08
 168    -2.3528265657693e-08
 169    -1.185598507034e-07
 170    2.8120468153578e-07
 171    9.8002633790248e-08
 172    -6.1823379003479e-07
 173    -1.9272297920493e-06
 174    -1.0109310877307e-06
 175    -3.450993860333e-07
 176    9.0970247439964e-07
 177    -3.4524429545321e-07
 178    1.2175018763744e-06
 179    -2.1988139005458e-06
 180    1.4916648121622e-07
 181    1.6698676212525e-07
 182    1.6315643397443e-09
 183    -3.7489623857997e-07
 184    1.775018218198e-07
 185    -2.7156287342271e-07
 186    -3.2396032898091e-06
 187    2.244462064597e-06
 188    -1.3882031875985e-07
 189    1.6868864979484e-07
 190    1.3699379963481e-06
 191    3.0005824856542e-06
 192    9.0702755012679e-07
 193    -5.6837787606829e-06
 194    3.8821889760768e-07
 195    -7.1462253282522e-08
 196    1.6906433536101e-07
 197    7.1453813740005e-08
 198    -1.1131151258781e-07
 199    -9.0596783752539e-07
 200    -1.7187224568332e-06
 201    2.5950678522964e-07
 202    4.0524615014057e-06
 203    -1.604285927353e-06
 204    -1.6426050233465e-06
 205    -7.002037468765e-07
 206    -3.3311465467079e-06
 207    1.7133522119352e-06
 208    -1.2947373228905e-05
 209    1.2647952331112e-06
 210    -4.6344170451743e-06
 211    4.9213791054564e-07
 212    2.8253210745533e-06
 213    -4.9868656125847e-07
 214    -3.1321072962527e-06
 215    -6.7353078965406e-07
 216    4.2148216463648e-07
 217    5.5823351470063e-07
 218    1.6133338440698e-06
 219    2.0820117013918e-07
 220    9.5614089107788e-07
 221    -9.6784629357651e-07
 222    -8.2490473060121e-06
 223    -1.9523244000514e-06
 224    1.7234793821777e-06
 225    -4.9198867367634e-06
 226    2.5235707141699e-06
 227    1.6303447838545e-05
 228    2.2921070358441e-05
 229    -9.851874767332e-05
 230    -1.274344086732e-06
 231    -4.1409452909309e-06
 232    -2.3612237364408e-06
 233    1.7997691213466e-06
 234    3.0722448714441e-06
 235    -1.0061295576824e-06
 236    -1.3093752628426e-05
 237    2.5647534720048e-05
 238    -2.2139388173517e-06
 239    8.6386548703739e-06
 240    6.455964088976e-06
 241    -2.2213358663284e-05
 242    -4.2484347200725e-06
 243    -9.6328606488058e-05
 244    2.1157320328921e-06
 245    7.1714376817388e-06
 246    1.8251571037971e-06
 247    2.5610480247594e-06
 248    1.7972889808849e-06
 249    -4.1083712973541e-06
 250    1.1469285080509e-05
 251    -4.724112368191e-06
 252    -2.7962611217648e-05
 253    0.00025533986879226
 254    5.819504198256e-06
 255    -4.3222017724944e-06
 256    5.0951139320725e-06
 257    0.00011050598459664
 258    0.00011811535740086
 259    -0.00024847687000933
 260    1.674349302375e-06
 261    -1.2836032909104e-05
 262    -5.5411163634016e-06
 263    7.915196143137e-06
 264    6.7882340195359e-06
 265    -5.4703327470123e-06
 266    2.8336151801945e-05
 267    -8.7045671894361e-06
 268    4.2421969117768e-05
 269    -7.3098703409828e-05
 270    9.9229380594847e-06
 271    0.0033559954424407
 272    -0.00012010290779539
 273    -0.00025558921149709
 274    0.00013962387170926
 275    0.0021690446031265
 276    0.00062129990575346
 277    -0.0035195065903887
 278    0.00024214153282932
 279    -0.00022287767802965
 280    0.00015309088960767