[Molden Format]
made by pyscf v[2.0.1]
[Atoms] (AU)
C   1   6     0.69100024066471     0.64692934207205    -3.48223131169301
H   2   1     2.68052439830868     1.13355088658700    -3.25784032593313
C   3   6    -0.36286361513219     0.85440132524594    -5.97030179418974
H   4   1    -2.35448549047279     0.36322488579172    -6.17995817793143
C   5   6     0.93697958957450     1.61209284601821    -8.05828437677121
H   6   1     1.52220939200985     3.58023657898303    -8.21595213017833
C   7   6     1.59282573286669    -0.05175011382745   -10.09734693546315
H   8   1     0.99474836942587    -2.01839690080961    -9.91207388765078
H   9   1     1.55630230933075    -1.92953025305990    12.99630010416247
C   10   6     0.75233899775814    -2.21270439606481    11.10705728102219
H   11   1    -0.43433408177274    -3.90944857546550    11.22216085340412
C   12   6     2.86362581178706    -2.63237380607947     9.17926416456045
H   13   1     4.39038949912609    -1.24955421540245     9.49899813497433
H   14   1     3.74629220191363    -4.48798724300892     9.47414880959024
C   15   6     2.02478325613682    -2.42177285709634     6.44560829588644
C   16   6     3.88048732735477    -3.58795445234514     4.61402886975252
C   17   6    -0.18412382258602    -1.30464291234259     5.76021113872346
C   18   6    -2.10044360464350    -0.26837831858460     7.71610340967100
C   19   6    -3.08956938670431     2.35282328359417     6.88693925039594
C   20   6    -4.37372924086464    -2.09766595989678     7.93610724222001
C   21   6    -0.83850430601230     0.06372213486173    10.33002307638377
H   22   1     0.38411922151109     1.74281358582432    10.27380136542181
H   23   1    -2.30980003007874     0.45460143924521    11.73986301809809
H   24   1     4.58527064644668    -5.38706904487420     5.36778158031719
H   25   1     5.54944938085014    -2.37631462192748     4.35398898413318
H   26   1     3.06633019150423    -3.94118377050688     2.75255466040884
H   27   1    -4.17727778763735     2.26573369139522     5.12914900961283
H   28   1    -1.52662344944051     3.68001877445626     6.59540397144508
H   29   1    -4.32916174397830     3.13643051467482     8.35225460090378
H   30   1    -5.32329548508442    -2.36691813602939     6.11583672749896
H   31   1    -5.77989366602257    -1.33896741843465     9.25748940450990
H   32   1    -3.79310905208926    -3.96389819310853     8.61386170102686
C   33   6    -1.01100794811226    -1.06331657314144     3.11929490449947
C   34   6     0.37686231036534    -0.33275864505552     1.09165013605873
H   35   1    -3.01671213906703    -1.40297922279997     2.77827895090944
C   36   6    -0.64382707979370    -0.11591880174385    -1.42063131251064
H   37   1     2.35569259782137     0.17174499283897     1.33641070251401
H   38   1    -2.63317482980319    -0.60229203511219    -1.66119700387645
C   39   6     2.88089126504443     0.61821658123040   -12.21129238571255
C   40   6     3.45664863859100    -1.22033421200677   -14.18493293343049
H   41   1     3.53070761900678     2.54536442784122   -12.51396089296279
O   42   8     4.60321296142939    -0.74877588551315   -16.13014426558594
H   43   1     2.75622344406002    -3.16930929543288   -13.79624335354022
[GTO]
1 0
 s    6 1.00
             3047.5249  0.0018347001629433
             457.36951    0.01403730124668
             103.94869   0.068842606114048
             29.210155    0.23218442062076
              9.286663    0.46794134155879
              3.163927    0.36231203217765
 s    3 1.00
             7.8682724   -0.11933240861517
             1.8812885   -0.16085421161283
             0.5442493     1.1434564825515
 s    1 1.00
             0.1687144                   1
 p    3 1.00
             7.8682724   0.068999095584993
             1.8812885    0.31642397975315
             0.5442493    0.74430825237435
 p    1 1.00
             0.1687144                   1
 d    1 1.00
                   0.8                   1

2 0
 s    3 1.00
             18.731137    0.03349459952309
             2.8253937    0.23472694665786
             0.6401217    0.81375731841339
 s    1 1.00
             0.1612778                   1

3 0
 s    6 1.00
             3047.5249  0.0018347001629433
             457.36951    0.01403730124668
             103.94869   0.068842606114048
             29.210155    0.23218442062076
              9.286663    0.46794134155879
              3.163927    0.36231203217765
 s    3 1.00
             7.8682724   -0.11933240861517
             1.8812885   -0.16085421161283
             0.5442493     1.1434564825515
 s    1 1.00
             0.1687144                   1
 p    3 1.00
             7.8682724   0.068999095584993
             1.8812885    0.31642397975315
             0.5442493    0.74430825237435
 p    1 1.00
             0.1687144                   1
 d    1 1.00
                   0.8                   1

4 0
 s    3 1.00
             18.731137    0.03349459952309
             2.8253937    0.23472694665786
             0.6401217    0.81375731841339
 s    1 1.00
             0.1612778                   1

5 0
 s    6 1.00
             3047.5249  0.0018347001629433
             457.36951    0.01403730124668
             103.94869   0.068842606114048
             29.210155    0.23218442062076
              9.286663    0.46794134155879
              3.163927    0.36231203217765
 s    3 1.00
             7.8682724   -0.11933240861517
             1.8812885   -0.16085421161283
             0.5442493     1.1434564825515
 s    1 1.00
             0.1687144                   1
 p    3 1.00
             7.8682724   0.068999095584993
             1.8812885    0.31642397975315
             0.5442493    0.74430825237435
 p    1 1.00
             0.1687144                   1
 d    1 1.00
                   0.8                   1

6 0
 s    3 1.00
             18.731137    0.03349459952309
             2.8253937    0.23472694665786
             0.6401217    0.81375731841339
 s    1 1.00
             0.1612778                   1

7 0
 s    6 1.00
             3047.5249  0.0018347001629433
             457.36951    0.01403730124668
             103.94869   0.068842606114048
             29.210155    0.23218442062076
              9.286663    0.46794134155879
              3.163927    0.36231203217765
 s    3 1.00
             7.8682724   -0.11933240861517
             1.8812885   -0.16085421161283
             0.5442493     1.1434564825515
 s    1 1.00
             0.1687144                   1
 p    3 1.00
             7.8682724   0.068999095584993
             1.8812885    0.31642397975315
             0.5442493    0.74430825237435
 p    1 1.00
             0.1687144                   1
 d    1 1.00
                   0.8                   1

8 0
 s    3 1.00
             18.731137    0.03349459952309
             2.8253937    0.23472694665786
             0.6401217    0.81375731841339
 s    1 1.00
             0.1612778                   1

9 0
 s    3 1.00
             18.731137    0.03349459952309
             2.8253937    0.23472694665786
             0.6401217    0.81375731841339
 s    1 1.00
             0.1612778                   1

10 0
 s    6 1.00
             3047.5249  0.0018347001629433
             457.36951    0.01403730124668
             103.94869   0.068842606114048
             29.210155    0.23218442062076
              9.286663    0.46794134155879
              3.163927    0.36231203217765
 s    3 1.00
             7.8682724   -0.11933240861517
             1.8812885   -0.16085421161283
             0.5442493     1.1434564825515
 s    1 1.00
             0.1687144                   1
 p    3 1.00
             7.8682724   0.068999095584993
             1.8812885    0.31642397975315
             0.5442493    0.74430825237435
 p    1 1.00
             0.1687144                   1
 d    1 1.00
                   0.8                   1

11 0
 s    3 1.00
             18.731137    0.03349459952309
             2.8253937    0.23472694665786
             0.6401217    0.81375731841339
 s    1 1.00
             0.1612778                   1

12 0
 s    6 1.00
             3047.5249  0.0018347001629433
             457.36951    0.01403730124668
             103.94869   0.068842606114048
             29.210155    0.23218442062076
              9.286663    0.46794134155879
              3.163927    0.36231203217765
 s    3 1.00
             7.8682724   -0.11933240861517
             1.8812885   -0.16085421161283
             0.5442493     1.1434564825515
 s    1 1.00
             0.1687144                   1
 p    3 1.00
             7.8682724   0.068999095584993
             1.8812885    0.31642397975315
             0.5442493    0.74430825237435
 p    1 1.00
             0.1687144                   1
 d    1 1.00
                   0.8                   1

13 0
 s    3 1.00
             18.731137    0.03349459952309
             2.8253937    0.23472694665786
             0.6401217    0.81375731841339
 s    1 1.00
             0.1612778                   1

14 0
 s    3 1.00
             18.731137    0.03349459952309
             2.8253937    0.23472694665786
             0.6401217    0.81375731841339
 s    1 1.00
             0.1612778                   1

15 0
 s    6 1.00
             3047.5249  0.0018347001629433
             457.36951    0.01403730124668
             103.94869   0.068842606114048
             29.210155    0.23218442062076
              9.286663    0.46794134155879
              3.163927    0.36231203217765
 s    3 1.00
             7.8682724   -0.11933240861517
             1.8812885   -0.16085421161283
             0.5442493     1.1434564825515
 s    1 1.00
             0.1687144                   1
 p    3 1.00
             7.8682724   0.068999095584993
             1.8812885    0.31642397975315
             0.5442493    0.74430825237435
 p    1 1.00
             0.1687144                   1
 d    1 1.00
                   0.8                   1

16 0
 s    6 1.00
             3047.5249  0.0018347001629433
             457.36951    0.01403730124668
             103.94869   0.068842606114048
             29.210155    0.23218442062076
              9.286663    0.46794134155879
              3.163927    0.36231203217765
 s    3 1.00
             7.8682724   -0.11933240861517
             1.8812885   -0.16085421161283
             0.5442493     1.1434564825515
 s    1 1.00
             0.1687144                   1
 p    3 1.00
             7.8682724   0.068999095584993
             1.8812885    0.31642397975315
             0.5442493    0.74430825237435
 p    1 1.00
             0.1687144                   1
 d    1 1.00
                   0.8                   1

17 0
 s    6 1.00
             3047.5249  0.0018347001629433
             457.36951    0.01403730124668
             103.94869   0.068842606114048
             29.210155    0.23218442062076
              9.286663    0.46794134155879
              3.163927    0.36231203217765
 s    3 1.00
             7.8682724   -0.11933240861517
             1.8812885   -0.16085421161283
             0.5442493     1.1434564825515
 s    1 1.00
             0.1687144                   1
 p    3 1.00
             7.8682724   0.068999095584993
             1.8812885    0.31642397975315
             0.5442493    0.74430825237435
 p    1 1.00
             0.1687144                   1
 d    1 1.00
                   0.8                   1

18 0
 s    6 1.00
             3047.5249  0.0018347001629433
             457.36951    0.01403730124668
             103.94869   0.068842606114048
             29.210155    0.23218442062076
              9.286663    0.46794134155879
              3.163927    0.36231203217765
 s    3 1.00
             7.8682724   -0.11933240861517
             1.8812885   -0.16085421161283
             0.5442493     1.1434564825515
 s    1 1.00
             0.1687144                   1
 p    3 1.00
             7.8682724   0.068999095584993
             1.8812885    0.31642397975315
             0.5442493    0.74430825237435
 p    1 1.00
             0.1687144                   1
 d    1 1.00
                   0.8                   1

19 0
 s    6 1.00
             3047.5249  0.0018347001629433
             457.36951    0.01403730124668
             103.94869   0.068842606114048
             29.210155    0.23218442062076
              9.286663    0.46794134155879
              3.163927    0.36231203217765
 s    3 1.00
             7.8682724   -0.11933240861517
             1.8812885   -0.16085421161283
             0.5442493     1.1434564825515
 s    1 1.00
             0.1687144                   1
 p    3 1.00
             7.8682724   0.068999095584993
             1.8812885    0.31642397975315
             0.5442493    0.74430825237435
 p    1 1.00
             0.1687144                   1
 d    1 1.00
                   0.8                   1

20 0
 s    6 1.00
             3047.5249  0.0018347001629433
             457.36951    0.01403730124668
             103.94869   0.068842606114048
             29.210155    0.23218442062076
              9.286663    0.46794134155879
              3.163927    0.36231203217765
 s    3 1.00
             7.8682724   -0.11933240861517
             1.8812885   -0.16085421161283
             0.5442493     1.1434564825515
 s    1 1.00
             0.1687144                   1
 p    3 1.00
             7.8682724   0.068999095584993
             1.8812885    0.31642397975315
             0.5442493    0.74430825237435
 p    1 1.00
             0.1687144                   1
 d    1 1.00
                   0.8                   1

21 0
 s    6 1.00
             3047.5249  0.0018347001629433
             457.36951    0.01403730124668
             103.94869   0.068842606114048
             29.210155    0.23218442062076
              9.286663    0.46794134155879
              3.163927    0.36231203217765
 s    3 1.00
             7.8682724   -0.11933240861517
             1.8812885   -0.16085421161283
             0.5442493     1.1434564825515
 s    1 1.00
             0.1687144                   1
 p    3 1.00
             7.8682724   0.068999095584993
             1.8812885    0.31642397975315
             0.5442493    0.74430825237435
 p    1 1.00
             0.1687144                   1
 d    1 1.00
                   0.8                   1

22 0
 s    3 1.00
             18.731137    0.03349459952309
             2.8253937    0.23472694665786
             0.6401217    0.81375731841339
 s    1 1.00
             0.1612778                   1

23 0
 s    3 1.00
             18.731137    0.03349459952309
             2.8253937    0.23472694665786
             0.6401217    0.81375731841339
 s    1 1.00
             0.1612778                   1

24 0
 s    3 1.00
             18.731137    0.03349459952309
             2.8253937    0.23472694665786
             0.6401217    0.81375731841339
 s    1 1.00
             0.1612778                   1

25 0
 s    3 1.00
             18.731137    0.03349459952309
             2.8253937    0.23472694665786
             0.6401217    0.81375731841339
 s    1 1.00
             0.1612778                   1

26 0
 s    3 1.00
             18.731137    0.03349459952309
             2.8253937    0.23472694665786
             0.6401217    0.81375731841339
 s    1 1.00
             0.1612778                   1

27 0
 s    3 1.00
             18.731137    0.03349459952309
             2.8253937    0.23472694665786
             0.6401217    0.81375731841339
 s    1 1.00
             0.1612778                   1

28 0
 s    3 1.00
             18.731137    0.03349459952309
             2.8253937    0.23472694665786
             0.6401217    0.81375731841339
 s    1 1.00
             0.1612778                   1

29 0
 s    3 1.00
             18.731137    0.03349459952309
             2.8253937    0.23472694665786
             0.6401217    0.81375731841339
 s    1 1.00
             0.1612778                   1

30 0
 s    3 1.00
             18.731137    0.03349459952309
             2.8253937    0.23472694665786
             0.6401217    0.81375731841339
 s    1 1.00
             0.1612778                   1

31 0
 s    3 1.00
             18.731137    0.03349459952309
             2.8253937    0.23472694665786
             0.6401217    0.81375731841339
 s    1 1.00
             0.1612778                   1

32 0
 s    3 1.00
             18.731137    0.03349459952309
             2.8253937    0.23472694665786
             0.6401217    0.81375731841339
 s    1 1.00
             0.1612778                   1

33 0
 s    6 1.00
             3047.5249  0.0018347001629433
             457.36951    0.01403730124668
             103.94869   0.068842606114048
             29.210155    0.23218442062076
              9.286663    0.46794134155879
              3.163927    0.36231203217765
 s    3 1.00
             7.8682724   -0.11933240861517
             1.8812885   -0.16085421161283
             0.5442493     1.1434564825515
 s    1 1.00
             0.1687144                   1
 p    3 1.00
             7.8682724   0.068999095584993
             1.8812885    0.31642397975315
             0.5442493    0.74430825237435
 p    1 1.00
             0.1687144                   1
 d    1 1.00
                   0.8                   1

34 0
 s    6 1.00
             3047.5249  0.0018347001629433
             457.36951    0.01403730124668
             103.94869   0.068842606114048
             29.210155    0.23218442062076
              9.286663    0.46794134155879
              3.163927    0.36231203217765
 s    3 1.00
             7.8682724   -0.11933240861517
             1.8812885   -0.16085421161283
             0.5442493     1.1434564825515
 s    1 1.00
             0.1687144                   1
 p    3 1.00
             7.8682724   0.068999095584993
             1.8812885    0.31642397975315
             0.5442493    0.74430825237435
 p    1 1.00
             0.1687144                   1
 d    1 1.00
                   0.8                   1

35 0
 s    3 1.00
             18.731137    0.03349459952309
             2.8253937    0.23472694665786
             0.6401217    0.81375731841339
 s    1 1.00
             0.1612778                   1

36 0
 s    6 1.00
             3047.5249  0.0018347001629433
             457.36951    0.01403730124668
             103.94869   0.068842606114048
             29.210155    0.23218442062076
              9.286663    0.46794134155879
              3.163927    0.36231203217765
 s    3 1.00
             7.8682724   -0.11933240861517
             1.8812885   -0.16085421161283
             0.5442493     1.1434564825515
 s    1 1.00
             0.1687144                   1
 p    3 1.00
             7.8682724   0.068999095584993
             1.8812885    0.31642397975315
             0.5442493    0.74430825237435
 p    1 1.00
             0.1687144                   1
 d    1 1.00
                   0.8                   1

37 0
 s    3 1.00
             18.731137    0.03349459952309
             2.8253937    0.23472694665786
             0.6401217    0.81375731841339
 s    1 1.00
             0.1612778                   1

38 0
 s    3 1.00
             18.731137    0.03349459952309
             2.8253937    0.23472694665786
             0.6401217    0.81375731841339
 s    1 1.00
             0.1612778                   1

39 0
 s    6 1.00
             3047.5249  0.0018347001629433
             457.36951    0.01403730124668
             103.94869   0.068842606114048
             29.210155    0.23218442062076
              9.286663    0.46794134155879
              3.163927    0.36231203217765
 s    3 1.00
             7.8682724   -0.11933240861517
             1.8812885   -0.16085421161283
             0.5442493     1.1434564825515
 s    1 1.00
             0.1687144                   1
 p    3 1.00
             7.8682724   0.068999095584993
             1.8812885    0.31642397975315
             0.5442493    0.74430825237435
 p    1 1.00
             0.1687144                   1
 d    1 1.00
                   0.8                   1

40 0
 s    6 1.00
             3047.5249  0.0018347001629433
             457.36951    0.01403730124668
             103.94869   0.068842606114048
             29.210155    0.23218442062076
              9.286663    0.46794134155879
              3.163927    0.36231203217765
 s    3 1.00
             7.8682724   -0.11933240861517
             1.8812885   -0.16085421161283
             0.5442493     1.1434564825515
 s    1 1.00
             0.1687144                   1
 p    3 1.00
             7.8682724   0.068999095584993
             1.8812885    0.31642397975315
             0.5442493    0.74430825237435
 p    1 1.00
             0.1687144                   1
 d    1 1.00
                   0.8                   1

41 0
 s    3 1.00
             18.731137    0.03349459952309
             2.8253937    0.23472694665786
             0.6401217    0.81375731841339
 s    1 1.00
             0.1612778                   1

42 0
 s    6 1.00
             5484.6717   0.001831099805527
             825.23495   0.013950098518422
             188.04696    0.06844509273075
               52.9645    0.23271427528445
              16.89757    0.47019295006289
             5.7996353    0.35852086192309
 s    3 1.00
             15.539616   -0.11077750382508
             3.5999336   -0.14802630511126
             1.0137618     1.1307670390447
 s    1 1.00
             0.2700058                   1
 p    3 1.00
             15.539616   0.070874299543311
             3.5999336    0.33975279781076
             1.0137618    0.72715859531445
 p    1 1.00
             0.2700058                   1
 d    1 1.00
                   0.8                   1

43 0
 s    3 1.00
             18.731137    0.03349459952309
             2.8253937    0.23472694665786
             0.6401217    0.81375731841339
 s    1 1.00
             0.1612778                   1

[5d]
[7f]
[9g]

[MO]
 Sym= A
 Ene=               0
 Spin= Alpha
 Occup=    1.00000
   1    4.2603972383592e-07
   2    -2.6243250073439e-05
   3    0.00010321441860583
   4    -1.37884450267e-06
   5    5.8414092873737e-06
   6    2.2403573322758e-05
   7    -3.5061070354771e-05
   8    -1.6494927958577e-05
   9    -0.00025031194653866
  10    -1.7244257610006e-06
  11    8.6430339052238e-06
  12    3.9205588280199e-06
  13    1.2242929855052e-05
  14    -6.6725117816559e-06
  15    -9.533417780399e-06
  16    2.9540024099542e-05
  17    2.6482040310742e-06
  18    0.00014637805511199
  19    0.00063044370484936
  20    5.3265822554492e-05
  21    -9.5249402247361e-06
  22    -8.4527850601944e-05
  23    0.00017465003798163
  24    -4.2518614871393e-05
  25    -0.00073432678513136
  26    2.4229185865413e-05
  27    -2.2699826017683e-05
  28    -1.9825904891739e-06
  29    4.3892333037093e-05
  30    -1.7918415574526e-05
  31    -5.2757716558314e-06
  32    1.8673754588283e-05
  33    8.0495525241888e-05
  34    0.00029641474544354
  35    -0.0047724329876329
  36    -8.443463999383e-05
  37    7.6066042596757e-05
  38    0.00023338629844561
  39    9.5257195894382e-05
  40    0.0019955994217134
  41    0.00089060305012253
  42    -6.4236314796998e-05
  43    8.8272810231704e-05
  44    -9.5725287399063e-05
  45    4.4753550171497e-05
  46    1.1569389211631e-05
  47    -9.7018295393622e-06
  48    -0.00027293194183113
  49    -5.3935817002608e-05
  50    0.00031740666694154
  51    0.0039092010835964
  52    0.00017530531938573
  53    -0.00034181417164804
  54    -0.00052159214187969
  55    -0.00084642851315732
  56    0.0026045297826973
  57    0.0028361103592599
  58    2.1455664973347e-05
  59    6.3977905860658e-05
  60    0.00019213692143251
  61    -1.3377911877579e-06
  62    -0.00011939248901767
  63    0.00041904298383371
  64    0.0001442475949879
  65    -2.3654253832109e-07
  66    -6.2843391665535e-07
  67    -4.7148628775704e-08
  68    -3.4734998897129e-07
  69    3.0417725151939e-06
  70    2.3824866324124e-07
  71    -2.8672658609609e-07
  72    -1.5363069429414e-09
  73    2.2856872742336e-08
  74    1.1491511022579e-06
  75    6.1009700907425e-07
  76    -6.0689637512584e-08
  77    -1.2822589553437e-07
  78    3.9286225149483e-08
  79    6.5528654006927e-08
  80    -9.9019099336198e-08
  81    3.7187812995125e-08
  82    -1.2434419086858e-07
  83    -3.8254571123573e-08
  84    -1.1323512543776e-07
  85    -8.95385288525e-06
  86    3.5112907186008e-07
  87    1.308532677253e-07
  88    4.9023544073408e-07
  89    2.6627694594999e-06
  90    -3.5830197377312e-06
  91    1.7319044163923e-06
  92    1.6884016917052e-07
  93    -2.452414584613e-07
  94    1.5939471733693e-07
  95    1.7660462764161e-08
  96    -1.5969908548446e-07
  97    1.7664641474701e-07
  98    5.246214861266e-08
  99    7.4785994829061e-08
 100    -5.8160364690197e-07
 101    3.7521354029644e-08
 102    -1.338294300054e-06
 103    1.0117717874199e-05
 104     9.50800834072e-07
 105    2.9832911584864e-07
 106    -1.1139253296468e-07
 107    -1.4001043599372e-05
 108    1.3490106967268e-05
 109    2.1955397989266e-05
 110    -5.3266636142232e-07
 111    -4.9188791109639e-07
 112    2.5190223554827e-07
 113    6.0999439546497e-07
 114    -2.8305976260554e-07
 115    -5.0909912331984e-07
 116    -4.5061420085645e-06
 117    3.2620080478902e-05
 118    -5.7577943295282e-07
 119    9.6852267240386e-07
 120    5.933097826316e-07
 121    -6.4620280798821e-06
 122    -8.5283507808103e-08
 123    -8.23738581377e-07
 124    -5.1701209944737e-08
 125    2.5712140975659e-08
 126    -1.1015505968254e-07
 127    -7.21589425085e-08
 128    -2.4756377820133e-07
 129    -7.3103483570776e-07
 130    -8.3040282165711e-06
 131    3.1969839493239e-05
 132    -6.4420094835065e-07
 133    -2.0143996992774e-06
 134    3.8668594441474e-06
 135    -1.5433675299109e-05
 136    3.8685015687607e-06
 137    -5.8936233479479e-05
 138    2.003346250756e-06
 139    9.7490047732633e-07
 140    1.9948248631933e-07
 141    3.9174146540235e-07
 142    1.0937588189167e-07
 143    -3.3838910785438e-07
 144    -1.5615388876621e-06
 145    1.2884196370423e-05
 146    7.5497144984711e-07
 147    9.1645998190691e-07
 148    -5.8833976186956e-07
 149    8.3692658078331e-06
 150    -1.0402431479967e-05
 151    1.6271239667086e-06
 152    -9.1414003710631e-07
 153    -2.2474118028803e-07
 154    1.2947901752612e-07
 155    5.901380053503e-07
 156    -4.2645755766797e-07
 157    -1.0448533425406e-07
 158    4.4126449209929e-07
 159    6.0589046790501e-06
 160    7.4422074922161e-07
 161    -5.506611354641e-07
 162    1.6694442095469e-08
 163    -3.9029374256417e-06
 164    -1.747989664375e-06
 165    4.061437561231e-07
 166    1.5016742326237e-07
 167    6.6277142268157e-08
 168    -5.2145484826555e-08
 169    -1.5348019991107e-07
 170    9.3158015031465e-08
 171    7.4347413337854e-08
 172    -4.5210845887662e-07
 173    -2.7985996904018e-06
 174    -8.2247240520486e-07
 175    -1.9731685033685e-07
 176    6.2187478635549e-07
 177    -1.4936158559851e-06
 178    3.0523321099869e-07
 179    -2.7303545879327e-06
 180    1.8347974312013e-07
 181    1.6102995699025e-08
 182    -6.6052890270615e-08
 183    -3.828185649241e-07
 184    4.6950855824733e-08
 185    -1.7328362719123e-07
 186    -2.1750018614692e-06
 187    6.4268970963009e-08
 188    -6.2117941567931e-08
 189    1.370457538431e-07
 190    1.0232387707717e-06
 191    2.7691295299047e-06
 192    2.1332004994836e-06
 193    -4.1995524835932e-06
 194    3.5235283557753e-07
 195    -1.2328503794726e-07
 196    -7.3625195556796e-08
 197    6.0860167663835e-08
 198    -1.0914053407342e-07
 199    -6.4597556376953e-07
 200    -1.7844830755453e-06
 201    2.4344783995393e-07
 202    3.1605278665956e-06
 203    -1.4726578098471e-06
 204    -1.5643420574791e-06
 205    -7.22494131415e-07
 206    -2.5496264909659e-06
 207    2.0367888550736e-06
 208    -1.5563307652987e-05
 209    6.8773513461669e-07
 210    -3.6658562061414e-06
 211    8.3775942329758e-08
 212    2.0180351674946e-06
 213    -3.7656067001579e-07
 214    -2.1055173239228e-06
 215    -3.260856967433e-07
 216    -1.2912868490459e-06
 217    4.216285093563e-07
 218    1.3666593316606e-06
 219    6.3569387317691e-08
 220    1.0870277193044e-06
 221    -5.8829458326917e-07
 222    -5.3998990524481e-06
 223    -1.4486389648816e-05
 224    2.0777815273222e-07
 225    -2.253907851962e-06
 226    1.8447023030722e-06
 227    1.6589833866327e-05
 228    1.425607889959e-05
 229    -5.2165996278519e-05
 230    -1.5756627868587e-06
 231    -2.3714116082373e-06
 232    -1.5845784415373e-06
 233    1.1425613101495e-06
 234    2.4999223300413e-06
 235    -1.722335656999e-06
 236    -1.7111980565365e-05
 237    9.9216310655824e-05
 238    -1.5023464335111e-06
 239    7.2346879047739e-06
 240    3.8515480550903e-06
 241    -3.7736055624348e-05
 242    -1.2921635273356e-05
 243    -0.00010464669176892
 244    4.7104408652985e-06
 245    5.9152964045418e-06
 246    1.9747126609874e-06
 247    2.1748564450362e-06
 248    2.7827639898183e-06
 249    -1.5746013043924e-06
 250    1.2735427323349e-05
 251    -3.0731659152884e-06
 252    -1.5859701432641e-05
 253    6.5840346832305e-05
 254    8.358575103173e-06
 255    -9.4630587400291e-06
 256    6.8965251536627e-06
 257    3.1449922810097e-05
 258    0.00011121007938024
 259    -0.00020393904675836
 260    -1.9277011688476e-06
 261    -9.6717060579011e-06
 262    -5.5671644028663e-06
 263    4.6763875837222e-06
 264    7.976932347145e-06
 265    -4.8716171996577e-06
 266    2.4656868345388e-05
 267    -9.9184859929579e-06
 268    3.1688096042552e-05
 269    -7.2792882598152e-05
 270    1.263442347474e-05
 271     0.003327646321534
 272    -0.00015703801875907
 273    -0.00024384331104183
 274    0.00012077777101049
 275    0.0020427332251845
 276    0.00065152182687516
 277    -0.0036125299477845
 278    0.00030015726542517
 279    -0.00018671029983544
 280    0.00011681458641351