[Molden Format]
made by pyscf v[2.0.1]
[Atoms] (AU)
C   1   6     0.69100024066471     0.64692934207205    -3.48223131169301
H   2   1     2.68052439830868     1.13355088658700    -3.25784032593313
C   3   6    -0.36286361513219     0.85440132524594    -5.97030179418974
H   4   1    -2.35448549047279     0.36322488579172    -6.17995817793143
C   5   6     0.93697958957450     1.61209284601821    -8.05828437677121
H   6   1     1.79023114573091     3.48620134168797    -8.08322278856913
C   7   6     1.25568723688000     0.06665493916240   -10.26426053014808
H   8   1     0.39118722523993    -1.80671768770582   -10.21099750517578
H   9   1     1.55630230933075    -1.92953025305990    12.99630010416247
C   10   6     0.75233899775814    -2.21270439606481    11.10705728102219
H   11   1    -0.43433408177274    -3.90944857546550    11.22216085340412
C   12   6     2.86362581178706    -2.63237380607947     9.17926416456045
H   13   1     4.39038949912609    -1.24955421540245     9.49899813497433
H   14   1     3.74629220191363    -4.48798724300892     9.47414880959024
C   15   6     2.02478325613682    -2.42177285709634     6.44560829588644
C   16   6     3.88048732735477    -3.58795445234514     4.61402886975252
C   17   6    -0.18412382258602    -1.30464291234259     5.76021113872346
C   18   6    -2.10044360464350    -0.26837831858460     7.71610340967100
C   19   6    -3.08956938670431     2.35282328359417     6.88693925039594
C   20   6    -4.37372924086464    -2.09766595989678     7.93610724222001
C   21   6    -0.83850430601230     0.06372213486173    10.33002307638377
H   22   1     0.38411922151109     1.74281358582432    10.27380136542181
H   23   1    -2.30980003007874     0.45460143924521    11.73986301809809
H   24   1     4.58527064644668    -5.38706904487420     5.36778158031719
H   25   1     5.54944938085014    -2.37631462192748     4.35398898413318
H   26   1     3.06633019150423    -3.94118377050688     2.75255466040884
H   27   1    -4.17727778763735     2.26573369139522     5.12914900961283
H   28   1    -1.52662344944051     3.68001877445626     6.59540397144508
H   29   1    -4.32916174397830     3.13643051467482     8.35225460090378
H   30   1    -5.32329548508442    -2.36691813602939     6.11583672749896
H   31   1    -5.77989366602257    -1.33896741843465     9.25748940450990
H   32   1    -3.79310905208926    -3.96389819310853     8.61386170102686
C   33   6    -1.01100794811226    -1.06331657314144     3.11929490449947
C   34   6     0.37686231036534    -0.33275864505552     1.09165013605873
H   35   1    -3.01671213906703    -1.40297922279997     2.77827895090944
C   36   6    -0.64382707979370    -0.11591880174385    -1.42063131251064
H   37   1     2.35569259782137     0.17174499283897     1.33641070251401
H   38   1    -2.63317482980319    -0.60229203511219    -1.66119700387645
C   39   6     2.53016326718275     0.74184279311179   -12.38477126217512
C   40   6     2.74761784180424    -0.97075180884473   -14.53576076061004
H   41   1     3.43489191747297     2.57981441042514   -12.56110828288274
O   42   8     3.86136937293188    -0.48701494751058   -16.49697984673750
H   43   1     1.79359090776017    -2.83108880557309   -14.27278208139205
[GTO]
1 0
 s    6 1.00
             3047.5249  0.0018347001629433
             457.36951    0.01403730124668
             103.94869   0.068842606114048
             29.210155    0.23218442062076
              9.286663    0.46794134155879
              3.163927    0.36231203217765
 s    3 1.00
             7.8682724   -0.11933240861517
             1.8812885   -0.16085421161283
             0.5442493     1.1434564825515
 s    1 1.00
             0.1687144                   1
 p    3 1.00
             7.8682724   0.068999095584993
             1.8812885    0.31642397975315
             0.5442493    0.74430825237435
 p    1 1.00
             0.1687144                   1
 d    1 1.00
                   0.8                   1

2 0
 s    3 1.00
             18.731137    0.03349459952309
             2.8253937    0.23472694665786
             0.6401217    0.81375731841339
 s    1 1.00
             0.1612778                   1

3 0
 s    6 1.00
             3047.5249  0.0018347001629433
             457.36951    0.01403730124668
             103.94869   0.068842606114048
             29.210155    0.23218442062076
              9.286663    0.46794134155879
              3.163927    0.36231203217765
 s    3 1.00
             7.8682724   -0.11933240861517
             1.8812885   -0.16085421161283
             0.5442493     1.1434564825515
 s    1 1.00
             0.1687144                   1
 p    3 1.00
             7.8682724   0.068999095584993
             1.8812885    0.31642397975315
             0.5442493    0.74430825237435
 p    1 1.00
             0.1687144                   1
 d    1 1.00
                   0.8                   1

4 0
 s    3 1.00
             18.731137    0.03349459952309
             2.8253937    0.23472694665786
             0.6401217    0.81375731841339
 s    1 1.00
             0.1612778                   1

5 0
 s    6 1.00
             3047.5249  0.0018347001629433
             457.36951    0.01403730124668
             103.94869   0.068842606114048
             29.210155    0.23218442062076
              9.286663    0.46794134155879
              3.163927    0.36231203217765
 s    3 1.00
             7.8682724   -0.11933240861517
             1.8812885   -0.16085421161283
             0.5442493     1.1434564825515
 s    1 1.00
             0.1687144                   1
 p    3 1.00
             7.8682724   0.068999095584993
             1.8812885    0.31642397975315
             0.5442493    0.74430825237435
 p    1 1.00
             0.1687144                   1
 d    1 1.00
                   0.8                   1

6 0
 s    3 1.00
             18.731137    0.03349459952309
             2.8253937    0.23472694665786
             0.6401217    0.81375731841339
 s    1 1.00
             0.1612778                   1

7 0
 s    6 1.00
             3047.5249  0.0018347001629433
             457.36951    0.01403730124668
             103.94869   0.068842606114048
             29.210155    0.23218442062076
              9.286663    0.46794134155879
              3.163927    0.36231203217765
 s    3 1.00
             7.8682724   -0.11933240861517
             1.8812885   -0.16085421161283
             0.5442493     1.1434564825515
 s    1 1.00
             0.1687144                   1
 p    3 1.00
             7.8682724   0.068999095584993
             1.8812885    0.31642397975315
             0.5442493    0.74430825237435
 p    1 1.00
             0.1687144                   1
 d    1 1.00
                   0.8                   1

8 0
 s    3 1.00
             18.731137    0.03349459952309
             2.8253937    0.23472694665786
             0.6401217    0.81375731841339
 s    1 1.00
             0.1612778                   1

9 0
 s    3 1.00
             18.731137    0.03349459952309
             2.8253937    0.23472694665786
             0.6401217    0.81375731841339
 s    1 1.00
             0.1612778                   1

10 0
 s    6 1.00
             3047.5249  0.0018347001629433
             457.36951    0.01403730124668
             103.94869   0.068842606114048
             29.210155    0.23218442062076
              9.286663    0.46794134155879
              3.163927    0.36231203217765
 s    3 1.00
             7.8682724   -0.11933240861517
             1.8812885   -0.16085421161283
             0.5442493     1.1434564825515
 s    1 1.00
             0.1687144                   1
 p    3 1.00
             7.8682724   0.068999095584993
             1.8812885    0.31642397975315
             0.5442493    0.74430825237435
 p    1 1.00
             0.1687144                   1
 d    1 1.00
                   0.8                   1

11 0
 s    3 1.00
             18.731137    0.03349459952309
             2.8253937    0.23472694665786
             0.6401217    0.81375731841339
 s    1 1.00
             0.1612778                   1

12 0
 s    6 1.00
             3047.5249  0.0018347001629433
             457.36951    0.01403730124668
             103.94869   0.068842606114048
             29.210155    0.23218442062076
              9.286663    0.46794134155879
              3.163927    0.36231203217765
 s    3 1.00
             7.8682724   -0.11933240861517
             1.8812885   -0.16085421161283
             0.5442493     1.1434564825515
 s    1 1.00
             0.1687144                   1
 p    3 1.00
             7.8682724   0.068999095584993
             1.8812885    0.31642397975315
             0.5442493    0.74430825237435
 p    1 1.00
             0.1687144                   1
 d    1 1.00
                   0.8                   1

13 0
 s    3 1.00
             18.731137    0.03349459952309
             2.8253937    0.23472694665786
             0.6401217    0.81375731841339
 s    1 1.00
             0.1612778                   1

14 0
 s    3 1.00
             18.731137    0.03349459952309
             2.8253937    0.23472694665786
             0.6401217    0.81375731841339
 s    1 1.00
             0.1612778                   1

15 0
 s    6 1.00
             3047.5249  0.0018347001629433
             457.36951    0.01403730124668
             103.94869   0.068842606114048
             29.210155    0.23218442062076
              9.286663    0.46794134155879
              3.163927    0.36231203217765
 s    3 1.00
             7.8682724   -0.11933240861517
             1.8812885   -0.16085421161283
             0.5442493     1.1434564825515
 s    1 1.00
             0.1687144                   1
 p    3 1.00
             7.8682724   0.068999095584993
             1.8812885    0.31642397975315
             0.5442493    0.74430825237435
 p    1 1.00
             0.1687144                   1
 d    1 1.00
                   0.8                   1

16 0
 s    6 1.00
             3047.5249  0.0018347001629433
             457.36951    0.01403730124668
             103.94869   0.068842606114048
             29.210155    0.23218442062076
              9.286663    0.46794134155879
              3.163927    0.36231203217765
 s    3 1.00
             7.8682724   -0.11933240861517
             1.8812885   -0.16085421161283
             0.5442493     1.1434564825515
 s    1 1.00
             0.1687144                   1
 p    3 1.00
             7.8682724   0.068999095584993
             1.8812885    0.31642397975315
             0.5442493    0.74430825237435
 p    1 1.00
             0.1687144                   1
 d    1 1.00
                   0.8                   1

17 0
 s    6 1.00
             3047.5249  0.0018347001629433
             457.36951    0.01403730124668
             103.94869   0.068842606114048
             29.210155    0.23218442062076
              9.286663    0.46794134155879
              3.163927    0.36231203217765
 s    3 1.00
             7.8682724   -0.11933240861517
             1.8812885   -0.16085421161283
             0.5442493     1.1434564825515
 s    1 1.00
             0.1687144                   1
 p    3 1.00
             7.8682724   0.068999095584993
             1.8812885    0.31642397975315
             0.5442493    0.74430825237435
 p    1 1.00
             0.1687144                   1
 d    1 1.00
                   0.8                   1

18 0
 s    6 1.00
             3047.5249  0.0018347001629433
             457.36951    0.01403730124668
             103.94869   0.068842606114048
             29.210155    0.23218442062076
              9.286663    0.46794134155879
              3.163927    0.36231203217765
 s    3 1.00
             7.8682724   -0.11933240861517
             1.8812885   -0.16085421161283
             0.5442493     1.1434564825515
 s    1 1.00
             0.1687144                   1
 p    3 1.00
             7.8682724   0.068999095584993
             1.8812885    0.31642397975315
             0.5442493    0.74430825237435
 p    1 1.00
             0.1687144                   1
 d    1 1.00
                   0.8                   1

19 0
 s    6 1.00
             3047.5249  0.0018347001629433
             457.36951    0.01403730124668
             103.94869   0.068842606114048
             29.210155    0.23218442062076
              9.286663    0.46794134155879
              3.163927    0.36231203217765
 s    3 1.00
             7.8682724   -0.11933240861517
             1.8812885   -0.16085421161283
             0.5442493     1.1434564825515
 s    1 1.00
             0.1687144                   1
 p    3 1.00
             7.8682724   0.068999095584993
             1.8812885    0.31642397975315
             0.5442493    0.74430825237435
 p    1 1.00
             0.1687144                   1
 d    1 1.00
                   0.8                   1

20 0
 s    6 1.00
             3047.5249  0.0018347001629433
             457.36951    0.01403730124668
             103.94869   0.068842606114048
             29.210155    0.23218442062076
              9.286663    0.46794134155879
              3.163927    0.36231203217765
 s    3 1.00
             7.8682724   -0.11933240861517
             1.8812885   -0.16085421161283
             0.5442493     1.1434564825515
 s    1 1.00
             0.1687144                   1
 p    3 1.00
             7.8682724   0.068999095584993
             1.8812885    0.31642397975315
             0.5442493    0.74430825237435
 p    1 1.00
             0.1687144                   1
 d    1 1.00
                   0.8                   1

21 0
 s    6 1.00
             3047.5249  0.0018347001629433
             457.36951    0.01403730124668
             103.94869   0.068842606114048
             29.210155    0.23218442062076
              9.286663    0.46794134155879
              3.163927    0.36231203217765
 s    3 1.00
             7.8682724   -0.11933240861517
             1.8812885   -0.16085421161283
             0.5442493     1.1434564825515
 s    1 1.00
             0.1687144                   1
 p    3 1.00
             7.8682724   0.068999095584993
             1.8812885    0.31642397975315
             0.5442493    0.74430825237435
 p    1 1.00
             0.1687144                   1
 d    1 1.00
                   0.8                   1

22 0
 s    3 1.00
             18.731137    0.03349459952309
             2.8253937    0.23472694665786
             0.6401217    0.81375731841339
 s    1 1.00
             0.1612778                   1

23 0
 s    3 1.00
             18.731137    0.03349459952309
             2.8253937    0.23472694665786
             0.6401217    0.81375731841339
 s    1 1.00
             0.1612778                   1

24 0
 s    3 1.00
             18.731137    0.03349459952309
             2.8253937    0.23472694665786
             0.6401217    0.81375731841339
 s    1 1.00
             0.1612778                   1

25 0
 s    3 1.00
             18.731137    0.03349459952309
             2.8253937    0.23472694665786
             0.6401217    0.81375731841339
 s    1 1.00
             0.1612778                   1

26 0
 s    3 1.00
             18.731137    0.03349459952309
             2.8253937    0.23472694665786
             0.6401217    0.81375731841339
 s    1 1.00
             0.1612778                   1

27 0
 s    3 1.00
             18.731137    0.03349459952309
             2.8253937    0.23472694665786
             0.6401217    0.81375731841339
 s    1 1.00
             0.1612778                   1

28 0
 s    3 1.00
             18.731137    0.03349459952309
             2.8253937    0.23472694665786
             0.6401217    0.81375731841339
 s    1 1.00
             0.1612778                   1

29 0
 s    3 1.00
             18.731137    0.03349459952309
             2.8253937    0.23472694665786
             0.6401217    0.81375731841339
 s    1 1.00
             0.1612778                   1

30 0
 s    3 1.00
             18.731137    0.03349459952309
             2.8253937    0.23472694665786
             0.6401217    0.81375731841339
 s    1 1.00
             0.1612778                   1

31 0
 s    3 1.00
             18.731137    0.03349459952309
             2.8253937    0.23472694665786
             0.6401217    0.81375731841339
 s    1 1.00
             0.1612778                   1

32 0
 s    3 1.00
             18.731137    0.03349459952309
             2.8253937    0.23472694665786
             0.6401217    0.81375731841339
 s    1 1.00
             0.1612778                   1

33 0
 s    6 1.00
             3047.5249  0.0018347001629433
             457.36951    0.01403730124668
             103.94869   0.068842606114048
             29.210155    0.23218442062076
              9.286663    0.46794134155879
              3.163927    0.36231203217765
 s    3 1.00
             7.8682724   -0.11933240861517
             1.8812885   -0.16085421161283
             0.5442493     1.1434564825515
 s    1 1.00
             0.1687144                   1
 p    3 1.00
             7.8682724   0.068999095584993
             1.8812885    0.31642397975315
             0.5442493    0.74430825237435
 p    1 1.00
             0.1687144                   1
 d    1 1.00
                   0.8                   1

34 0
 s    6 1.00
             3047.5249  0.0018347001629433
             457.36951    0.01403730124668
             103.94869   0.068842606114048
             29.210155    0.23218442062076
              9.286663    0.46794134155879
              3.163927    0.36231203217765
 s    3 1.00
             7.8682724   -0.11933240861517
             1.8812885   -0.16085421161283
             0.5442493     1.1434564825515
 s    1 1.00
             0.1687144                   1
 p    3 1.00
             7.8682724   0.068999095584993
             1.8812885    0.31642397975315
             0.5442493    0.74430825237435
 p    1 1.00
             0.1687144                   1
 d    1 1.00
                   0.8                   1

35 0
 s    3 1.00
             18.731137    0.03349459952309
             2.8253937    0.23472694665786
             0.6401217    0.81375731841339
 s    1 1.00
             0.1612778                   1

36 0
 s    6 1.00
             3047.5249  0.0018347001629433
             457.36951    0.01403730124668
             103.94869   0.068842606114048
             29.210155    0.23218442062076
              9.286663    0.46794134155879
              3.163927    0.36231203217765
 s    3 1.00
             7.8682724   -0.11933240861517
             1.8812885   -0.16085421161283
             0.5442493     1.1434564825515
 s    1 1.00
             0.1687144                   1
 p    3 1.00
             7.8682724   0.068999095584993
             1.8812885    0.31642397975315
             0.5442493    0.74430825237435
 p    1 1.00
             0.1687144                   1
 d    1 1.00
                   0.8                   1

37 0
 s    3 1.00
             18.731137    0.03349459952309
             2.8253937    0.23472694665786
             0.6401217    0.81375731841339
 s    1 1.00
             0.1612778                   1

38 0
 s    3 1.00
             18.731137    0.03349459952309
             2.8253937    0.23472694665786
             0.6401217    0.81375731841339
 s    1 1.00
             0.1612778                   1

39 0
 s    6 1.00
             3047.5249  0.0018347001629433
             457.36951    0.01403730124668
             103.94869   0.068842606114048
             29.210155    0.23218442062076
              9.286663    0.46794134155879
              3.163927    0.36231203217765
 s    3 1.00
             7.8682724   -0.11933240861517
             1.8812885   -0.16085421161283
             0.5442493     1.1434564825515
 s    1 1.00
             0.1687144                   1
 p    3 1.00
             7.8682724   0.068999095584993
             1.8812885    0.31642397975315
             0.5442493    0.74430825237435
 p    1 1.00
             0.1687144                   1
 d    1 1.00
                   0.8                   1

40 0
 s    6 1.00
             3047.5249  0.0018347001629433
             457.36951    0.01403730124668
             103.94869   0.068842606114048
             29.210155    0.23218442062076
              9.286663    0.46794134155879
              3.163927    0.36231203217765
 s    3 1.00
             7.8682724   -0.11933240861517
             1.8812885   -0.16085421161283
             0.5442493     1.1434564825515
 s    1 1.00
             0.1687144                   1
 p    3 1.00
             7.8682724   0.068999095584993
             1.8812885    0.31642397975315
             0.5442493    0.74430825237435
 p    1 1.00
             0.1687144                   1
 d    1 1.00
                   0.8                   1

41 0
 s    3 1.00
             18.731137    0.03349459952309
             2.8253937    0.23472694665786
             0.6401217    0.81375731841339
 s    1 1.00
             0.1612778                   1

42 0
 s    6 1.00
             5484.6717   0.001831099805527
             825.23495   0.013950098518422
             188.04696    0.06844509273075
               52.9645    0.23271427528445
              16.89757    0.47019295006289
             5.7996353    0.35852086192309
 s    3 1.00
             15.539616   -0.11077750382508
             3.5999336   -0.14802630511126
             1.0137618     1.1307670390447
 s    1 1.00
             0.2700058                   1
 p    3 1.00
             15.539616   0.070874299543311
             3.5999336    0.33975279781076
             1.0137618    0.72715859531445
 p    1 1.00
             0.2700058                   1
 d    1 1.00
                   0.8                   1

43 0
 s    3 1.00
             18.731137    0.03349459952309
             2.8253937    0.23472694665786
             0.6401217    0.81375731841339
 s    1 1.00
             0.1612778                   1

[5d]
[7f]
[9g]

[MO]
 Sym= A
 Ene=               0
 Spin= Alpha
 Occup=    1.00000
   1    1.7803398174589e-06
   2    -2.0855381801083e-05
   3    0.00012763172702385
   4    4.9798466980307e-07
   5    1.5619606643576e-05
   6    1.779823070967e-05
   7    -7.9911214956378e-05
   8    -8.5094762963109e-05
   9    -7.4208872295165e-05
  10    -4.6745406576904e-06
  11    3.4490264894315e-06
  12    3.4535087411022e-06
  13    9.5380705505573e-06
  14    -5.4143781458111e-06
  15    -1.1144289691138e-06
  16    3.2583501038163e-05
  17    -7.8714875668012e-07
  18    0.00011049080801814
  19    0.00084206979243971
  20    4.6036227743712e-05
  21    -1.0571315143652e-05
  22    -8.2623410590069e-05
  23    0.00021181390986047
  24    -4.0942128287455e-07
  25    -0.00075054551811572
  26    2.8351003132635e-05
  27    -2.2227071146109e-05
  28    -8.3261308508512e-06
  29    4.1137557147304e-05
  30    -2.5054113491259e-05
  31    -2.5019114600971e-06
  32    6.7151490497929e-06
  33    8.0327875224412e-05
  34    0.00028653054364741
  35    -0.004841509130622
  36    -6.5205107874178e-05
  37    6.7944499771285e-05
  38    0.00023394009155875
  39    0.00044207445492848
  40    0.0018948328812658
  41    0.0010370715176079
  42    -8.7831412072309e-05
  43    6.6794508582038e-05
  44    -0.00010035261202916
  45    4.1342399202864e-05
  46    -1.249176527712e-05
  47    -1.1640461057785e-05
  48    -0.00028054750147522
  49    -5.4227640426036e-05
  50    0.00031623834319932
  51    0.0039477924133192
  52    0.0001024901341692
  53    -0.00031516432523258
  54    -0.000554674651105
  55    -0.00033313808517748
  56    0.0024412981045595
  57    0.0030761750129292
  58    4.4171019193545e-05
  59    8.2037251919232e-05
  60    0.0001838204067949
  61    -1.3671810703441e-05
  62    -0.00011492287926876
  63    0.00042027850308716
  64    0.00014558032823903
  65    -1.8755847455399e-07
  66    -7.5151200480809e-07
  67    -1.8172846963622e-08
  68    -1.2935587390392e-07
  69    2.7213714385892e-06
  70    8.0218174744071e-08
  71    -1.017477569982e-07
  72    -6.1165963355825e-08
  73    -3.5324006183658e-07
  74    9.2553919320342e-07
  75    8.8637538490999e-07
  76    -8.1472223185344e-08
  77    -1.173697766187e-07
  78    1.5611405701087e-08
  79    4.6472963293965e-08
  80    -8.9395790558983e-08
  81    2.4421719439434e-09
  82    -1.8347400899943e-07
  83    -5.6010716620616e-08
  84    -2.9344145464467e-07
  85    -5.5244668863097e-06
  86    2.1654321890316e-07
  87    1.5068287297238e-07
  88    3.0567218127079e-07
  89    1.5650649106207e-06
  90    -1.9388872187377e-06
  91    1.1612639675947e-06
  92    1.4443664709949e-07
  93    -1.2670728880793e-07
  94    9.8236805900462e-09
  95    4.9437607489086e-08
  96    -1.1657760918596e-07
  97    1.4405729004458e-08
  98    1.3728617950982e-07
  99    4.125436837954e-08
 100    -3.6966484977158e-07
 101    7.1168610544797e-08
 102    -9.4270952181632e-07
 103    -1.8701957971383e-07
 104    6.6250602123011e-07
 105    1.6915785284174e-08
 106    2.7586845414887e-07
 107    -7.1496519348168e-06
 108    5.9602889826743e-06
 109    1.6584750150491e-05
 110    -5.1247730968983e-07
 111    -5.4114817008607e-07
 112    2.6827116182323e-07
 113    6.6276146660494e-07
 114    -5.8563332842925e-09
 115    -4.7353940535332e-07
 116    -4.3116085558158e-06
 117    2.7511280798164e-05
 118    -4.1169902694111e-07
 119    6.8202295432792e-07
 120    6.2889704526411e-07
 121    -5.1825943279032e-06
 122    4.7308428090609e-07
 123    -3.6813063815274e-06
 124    -9.6874444509801e-08
 125    1.5082761253374e-07
 126    -4.9306520473763e-08
 127    -9.2981941293816e-08
 128    -1.3857675417037e-07
 129    -6.1701320252592e-07
 130    -7.3048642502994e-06
 131    1.6563576579484e-05
 132    -1.1870098386079e-06
 133    -2.0656868855288e-06
 134    3.7891837143453e-06
 135    1.1451752806907e-06
 136    3.9268712023577e-06
 137    -4.0043076085627e-05
 138    1.4382862694979e-06
 139    5.6871502171531e-07
 140    -1.8555070396417e-07
 141    3.4206820549496e-07
 142    -1.2226294661847e-07
 143    -1.9696583843757e-07
 144    -4.5817235427488e-07
 145    1.180786274443e-05
 146    6.7400991444182e-07
 147    1.0425745992474e-06
 148    -1.140485032388e-06
 149    6.9582966989763e-06
 150    -1.4142798578462e-05
 151    5.0008453843859e-06
 152    -6.4468030641828e-07
 153    -1.6184677841135e-07
 154    3.9072209310889e-07
 155    4.8993069505935e-07
 156    -1.3962691066345e-07
 157    -1.7302017142422e-07
 158    -4.1522128848855e-07
 159    1.0069759231516e-05
 160    5.9979363207804e-07
 161    -6.1583653573661e-07
 162    2.5601660261622e-07
 163    -1.3607813263208e-06
 164    -3.4874111520274e-06
 165    -1.6372359378583e-09
 166    -7.3548920216951e-08
 167    1.5325671070514e-07
 168    -7.716391024739e-08
 169    -1.9514296736688e-07
 170    -6.7755962246281e-08
 171    5.4064228234922e-08
 172    -3.7264750650671e-07
 173    -3.1636238261906e-06
 174    -6.4959040197424e-07
 175    -9.9055641372563e-08
 176    3.0422253830485e-07
 177    -2.9184123944711e-06
 178    -4.8029000857735e-07
 179    -3.1973058352989e-06
 180    2.0965535820355e-07
 181    -1.7936635584524e-07
 182    -9.3373923800291e-08
 183    -4.1142163820071e-07
 184    -1.0707095302186e-07
 185    -4.8867042004901e-08
 186    -9.6319456416742e-07
 187    -3.4891950899223e-06
 188    8.3685961877372e-08
 189    1.1757947973901e-07
 190    7.8754017524842e-07
 191    2.4796273854524e-06
 192    3.3284963805163e-06
 193    -1.8975450117871e-06
 194    2.492640131149e-07
 195    -2.0635332880544e-07
 196    -3.0593227782921e-07
 197    9.1015354850618e-08
 198    -1.2876938863772e-07
 199    -3.1324597802024e-07
 200    -1.7846055014159e-06
 201    2.5542711451074e-07
 202    2.3419409762169e-06
 203    -1.1918715891585e-06
 204    -8.4251727820261e-07
 205    -9.1758919437306e-07
 206    -2.0261861237528e-06
 207    2.0387955240698e-06
 208    -1.6698367023054e-05
 209    1.7013259882814e-07
 210    -2.9427080772937e-06
 211    -2.7249503099343e-07
 212    1.1768546934419e-06
 213    -3.4318857170784e-07
 214    -1.1852150218302e-06
 215    9.7264745133955e-08
 216    -3.4813252338328e-06
 217    2.5872920261246e-07
 218    1.1265946549932e-06
 219    -7.705273941072e-08
 220    1.2339596571949e-06
 221    -5.060616608384e-08
 222    -1.6254465374824e-06
 223    -4.0925567389203e-05
 224    -9.9252970948864e-07
 225    -9.9763386420149e-07
 226    1.3113237480101e-06
 227    1.120561827448e-05
 228    4.3529953437379e-06
 229    -2.6936222803741e-06
 230    -2.0826176679874e-06
 231    -5.5157553165896e-07
 232    -5.4872853487538e-07
 233    4.3939167893545e-07
 234    1.8121686571099e-06
 235    -2.5004950944697e-06
 236    -2.0902074118992e-05
 237    0.00018618216344886
 238    -6.675974052675e-07
 239    6.8462393851247e-06
 240    7.6234862183565e-07
 241    -6.1205245310023e-05
 242    -2.0778544379894e-05
 243    -0.00010656305704517
 244    7.1357095052895e-06
 245    4.4536176642082e-06
 246    1.3444371502999e-06
 247    1.8876695377743e-06
 248    3.281955274469e-06
 249    6.3076584018798e-07
 250    1.3859418196093e-05
 251    -1.3804907037991e-06
 252    -4.3328060594793e-06
 253    -0.00011670678601375
 254    1.0104292315436e-05
 255    -1.1890673800731e-05
 256    9.8225047529728e-06
 257    -4.8678220952002e-05
 258    9.2308093740948e-05
 259    -0.0001736060615135
 260    -5.023734184231e-06
 261    -6.8028129048172e-06
 262    -4.4715315516289e-06
 263    2.1796778239438e-06
 264    7.579634919459e-06
 265    -3.3997500449998e-06
 266    2.135250153117e-05
 267    -1.1822794316573e-05
 268    1.7344031567558e-05
 269    -7.2435371819587e-05
 270    1.5188071539397e-05
 271    0.0033018773800554
 272    -0.00018089892793328
 273    -0.00023091240171607
 274    0.00011019713499514
 275    0.0019656614339288
 276    0.00068770399008263
 277    -0.0036730406235106
 278    0.00033101315415135
 279    -0.00016373537024881