[Molden Format]
made by pyscf v[2.0.1]
[Atoms] (AU)
C   1   6     0.69100024066471     0.64692934207205    -3.48223131169301
H   2   1     2.68052439830868     1.13355088658700    -3.25784032593313
C   3   6    -0.36286361513219     0.85440132524594    -5.97030179418974
H   4   1    -2.35448549047279     0.36322488579172    -6.17995817793143
C   5   6     0.93697958957450     1.61209284601821    -8.05828437677121
H   6   1     0.96138501035509     3.61074187827952    -8.55401536893531
C   7   6     2.29833572157337    -0.09037665740906    -9.67215882917863
H   8   1     2.25763405404964    -2.08692321364337    -9.15074973557782
H   9   1     1.55630230933075    -1.92953025305990    12.99630010416247
C   10   6     0.75233899775814    -2.21270439606481    11.10705728102219
H   11   1    -0.43433408177274    -3.90944857546550    11.22216085340412
C   12   6     2.86362581178706    -2.63237380607947     9.17926416456045
H   13   1     4.39038949912609    -1.24955421540245     9.49899813497433
H   14   1     3.74629220191363    -4.48798724300892     9.47414880959024
C   15   6     2.02478325613682    -2.42177285709634     6.44560829588644
C   16   6     3.88048732735477    -3.58795445234514     4.61402886975252
C   17   6    -0.18412382258602    -1.30464291234259     5.76021113872346
C   18   6    -2.10044360464350    -0.26837831858460     7.71610340967100
C   19   6    -3.08956938670431     2.35282328359417     6.88693925039594
C   20   6    -4.37372924086464    -2.09766595989678     7.93610724222001
C   21   6    -0.83850430601230     0.06372213486173    10.33002307638377
H   22   1     0.38411922151109     1.74281358582432    10.27380136542181
H   23   1    -2.30980003007874     0.45460143924521    11.73986301809809
H   24   1     4.58527064644668    -5.38706904487420     5.36778158031719
H   25   1     5.54944938085014    -2.37631462192748     4.35398898413318
H   26   1     3.06633019150423    -3.94118377050688     2.75255466040884
H   27   1    -4.17727778763735     2.26573369139522     5.12914900961283
H   28   1    -1.52662344944051     3.68001877445626     6.59540397144508
H   29   1    -4.32916174397830     3.13643051467482     8.35225460090378
H   30   1    -5.32329548508442    -2.36691813602939     6.11583672749896
H   31   1    -5.77989366602257    -1.33896741843465     9.25748940450990
H   32   1    -3.79310905208926    -3.96389819310853     8.61386170102686
C   33   6    -1.01100794811226    -1.06331657314144     3.11929490449947
C   34   6     0.37686231036534    -0.33275864505552     1.09165013605873
H   35   1    -3.01671213906703    -1.40297922279997     2.77827895090944
C   36   6    -0.64382707979370    -0.11591880174385    -1.42063131251064
H   37   1     2.35569259782137     0.17174499283897     1.33641070251401
H   38   1    -2.63317482980319    -0.60229203511219    -1.66119700387645
C   39   6     3.61506927759443     0.57708357993929   -11.76916696671870
C   40   6     4.94068653136927    -1.30276865816170   -13.29098070185656
H   41   1     3.73162541044975     2.53269508104841   -12.39347992177894
O   42   8     6.15625203764207    -0.83635548426311   -15.19510343410387
H   43   1     4.77073908343657    -3.27989237609552   -12.58226454806003
[GTO]
1 0
 s    6 1.00
             3047.5249  0.0018347001629433
             457.36951    0.01403730124668
             103.94869   0.068842606114048
             29.210155    0.23218442062076
              9.286663    0.46794134155879
              3.163927    0.36231203217765
 s    3 1.00
             7.8682724   -0.11933240861517
             1.8812885   -0.16085421161283
             0.5442493     1.1434564825515
 s    1 1.00
             0.1687144                   1
 p    3 1.00
             7.8682724   0.068999095584993
             1.8812885    0.31642397975315
             0.5442493    0.74430825237435
 p    1 1.00
             0.1687144                   1
 d    1 1.00
                   0.8                   1

2 0
 s    3 1.00
             18.731137    0.03349459952309
             2.8253937    0.23472694665786
             0.6401217    0.81375731841339
 s    1 1.00
             0.1612778                   1

3 0
 s    6 1.00
             3047.5249  0.0018347001629433
             457.36951    0.01403730124668
             103.94869   0.068842606114048
             29.210155    0.23218442062076
              9.286663    0.46794134155879
              3.163927    0.36231203217765
 s    3 1.00
             7.8682724   -0.11933240861517
             1.8812885   -0.16085421161283
             0.5442493     1.1434564825515
 s    1 1.00
             0.1687144                   1
 p    3 1.00
             7.8682724   0.068999095584993
             1.8812885    0.31642397975315
             0.5442493    0.74430825237435
 p    1 1.00
             0.1687144                   1
 d    1 1.00
                   0.8                   1

4 0
 s    3 1.00
             18.731137    0.03349459952309
             2.8253937    0.23472694665786
             0.6401217    0.81375731841339
 s    1 1.00
             0.1612778                   1

5 0
 s    6 1.00
             3047.5249  0.0018347001629433
             457.36951    0.01403730124668
             103.94869   0.068842606114048
             29.210155    0.23218442062076
              9.286663    0.46794134155879
              3.163927    0.36231203217765
 s    3 1.00
             7.8682724   -0.11933240861517
             1.8812885   -0.16085421161283
             0.5442493     1.1434564825515
 s    1 1.00
             0.1687144                   1
 p    3 1.00
             7.8682724   0.068999095584993
             1.8812885    0.31642397975315
             0.5442493    0.74430825237435
 p    1 1.00
             0.1687144                   1
 d    1 1.00
                   0.8                   1

6 0
 s    3 1.00
             18.731137    0.03349459952309
             2.8253937    0.23472694665786
             0.6401217    0.81375731841339
 s    1 1.00
             0.1612778                   1

7 0
 s    6 1.00
             3047.5249  0.0018347001629433
             457.36951    0.01403730124668
             103.94869   0.068842606114048
             29.210155    0.23218442062076
              9.286663    0.46794134155879
              3.163927    0.36231203217765
 s    3 1.00
             7.8682724   -0.11933240861517
             1.8812885   -0.16085421161283
             0.5442493     1.1434564825515
 s    1 1.00
             0.1687144                   1
 p    3 1.00
             7.8682724   0.068999095584993
             1.8812885    0.31642397975315
             0.5442493    0.74430825237435
 p    1 1.00
             0.1687144                   1
 d    1 1.00
                   0.8                   1

8 0
 s    3 1.00
             18.731137    0.03349459952309
             2.8253937    0.23472694665786
             0.6401217    0.81375731841339
 s    1 1.00
             0.1612778                   1

9 0
 s    3 1.00
             18.731137    0.03349459952309
             2.8253937    0.23472694665786
             0.6401217    0.81375731841339
 s    1 1.00
             0.1612778                   1

10 0
 s    6 1.00
             3047.5249  0.0018347001629433
             457.36951    0.01403730124668
             103.94869   0.068842606114048
             29.210155    0.23218442062076
              9.286663    0.46794134155879
              3.163927    0.36231203217765
 s    3 1.00
             7.8682724   -0.11933240861517
             1.8812885   -0.16085421161283
             0.5442493     1.1434564825515
 s    1 1.00
             0.1687144                   1
 p    3 1.00
             7.8682724   0.068999095584993
             1.8812885    0.31642397975315
             0.5442493    0.74430825237435
 p    1 1.00
             0.1687144                   1
 d    1 1.00
                   0.8                   1

11 0
 s    3 1.00
             18.731137    0.03349459952309
             2.8253937    0.23472694665786
             0.6401217    0.81375731841339
 s    1 1.00
             0.1612778                   1

12 0
 s    6 1.00
             3047.5249  0.0018347001629433
             457.36951    0.01403730124668
             103.94869   0.068842606114048
             29.210155    0.23218442062076
              9.286663    0.46794134155879
              3.163927    0.36231203217765
 s    3 1.00
             7.8682724   -0.11933240861517
             1.8812885   -0.16085421161283
             0.5442493     1.1434564825515
 s    1 1.00
             0.1687144                   1
 p    3 1.00
             7.8682724   0.068999095584993
             1.8812885    0.31642397975315
             0.5442493    0.74430825237435
 p    1 1.00
             0.1687144                   1
 d    1 1.00
                   0.8                   1

13 0
 s    3 1.00
             18.731137    0.03349459952309
             2.8253937    0.23472694665786
             0.6401217    0.81375731841339
 s    1 1.00
             0.1612778                   1

14 0
 s    3 1.00
             18.731137    0.03349459952309
             2.8253937    0.23472694665786
             0.6401217    0.81375731841339
 s    1 1.00
             0.1612778                   1

15 0
 s    6 1.00
             3047.5249  0.0018347001629433
             457.36951    0.01403730124668
             103.94869   0.068842606114048
             29.210155    0.23218442062076
              9.286663    0.46794134155879
              3.163927    0.36231203217765
 s    3 1.00
             7.8682724   -0.11933240861517
             1.8812885   -0.16085421161283
             0.5442493     1.1434564825515
 s    1 1.00
             0.1687144                   1
 p    3 1.00
             7.8682724   0.068999095584993
             1.8812885    0.31642397975315
             0.5442493    0.74430825237435
 p    1 1.00
             0.1687144                   1
 d    1 1.00
                   0.8                   1

16 0
 s    6 1.00
             3047.5249  0.0018347001629433
             457.36951    0.01403730124668
             103.94869   0.068842606114048
             29.210155    0.23218442062076
              9.286663    0.46794134155879
              3.163927    0.36231203217765
 s    3 1.00
             7.8682724   -0.11933240861517
             1.8812885   -0.16085421161283
             0.5442493     1.1434564825515
 s    1 1.00
             0.1687144                   1
 p    3 1.00
             7.8682724   0.068999095584993
             1.8812885    0.31642397975315
             0.5442493    0.74430825237435
 p    1 1.00
             0.1687144                   1
 d    1 1.00
                   0.8                   1

17 0
 s    6 1.00
             3047.5249  0.0018347001629433
             457.36951    0.01403730124668
             103.94869   0.068842606114048
             29.210155    0.23218442062076
              9.286663    0.46794134155879
              3.163927    0.36231203217765
 s    3 1.00
             7.8682724   -0.11933240861517
             1.8812885   -0.16085421161283
             0.5442493     1.1434564825515
 s    1 1.00
             0.1687144                   1
 p    3 1.00
             7.8682724   0.068999095584993
             1.8812885    0.31642397975315
             0.5442493    0.74430825237435
 p    1 1.00
             0.1687144                   1
 d    1 1.00
                   0.8                   1

18 0
 s    6 1.00
             3047.5249  0.0018347001629433
             457.36951    0.01403730124668
             103.94869   0.068842606114048
             29.210155    0.23218442062076
              9.286663    0.46794134155879
              3.163927    0.36231203217765
 s    3 1.00
             7.8682724   -0.11933240861517
             1.8812885   -0.16085421161283
             0.5442493     1.1434564825515
 s    1 1.00
             0.1687144                   1
 p    3 1.00
             7.8682724   0.068999095584993
             1.8812885    0.31642397975315
             0.5442493    0.74430825237435
 p    1 1.00
             0.1687144                   1
 d    1 1.00
                   0.8                   1

19 0
 s    6 1.00
             3047.5249  0.0018347001629433
             457.36951    0.01403730124668
             103.94869   0.068842606114048
             29.210155    0.23218442062076
              9.286663    0.46794134155879
              3.163927    0.36231203217765
 s    3 1.00
             7.8682724   -0.11933240861517
             1.8812885   -0.16085421161283
             0.5442493     1.1434564825515
 s    1 1.00
             0.1687144                   1
 p    3 1.00
             7.8682724   0.068999095584993
             1.8812885    0.31642397975315
             0.5442493    0.74430825237435
 p    1 1.00
             0.1687144                   1
 d    1 1.00
                   0.8                   1

20 0
 s    6 1.00
             3047.5249  0.0018347001629433
             457.36951    0.01403730124668
             103.94869   0.068842606114048
             29.210155    0.23218442062076
              9.286663    0.46794134155879
              3.163927    0.36231203217765
 s    3 1.00
             7.8682724   -0.11933240861517
             1.8812885   -0.16085421161283
             0.5442493     1.1434564825515
 s    1 1.00
             0.1687144                   1
 p    3 1.00
             7.8682724   0.068999095584993
             1.8812885    0.31642397975315
             0.5442493    0.74430825237435
 p    1 1.00
             0.1687144                   1
 d    1 1.00
                   0.8                   1

21 0
 s    6 1.00
             3047.5249  0.0018347001629433
             457.36951    0.01403730124668
             103.94869   0.068842606114048
             29.210155    0.23218442062076
              9.286663    0.46794134155879
              3.163927    0.36231203217765
 s    3 1.00
             7.8682724   -0.11933240861517
             1.8812885   -0.16085421161283
             0.5442493     1.1434564825515
 s    1 1.00
             0.1687144                   1
 p    3 1.00
             7.8682724   0.068999095584993
             1.8812885    0.31642397975315
             0.5442493    0.74430825237435
 p    1 1.00
             0.1687144                   1
 d    1 1.00
                   0.8                   1

22 0
 s    3 1.00
             18.731137    0.03349459952309
             2.8253937    0.23472694665786
             0.6401217    0.81375731841339
 s    1 1.00
             0.1612778                   1

23 0
 s    3 1.00
             18.731137    0.03349459952309
             2.8253937    0.23472694665786
             0.6401217    0.81375731841339
 s    1 1.00
             0.1612778                   1

24 0
 s    3 1.00
             18.731137    0.03349459952309
             2.8253937    0.23472694665786
             0.6401217    0.81375731841339
 s    1 1.00
             0.1612778                   1

25 0
 s    3 1.00
             18.731137    0.03349459952309
             2.8253937    0.23472694665786
             0.6401217    0.81375731841339
 s    1 1.00
             0.1612778                   1

26 0
 s    3 1.00
             18.731137    0.03349459952309
             2.8253937    0.23472694665786
             0.6401217    0.81375731841339
 s    1 1.00
             0.1612778                   1

27 0
 s    3 1.00
             18.731137    0.03349459952309
             2.8253937    0.23472694665786
             0.6401217    0.81375731841339
 s    1 1.00
             0.1612778                   1

28 0
 s    3 1.00
             18.731137    0.03349459952309
             2.8253937    0.23472694665786
             0.6401217    0.81375731841339
 s    1 1.00
             0.1612778                   1

29 0
 s    3 1.00
             18.731137    0.03349459952309
             2.8253937    0.23472694665786
             0.6401217    0.81375731841339
 s    1 1.00
             0.1612778                   1

30 0
 s    3 1.00
             18.731137    0.03349459952309
             2.8253937    0.23472694665786
             0.6401217    0.81375731841339
 s    1 1.00
             0.1612778                   1

31 0
 s    3 1.00
             18.731137    0.03349459952309
             2.8253937    0.23472694665786
             0.6401217    0.81375731841339
 s    1 1.00
             0.1612778                   1

32 0
 s    3 1.00
             18.731137    0.03349459952309
             2.8253937    0.23472694665786
             0.6401217    0.81375731841339
 s    1 1.00
             0.1612778                   1

33 0
 s    6 1.00
             3047.5249  0.0018347001629433
             457.36951    0.01403730124668
             103.94869   0.068842606114048
             29.210155    0.23218442062076
              9.286663    0.46794134155879
              3.163927    0.36231203217765
 s    3 1.00
             7.8682724   -0.11933240861517
             1.8812885   -0.16085421161283
             0.5442493     1.1434564825515
 s    1 1.00
             0.1687144                   1
 p    3 1.00
             7.8682724   0.068999095584993
             1.8812885    0.31642397975315
             0.5442493    0.74430825237435
 p    1 1.00
             0.1687144                   1
 d    1 1.00
                   0.8                   1

34 0
 s    6 1.00
             3047.5249  0.0018347001629433
             457.36951    0.01403730124668
             103.94869   0.068842606114048
             29.210155    0.23218442062076
              9.286663    0.46794134155879
              3.163927    0.36231203217765
 s    3 1.00
             7.8682724   -0.11933240861517
             1.8812885   -0.16085421161283
             0.5442493     1.1434564825515
 s    1 1.00
             0.1687144                   1
 p    3 1.00
             7.8682724   0.068999095584993
             1.8812885    0.31642397975315
             0.5442493    0.74430825237435
 p    1 1.00
             0.1687144                   1
 d    1 1.00
                   0.8                   1

35 0
 s    3 1.00
             18.731137    0.03349459952309
             2.8253937    0.23472694665786
             0.6401217    0.81375731841339
 s    1 1.00
             0.1612778                   1

36 0
 s    6 1.00
             3047.5249  0.0018347001629433
             457.36951    0.01403730124668
             103.94869   0.068842606114048
             29.210155    0.23218442062076
              9.286663    0.46794134155879
              3.163927    0.36231203217765
 s    3 1.00
             7.8682724   -0.11933240861517
             1.8812885   -0.16085421161283
             0.5442493     1.1434564825515
 s    1 1.00
             0.1687144                   1
 p    3 1.00
             7.8682724   0.068999095584993
             1.8812885    0.31642397975315
             0.5442493    0.74430825237435
 p    1 1.00
             0.1687144                   1
 d    1 1.00
                   0.8                   1

37 0
 s    3 1.00
             18.731137    0.03349459952309
             2.8253937    0.23472694665786
             0.6401217    0.81375731841339
 s    1 1.00
             0.1612778                   1

38 0
 s    3 1.00
             18.731137    0.03349459952309
             2.8253937    0.23472694665786
             0.6401217    0.81375731841339
 s    1 1.00
             0.1612778                   1

39 0
 s    6 1.00
             3047.5249  0.0018347001629433
             457.36951    0.01403730124668
             103.94869   0.068842606114048
             29.210155    0.23218442062076
              9.286663    0.46794134155879
              3.163927    0.36231203217765
 s    3 1.00
             7.8682724   -0.11933240861517
             1.8812885   -0.16085421161283
             0.5442493     1.1434564825515
 s    1 1.00
             0.1687144                   1
 p    3 1.00
             7.8682724   0.068999095584993
             1.8812885    0.31642397975315
             0.5442493    0.74430825237435
 p    1 1.00
             0.1687144                   1
 d    1 1.00
                   0.8                   1

40 0
 s    6 1.00
             3047.5249  0.0018347001629433
             457.36951    0.01403730124668
             103.94869   0.068842606114048
             29.210155    0.23218442062076
              9.286663    0.46794134155879
              3.163927    0.36231203217765
 s    3 1.00
             7.8682724   -0.11933240861517
             1.8812885   -0.16085421161283
             0.5442493     1.1434564825515
 s    1 1.00
             0.1687144                   1
 p    3 1.00
             7.8682724   0.068999095584993
             1.8812885    0.31642397975315
             0.5442493    0.74430825237435
 p    1 1.00
             0.1687144                   1
 d    1 1.00
                   0.8                   1

41 0
 s    3 1.00
             18.731137    0.03349459952309
             2.8253937    0.23472694665786
             0.6401217    0.81375731841339
 s    1 1.00
             0.1612778                   1

42 0
 s    6 1.00
             5484.6717   0.001831099805527
             825.23495   0.013950098518422
             188.04696    0.06844509273075
               52.9645    0.23271427528445
              16.89757    0.47019295006289
             5.7996353    0.35852086192309
 s    3 1.00
             15.539616   -0.11077750382508
             3.5999336   -0.14802630511126
             1.0137618     1.1307670390447
 s    1 1.00
             0.2700058                   1
 p    3 1.00
             15.539616   0.070874299543311
             3.5999336    0.33975279781076
             1.0137618    0.72715859531445
 p    1 1.00
             0.2700058                   1
 d    1 1.00
                   0.8                   1

43 0
 s    3 1.00
             18.731137    0.03349459952309
             2.8253937    0.23472694665786
             0.6401217    0.81375731841339
 s    1 1.00
             0.1612778                   1

[5d]
[7f]
[9g]

[MO]
 Sym= A
 Ene=               0
 Spin= Alpha
 Occup=    1.00000
   1    -2.668942850899e-06
   2    -1.6474345091467e-05
   3    -5.5736237951534e-06
   4    -9.3054167760818e-07
   5    -1.6737845945344e-05
   6    1.1235766122058e-05
   7    4.1445056162483e-05
   8    0.00010937441801255
   9    -0.00040083152088459
  10    4.1005287266367e-07
  11    1.1331465345267e-05
  12    1.9938478903265e-06
  13    1.4738897928522e-05
  14    -8.2907298387285e-06
  15    -1.5639226426305e-05
  16    1.0566706509162e-05
  17    5.1832569009571e-06
  18    0.00017710507903954
  19    0.00047389025123653
  20    6.5385487955577e-05
  21    -1.4599547571674e-06
  22    -8.3125430402968e-05
  23    0.00019957545306552
  24    -0.00011492816646282
  25    -0.00064250469444192
  26    2.2577974822707e-05
  27    -2.3197015194401e-05
  28    1.1086867901664e-05
  29    4.2650537219994e-05
  30    4.2319519164677e-07
  31    -1.8900895526238e-05
  32    2.1478854596101e-05
  33    8.1427526249322e-05
  34    0.00031311799996268
  35    -0.0047322335049658
  36    -0.00015925290737501
  37    7.6975119459546e-05
  38    0.0001961184786686
  39    -0.00065552786366703
  40    0.0020516741671243
  41    0.00049220153779322
  42    -1.949643386348e-05
  43    0.00011557405614868
  44    -6.5449847681711e-05
  45    2.5471803739283e-05
  46    6.4711127341743e-05
  47    -1.1751963799801e-05
  48    -0.00027211063879153
  49    -5.4249217137518e-05
  50    0.00031654882910831
  51    0.0039112061236658
  52    0.00035206778014852
  53    -0.00035077971263161
  54    -0.00041603826212562
  55    -0.0019229888395443
  56     0.002667023098042
  57    0.0022346951315276
  58    -3.4162217305233e-05
  59    2.9616301932256e-05
  60    0.00019434916434465
  61    3.0480010551317e-05
  62    -0.00012310630396702
  63    0.00041760248223995
  64    0.00014417232073714
  65    -2.7279580338707e-07
  66    -6.8523575927843e-07
  67    -9.6331842576695e-08
  68    -4.5818168577693e-07
  69    3.2088567586131e-06
  70    4.1840272560251e-07
  71    -4.7845776726184e-07
  72    3.7110389345175e-08
  73    4.8985772935935e-07
  74    1.1616669926829e-06
  75    3.4269411992632e-07
  76    -5.6645737947817e-08
  77    -1.4791739620556e-07
  78    4.9111703299227e-08
  79    6.2385714538779e-08
  80    -1.2716823485487e-07
  81    7.972938539678e-08
  82    -2.0884645773591e-07
  83    -6.5230732701505e-08
  84    -1.1342990915504e-07
  85    -1.3529916932144e-05
  86    5.232939563813e-07
  87    -3.3545945367373e-08
  88    6.5879759128568e-07
  89    3.506896181497e-06
  90    -4.6469609838151e-06
  91    2.884301426633e-06
  92    2.2187309491446e-07
  93    -3.8602935776587e-07
  94    2.6604160287451e-07
  95    1.6748705896749e-08
  96    -2.5199706318597e-07
  97    1.0699647903553e-07
  98    -6.9786193981206e-07
  99    3.2879289398159e-07
 100    -3.6090199329992e-07
 101    1.3416216115929e-07
 102    -1.3067453559895e-06
 103    1.231609920765e-05
 104    2.0872876978005e-06
 105    1.3694290890105e-06
 106    -6.2633498991827e-07
 107    -1.9332562446654e-05
 108    2.1934230472624e-05
 109    3.3192048020831e-05
 110    -6.1677561154334e-07
 111    -5.5361979665482e-07
 112    2.7952991983465e-07
 113    3.9933546459335e-07
 114    -5.2541823410657e-07
 115    -5.5251446748514e-07
 116    -4.8075044001985e-06
 117    3.9580019389588e-05
 118    -8.0717376098281e-07
 119    1.0546450714333e-06
 120    6.6260802178662e-07
 121    -9.4512101383516e-06
 122    1.4201528566212e-06
 123    3.2622259769622e-06
 124    -7.1890490416392e-08
 125    -1.7453823793966e-07
 126    -5.0693804946002e-08
 127    3.9698860796636e-08
 128    -4.7122540846383e-07
 129    -9.7027298921364e-07
 130    -9.5631774913837e-06
 131    5.6564493297052e-05
 132    -6.7194880253714e-07
 133    -1.8481266957861e-06
 134    3.9872529275812e-06
 135    -2.6634540874437e-05
 136    -1.6063529578183e-06
 137    -8.8699944842222e-05
 138    2.7692628147932e-06
 139    1.6294765405922e-06
 140    5.5715518796215e-07
 141    5.5191499727523e-07
 142    2.3834543759312e-07
 143    -6.8691413159658e-07
 144    -3.8633871376126e-06
 145    2.3744005500486e-05
 146    8.5892884316639e-07
 147    5.7605316740436e-07
 148    -4.0230986276532e-07
 149    1.4042543415056e-05
 150    -6.0389134537899e-06
 151    -3.9454965327596e-06
 152    -1.1278293550026e-06
 153    -3.8897590083325e-07
 154    -9.4195185219868e-08
 155    7.3438527212934e-07
 156    -8.8540602007959e-07
 157    -6.9983507555892e-08
 158    1.4368789867855e-06
 159    1.0102451651567e-06
 160    8.1692041765334e-07
 161    -4.5493091830237e-07
 162    -4.7043821906964e-07
 163    -7.5198899381415e-06
 164    6.7980558345982e-07
 165    8.5946659476565e-07
 166    4.6555415240638e-07
 167    -1.3832539563171e-07
 168    -1.2759104854226e-08
 169    -1.1861918221074e-07
 170    3.3051220364369e-07
 171    1.0395222115306e-07
 172    -6.9214315239201e-07
 173    -1.4572570856149e-06
 174    -1.0590234123691e-06
 175    -4.0032424780016e-07
 176    9.3896490729717e-07
 177    -3.2543542244943e-07
 178    1.4226378808336e-06
 179    -2.0737645162251e-06
 180    1.403149534873e-07
 181    1.6806311393084e-07
 182    3.4411697896464e-08
 183    -3.8519849685595e-07
 184    1.8798509429806e-07
 185    -2.827285536928e-07
 186    -3.3483514697328e-06
 187    2.0512255479203e-06
 188    -1.3895295337703e-07
 189    1.9073944194355e-07
 190    1.5138273092666e-06
 191    2.9632242996251e-06
 192    6.5149724816626e-07
 193    -5.5826324830932e-06
 194    3.557826064049e-07
 195    -7.9051036828385e-08
 196    2.1753529197758e-07
 197    9.4792569759772e-08
 198    -1.2445281768452e-07
 199    -9.0936064598145e-07
 200    -1.6553013266642e-06
 201    2.8536444175559e-07
 202    4.1944426842465e-06
 203    -1.5178143002126e-06
 204    -1.2048463893507e-06
 205    -8.2019838331875e-07
 206    -3.5726675719162e-06
 207    1.4719193171578e-06
 208    -1.168991352413e-05
 209    1.3930273096802e-06
 210    -4.9276020486557e-06
 211    5.8947278889888e-07
 212    2.9691623924628e-06
 213    -5.5323916451504e-07
 214    -3.3359725252134e-06
 215    -6.8833925233425e-07
 216    4.0149547351869e-07
 217    5.6874381813648e-07
 218    1.6277908234327e-06
 219    2.3757135080972e-07
 220    9.3019306265883e-07
 221    -8.7868916057645e-07
 222    -8.5920543456005e-06
 223    -7.9773565406072e-06
 224    1.9094871793968e-06
 225    -6.006958810767e-06
 226    2.6508296645108e-06
 227    1.3027733137913e-05
 228    2.4014386432299e-05
 229    -0.00010547694592887
 230    -1.2540560776549e-06
 231    -4.4343286064093e-06
 232    -2.3745921668608e-06
 233    1.8677175728023e-06
 234    3.0936198489041e-06
 235    -8.5704448451546e-07
 236    -1.1936784107413e-05
 237    1.9166682514889e-05
 238    -2.7429099126392e-06
 239    8.9186531830926e-06
 240    6.9181694159034e-06
 241    -2.2582746334571e-05
 242    -2.4071161822195e-06
 243    -9.1366814357233e-05
 244    1.3255403641239e-06
 245    7.3543853734399e-06
 246    1.5111111626644e-06
 247    2.7198820840527e-06
 248    1.3699201568439e-06
 249    -4.9015366460058e-06
 250    1.1157705006178e-05
 251    -4.7857886915394e-06
 252    -3.4156789060752e-05
 253    0.00028477048549312
 254    9.7468757334553e-07
 255    -3.8172422025051e-06
 256    7.961172405543e-06
 257    0.00011780328977544
 258    0.0001102474681518
 259    -0.00025796607418168
 260    2.8097228023812e-06
 261    -1.3504297511826e-05
 262    -5.0391703532757e-06
 263    8.6570632328965e-06
 264     5.64924141801e-06
 265    -4.7655889051388e-06
 266    2.9520459236709e-05
 267    -9.1186396590757e-06
 268    3.8090669629472e-05
 269    -7.3045782307403e-05
 270    9.5319531137861e-06
 271    0.0033565079226438
 272    -4.4788004611754e-05
 273    -0.00024821605140128
 274    0.00018874010326636
 275    0.0022702924068883
 276    0.00062923781268861
 277    -0.0034525120345697
 278    0.00021547434396744
 279    -0.0002374686202974
 280    0.0001634160460459