[Molden Format]
made by pyscf v[2.0.1]
[Atoms] (AU)
C   1   6     0.69100024066471     0.64692934207205    -3.48223131169301
H   2   1     2.68052439830868     1.13355088658700    -3.25784032593313
C   3   6    -0.36286361513219     0.85440132524594    -5.97030179418974
H   4   1    -2.35448549047279     0.36322488579172    -6.17995817793143
C   5   6     0.93697958957450     1.61209284601821    -8.05828437677121
H   6   1     0.85962833397368     3.59050820045091    -8.62470494839578
C   7   6     2.42635389771936    -0.06497183323565    -9.58324401854610
H   8   1     2.48676726707897    -2.04132781761705    -8.99156043119802
H   9   1     1.55630230933075    -1.92953025305990    12.99630010416247
C   10   6     0.75233899775814    -2.21270439606481    11.10705728102219
H   11   1    -0.43433408177274    -3.90944857546550    11.22216085340412
C   12   6     2.86362581178706    -2.63237380607947     9.17926416456045
H   13   1     4.39038949912609    -1.24955421540245     9.49899813497433
H   14   1     3.74629220191363    -4.48798724300892     9.47414880959024
C   15   6     2.02478325613682    -2.42177285709634     6.44560829588644
C   16   6     3.88048732735477    -3.58795445234514     4.61402886975252
C   17   6    -0.18412382258602    -1.30464291234259     5.76021113872346
C   18   6    -2.10044360464350    -0.26837831858460     7.71610340967100
C   19   6    -3.08956938670431     2.35282328359417     6.88693925039594
C   20   6    -4.37372924086464    -2.09766595989678     7.93610724222001
C   21   6    -0.83850430601230     0.06372213486173    10.33002307638377
H   22   1     0.38411922151109     1.74281358582432    10.27380136542181
H   23   1    -2.30980003007874     0.45460143924521    11.73986301809809
H   24   1     4.58527064644668    -5.38706904487420     5.36778158031719
H   25   1     5.54944938085014    -2.37631462192748     4.35398898413318
H   26   1     3.06633019150423    -3.94118377050688     2.75255466040884
H   27   1    -4.17727778763735     2.26573369139522     5.12914900961283
H   28   1    -1.52662344944051     3.68001877445626     6.59540397144508
H   29   1    -4.32916174397830     3.13643051467482     8.35225460090378
H   30   1    -5.32329548508442    -2.36691813602939     6.11583672749896
H   31   1    -5.77989366602257    -1.33896741843465     9.25748940450990
H   32   1    -3.79310905208926    -3.96389819310853     8.61386170102686
C   33   6    -1.01100794811226    -1.06331657314144     3.11929490449947
C   34   6     0.37686231036534    -0.33275864505552     1.09165013605873
H   35   1    -3.01671213906703    -1.40297922279997     2.77827895090944
C   36   6    -0.64382707979370    -0.11591880174385    -1.42063131251064
H   37   1     2.35569259782137     0.17174499283897     1.33641070251401
H   38   1    -2.63317482980319    -0.60229203511219    -1.66119700387645
C   39   6     3.74832505967432     0.60333842975764   -11.67668310140841
C   40   6     5.21001738076888    -1.24955999097241   -13.10400422335708
H   41   1     3.76814643119893     2.53960520723023   -12.36823673003836
O   42   8     6.43815552067501    -0.78092818090474   -14.99949494178040
H   43   1     5.13629360998863    -3.20740752771493   -12.32839043702936
[GTO]
1 0
 s    6 1.00
             3047.5249  0.0018347001629433
             457.36951    0.01403730124668
             103.94869   0.068842606114048
             29.210155    0.23218442062076
              9.286663    0.46794134155879
              3.163927    0.36231203217765
 s    3 1.00
             7.8682724   -0.11933240861517
             1.8812885   -0.16085421161283
             0.5442493     1.1434564825515
 s    1 1.00
             0.1687144                   1
 p    3 1.00
             7.8682724   0.068999095584993
             1.8812885    0.31642397975315
             0.5442493    0.74430825237435
 p    1 1.00
             0.1687144                   1
 d    1 1.00
                   0.8                   1

2 0
 s    3 1.00
             18.731137    0.03349459952309
             2.8253937    0.23472694665786
             0.6401217    0.81375731841339
 s    1 1.00
             0.1612778                   1

3 0
 s    6 1.00
             3047.5249  0.0018347001629433
             457.36951    0.01403730124668
             103.94869   0.068842606114048
             29.210155    0.23218442062076
              9.286663    0.46794134155879
              3.163927    0.36231203217765
 s    3 1.00
             7.8682724   -0.11933240861517
             1.8812885   -0.16085421161283
             0.5442493     1.1434564825515
 s    1 1.00
             0.1687144                   1
 p    3 1.00
             7.8682724   0.068999095584993
             1.8812885    0.31642397975315
             0.5442493    0.74430825237435
 p    1 1.00
             0.1687144                   1
 d    1 1.00
                   0.8                   1

4 0
 s    3 1.00
             18.731137    0.03349459952309
             2.8253937    0.23472694665786
             0.6401217    0.81375731841339
 s    1 1.00
             0.1612778                   1

5 0
 s    6 1.00
             3047.5249  0.0018347001629433
             457.36951    0.01403730124668
             103.94869   0.068842606114048
             29.210155    0.23218442062076
              9.286663    0.46794134155879
              3.163927    0.36231203217765
 s    3 1.00
             7.8682724   -0.11933240861517
             1.8812885   -0.16085421161283
             0.5442493     1.1434564825515
 s    1 1.00
             0.1687144                   1
 p    3 1.00
             7.8682724   0.068999095584993
             1.8812885    0.31642397975315
             0.5442493    0.74430825237435
 p    1 1.00
             0.1687144                   1
 d    1 1.00
                   0.8                   1

6 0
 s    3 1.00
             18.731137    0.03349459952309
             2.8253937    0.23472694665786
             0.6401217    0.81375731841339
 s    1 1.00
             0.1612778                   1

7 0
 s    6 1.00
             3047.5249  0.0018347001629433
             457.36951    0.01403730124668
             103.94869   0.068842606114048
             29.210155    0.23218442062076
              9.286663    0.46794134155879
              3.163927    0.36231203217765
 s    3 1.00
             7.8682724   -0.11933240861517
             1.8812885   -0.16085421161283
             0.5442493     1.1434564825515
 s    1 1.00
             0.1687144                   1
 p    3 1.00
             7.8682724   0.068999095584993
             1.8812885    0.31642397975315
             0.5442493    0.74430825237435
 p    1 1.00
             0.1687144                   1
 d    1 1.00
                   0.8                   1

8 0
 s    3 1.00
             18.731137    0.03349459952309
             2.8253937    0.23472694665786
             0.6401217    0.81375731841339
 s    1 1.00
             0.1612778                   1

9 0
 s    3 1.00
             18.731137    0.03349459952309
             2.8253937    0.23472694665786
             0.6401217    0.81375731841339
 s    1 1.00
             0.1612778                   1

10 0
 s    6 1.00
             3047.5249  0.0018347001629433
             457.36951    0.01403730124668
             103.94869   0.068842606114048
             29.210155    0.23218442062076
              9.286663    0.46794134155879
              3.163927    0.36231203217765
 s    3 1.00
             7.8682724   -0.11933240861517
             1.8812885   -0.16085421161283
             0.5442493     1.1434564825515
 s    1 1.00
             0.1687144                   1
 p    3 1.00
             7.8682724   0.068999095584993
             1.8812885    0.31642397975315
             0.5442493    0.74430825237435
 p    1 1.00
             0.1687144                   1
 d    1 1.00
                   0.8                   1

11 0
 s    3 1.00
             18.731137    0.03349459952309
             2.8253937    0.23472694665786
             0.6401217    0.81375731841339
 s    1 1.00
             0.1612778                   1

12 0
 s    6 1.00
             3047.5249  0.0018347001629433
             457.36951    0.01403730124668
             103.94869   0.068842606114048
             29.210155    0.23218442062076
              9.286663    0.46794134155879
              3.163927    0.36231203217765
 s    3 1.00
             7.8682724   -0.11933240861517
             1.8812885   -0.16085421161283
             0.5442493     1.1434564825515
 s    1 1.00
             0.1687144                   1
 p    3 1.00
             7.8682724   0.068999095584993
             1.8812885    0.31642397975315
             0.5442493    0.74430825237435
 p    1 1.00
             0.1687144                   1
 d    1 1.00
                   0.8                   1

13 0
 s    3 1.00
             18.731137    0.03349459952309
             2.8253937    0.23472694665786
             0.6401217    0.81375731841339
 s    1 1.00
             0.1612778                   1

14 0
 s    3 1.00
             18.731137    0.03349459952309
             2.8253937    0.23472694665786
             0.6401217    0.81375731841339
 s    1 1.00
             0.1612778                   1

15 0
 s    6 1.00
             3047.5249  0.0018347001629433
             457.36951    0.01403730124668
             103.94869   0.068842606114048
             29.210155    0.23218442062076
              9.286663    0.46794134155879
              3.163927    0.36231203217765
 s    3 1.00
             7.8682724   -0.11933240861517
             1.8812885   -0.16085421161283
             0.5442493     1.1434564825515
 s    1 1.00
             0.1687144                   1
 p    3 1.00
             7.8682724   0.068999095584993
             1.8812885    0.31642397975315
             0.5442493    0.74430825237435
 p    1 1.00
             0.1687144                   1
 d    1 1.00
                   0.8                   1

16 0
 s    6 1.00
             3047.5249  0.0018347001629433
             457.36951    0.01403730124668
             103.94869   0.068842606114048
             29.210155    0.23218442062076
              9.286663    0.46794134155879
              3.163927    0.36231203217765
 s    3 1.00
             7.8682724   -0.11933240861517
             1.8812885   -0.16085421161283
             0.5442493     1.1434564825515
 s    1 1.00
             0.1687144                   1
 p    3 1.00
             7.8682724   0.068999095584993
             1.8812885    0.31642397975315
             0.5442493    0.74430825237435
 p    1 1.00
             0.1687144                   1
 d    1 1.00
                   0.8                   1

17 0
 s    6 1.00
             3047.5249  0.0018347001629433
             457.36951    0.01403730124668
             103.94869   0.068842606114048
             29.210155    0.23218442062076
              9.286663    0.46794134155879
              3.163927    0.36231203217765
 s    3 1.00
             7.8682724   -0.11933240861517
             1.8812885   -0.16085421161283
             0.5442493     1.1434564825515
 s    1 1.00
             0.1687144                   1
 p    3 1.00
             7.8682724   0.068999095584993
             1.8812885    0.31642397975315
             0.5442493    0.74430825237435
 p    1 1.00
             0.1687144                   1
 d    1 1.00
                   0.8                   1

18 0
 s    6 1.00
             3047.5249  0.0018347001629433
             457.36951    0.01403730124668
             103.94869   0.068842606114048
             29.210155    0.23218442062076
              9.286663    0.46794134155879
              3.163927    0.36231203217765
 s    3 1.00
             7.8682724   -0.11933240861517
             1.8812885   -0.16085421161283
             0.5442493     1.1434564825515
 s    1 1.00
             0.1687144                   1
 p    3 1.00
             7.8682724   0.068999095584993
             1.8812885    0.31642397975315
             0.5442493    0.74430825237435
 p    1 1.00
             0.1687144                   1
 d    1 1.00
                   0.8                   1

19 0
 s    6 1.00
             3047.5249  0.0018347001629433
             457.36951    0.01403730124668
             103.94869   0.068842606114048
             29.210155    0.23218442062076
              9.286663    0.46794134155879
              3.163927    0.36231203217765
 s    3 1.00
             7.8682724   -0.11933240861517
             1.8812885   -0.16085421161283
             0.5442493     1.1434564825515
 s    1 1.00
             0.1687144                   1
 p    3 1.00
             7.8682724   0.068999095584993
             1.8812885    0.31642397975315
             0.5442493    0.74430825237435
 p    1 1.00
             0.1687144                   1
 d    1 1.00
                   0.8                   1

20 0
 s    6 1.00
             3047.5249  0.0018347001629433
             457.36951    0.01403730124668
             103.94869   0.068842606114048
             29.210155    0.23218442062076
              9.286663    0.46794134155879
              3.163927    0.36231203217765
 s    3 1.00
             7.8682724   -0.11933240861517
             1.8812885   -0.16085421161283
             0.5442493     1.1434564825515
 s    1 1.00
             0.1687144                   1
 p    3 1.00
             7.8682724   0.068999095584993
             1.8812885    0.31642397975315
             0.5442493    0.74430825237435
 p    1 1.00
             0.1687144                   1
 d    1 1.00
                   0.8                   1

21 0
 s    6 1.00
             3047.5249  0.0018347001629433
             457.36951    0.01403730124668
             103.94869   0.068842606114048
             29.210155    0.23218442062076
              9.286663    0.46794134155879
              3.163927    0.36231203217765
 s    3 1.00
             7.8682724   -0.11933240861517
             1.8812885   -0.16085421161283
             0.5442493     1.1434564825515
 s    1 1.00
             0.1687144                   1
 p    3 1.00
             7.8682724   0.068999095584993
             1.8812885    0.31642397975315
             0.5442493    0.74430825237435
 p    1 1.00
             0.1687144                   1
 d    1 1.00
                   0.8                   1

22 0
 s    3 1.00
             18.731137    0.03349459952309
             2.8253937    0.23472694665786
             0.6401217    0.81375731841339
 s    1 1.00
             0.1612778                   1

23 0
 s    3 1.00
             18.731137    0.03349459952309
             2.8253937    0.23472694665786
             0.6401217    0.81375731841339
 s    1 1.00
             0.1612778                   1

24 0
 s    3 1.00
             18.731137    0.03349459952309
             2.8253937    0.23472694665786
             0.6401217    0.81375731841339
 s    1 1.00
             0.1612778                   1

25 0
 s    3 1.00
             18.731137    0.03349459952309
             2.8253937    0.23472694665786
             0.6401217    0.81375731841339
 s    1 1.00
             0.1612778                   1

26 0
 s    3 1.00
             18.731137    0.03349459952309
             2.8253937    0.23472694665786
             0.6401217    0.81375731841339
 s    1 1.00
             0.1612778                   1

27 0
 s    3 1.00
             18.731137    0.03349459952309
             2.8253937    0.23472694665786
             0.6401217    0.81375731841339
 s    1 1.00
             0.1612778                   1

28 0
 s    3 1.00
             18.731137    0.03349459952309
             2.8253937    0.23472694665786
             0.6401217    0.81375731841339
 s    1 1.00
             0.1612778                   1

29 0
 s    3 1.00
             18.731137    0.03349459952309
             2.8253937    0.23472694665786
             0.6401217    0.81375731841339
 s    1 1.00
             0.1612778                   1

30 0
 s    3 1.00
             18.731137    0.03349459952309
             2.8253937    0.23472694665786
             0.6401217    0.81375731841339
 s    1 1.00
             0.1612778                   1

31 0
 s    3 1.00
             18.731137    0.03349459952309
             2.8253937    0.23472694665786
             0.6401217    0.81375731841339
 s    1 1.00
             0.1612778                   1

32 0
 s    3 1.00
             18.731137    0.03349459952309
             2.8253937    0.23472694665786
             0.6401217    0.81375731841339
 s    1 1.00
             0.1612778                   1

33 0
 s    6 1.00
             3047.5249  0.0018347001629433
             457.36951    0.01403730124668
             103.94869   0.068842606114048
             29.210155    0.23218442062076
              9.286663    0.46794134155879
              3.163927    0.36231203217765
 s    3 1.00
             7.8682724   -0.11933240861517
             1.8812885   -0.16085421161283
             0.5442493     1.1434564825515
 s    1 1.00
             0.1687144                   1
 p    3 1.00
             7.8682724   0.068999095584993
             1.8812885    0.31642397975315
             0.5442493    0.74430825237435
 p    1 1.00
             0.1687144                   1
 d    1 1.00
                   0.8                   1

34 0
 s    6 1.00
             3047.5249  0.0018347001629433
             457.36951    0.01403730124668
             103.94869   0.068842606114048
             29.210155    0.23218442062076
              9.286663    0.46794134155879
              3.163927    0.36231203217765
 s    3 1.00
             7.8682724   -0.11933240861517
             1.8812885   -0.16085421161283
             0.5442493     1.1434564825515
 s    1 1.00
             0.1687144                   1
 p    3 1.00
             7.8682724   0.068999095584993
             1.8812885    0.31642397975315
             0.5442493    0.74430825237435
 p    1 1.00
             0.1687144                   1
 d    1 1.00
                   0.8                   1

35 0
 s    3 1.00
             18.731137    0.03349459952309
             2.8253937    0.23472694665786
             0.6401217    0.81375731841339
 s    1 1.00
             0.1612778                   1

36 0
 s    6 1.00
             3047.5249  0.0018347001629433
             457.36951    0.01403730124668
             103.94869   0.068842606114048
             29.210155    0.23218442062076
              9.286663    0.46794134155879
              3.163927    0.36231203217765
 s    3 1.00
             7.8682724   -0.11933240861517
             1.8812885   -0.16085421161283
             0.5442493     1.1434564825515
 s    1 1.00
             0.1687144                   1
 p    3 1.00
             7.8682724   0.068999095584993
             1.8812885    0.31642397975315
             0.5442493    0.74430825237435
 p    1 1.00
             0.1687144                   1
 d    1 1.00
                   0.8                   1

37 0
 s    3 1.00
             18.731137    0.03349459952309
             2.8253937    0.23472694665786
             0.6401217    0.81375731841339
 s    1 1.00
             0.1612778                   1

38 0
 s    3 1.00
             18.731137    0.03349459952309
             2.8253937    0.23472694665786
             0.6401217    0.81375731841339
 s    1 1.00
             0.1612778                   1

39 0
 s    6 1.00
             3047.5249  0.0018347001629433
             457.36951    0.01403730124668
             103.94869   0.068842606114048
             29.210155    0.23218442062076
              9.286663    0.46794134155879
              3.163927    0.36231203217765
 s    3 1.00
             7.8682724   -0.11933240861517
             1.8812885   -0.16085421161283
             0.5442493     1.1434564825515
 s    1 1.00
             0.1687144                   1
 p    3 1.00
             7.8682724   0.068999095584993
             1.8812885    0.31642397975315
             0.5442493    0.74430825237435
 p    1 1.00
             0.1687144                   1
 d    1 1.00
                   0.8                   1

40 0
 s    6 1.00
             3047.5249  0.0018347001629433
             457.36951    0.01403730124668
             103.94869   0.068842606114048
             29.210155    0.23218442062076
              9.286663    0.46794134155879
              3.163927    0.36231203217765
 s    3 1.00
             7.8682724   -0.11933240861517
             1.8812885   -0.16085421161283
             0.5442493     1.1434564825515
 s    1 1.00
             0.1687144                   1
 p    3 1.00
             7.8682724   0.068999095584993
             1.8812885    0.31642397975315
             0.5442493    0.74430825237435
 p    1 1.00
             0.1687144                   1
 d    1 1.00
                   0.8                   1

41 0
 s    3 1.00
             18.731137    0.03349459952309
             2.8253937    0.23472694665786
             0.6401217    0.81375731841339
 s    1 1.00
             0.1612778                   1

42 0
 s    6 1.00
             5484.6717   0.001831099805527
             825.23495   0.013950098518422
             188.04696    0.06844509273075
               52.9645    0.23271427528445
              16.89757    0.47019295006289
             5.7996353    0.35852086192309
 s    3 1.00
             15.539616   -0.11077750382508
             3.5999336   -0.14802630511126
             1.0137618     1.1307670390447
 s    1 1.00
             0.2700058                   1
 p    3 1.00
             15.539616   0.070874299543311
             3.5999336    0.33975279781076
             1.0137618    0.72715859531445
 p    1 1.00
             0.2700058                   1
 d    1 1.00
                   0.8                   1

43 0
 s    3 1.00
             18.731137    0.03349459952309
             2.8253937    0.23472694665786
             0.6401217    0.81375731841339
 s    1 1.00
             0.1612778                   1

[5d]
[7f]
[9g]

[MO]
 Sym= A
 Ene=               0
 Spin= Alpha
 Occup=    1.00000
   1    -2.4961988045492e-06
   2    -1.2764807220615e-05
   3    -4.6757742233785e-05
   4    -3.7148732925516e-07
   5    -1.978254065314e-05
   6    9.9217038452994e-06
   7    5.3436550127602e-05
   8    0.00012822541303231
   9    -0.00038714345038124
  10    2.7528712350053e-08
  11    1.0462245765582e-05
  12    1.1445283780866e-06
  13    1.4558195344893e-05
  14    -8.3331013255273e-06
  15    -1.5134788373282e-05
  16    6.7167889449981e-06
  17    4.8213648756706e-06
  18    0.00017369587282087
  19    0.00049400835370358
  20    6.6398552878325e-05
  21    2.911805363806e-07
  22    -8.235639414094e-05
  23    0.00022604117483874
  24    -0.00012452611777806
  25    -0.00060873753799407
  26    2.2750802964084e-05
  27    -2.3572087597058e-05
  28    1.3297045652177e-05
  29    4.1731516301592e-05
  30    4.0934357326919e-06
  31    -1.9150069554243e-05
  32    2.6226238956309e-05
  33    8.1422593682639e-05
  34    0.00031289196691106
  35    -0.0047269698148868
  36    -0.00016701809992757
  37    7.4009668163791e-05
  38    0.00019019800173498
  39    -0.00078821169816334
  40    0.0020304600240716
  41    0.00040777557500976
  42    -1.2126620801011e-05
  43    0.00011744307067442
  44    -5.7357421564413e-05
  45    1.749255953073e-05
  46    7.3444238635395e-05
  47    -1.2424411257273e-05
  48    -0.00027397421284749
  49    -5.431654370248e-05
  50    0.00031650432640874
  51    0.0039179600353387
  52    0.00037999845419806
  53    -0.0003444475507044
  54    -0.00039586544129656
  55    -0.0021187163943996
  56    0.0026315652370406
  57    0.0020984166589876
  58    -4.4808614172478e-05
  59    2.4839013224756e-05
  60    0.00019227680482472
  61    3.699719528893e-05
  62    -0.00012208821956391
  63    0.00041777189451514
  64    0.00014461917760717
  65    -2.5562212991762e-07
  66    -6.607438848134e-07
  67    -9.0660268294449e-08
  68    -4.5800568025803e-07
  69    3.094196210687e-06
  70    3.9242322484636e-07
  71    -4.5911619170832e-07
  72    5.8473498935563e-08
  73    4.6735960866594e-07
  74    1.1766552173052e-06
  75      2.8771284181e-07
  76    -6.2120498039642e-08
  77    -1.483047738738e-07
  78    4.5659400451808e-08
  79    5.698085520971e-08
  80    -1.3047014891254e-07
  81    8.4485308074677e-08
  82    -1.8515303189415e-07
  83    -6.6159777703148e-08
  84    -1.9131916221162e-07
  85    -1.4070667912524e-05
  86    5.6214025880363e-07
  87    -6.4958744270421e-08
  88    6.9215302632706e-07
  89    3.4340263172607e-06
  90    -4.4983881220863e-06
  91    3.188822311578e-06
  92    2.2417234790812e-07
  93    -3.7679415991273e-07
  94    2.7203229511063e-07
  95    3.3380554466584e-08
  96    -2.5288515003143e-07
  97    1.4027389606624e-07
  98    -6.2601352560555e-07
  99    3.3722058629078e-07
 100    -3.5443122497285e-07
 101    1.4972954566141e-07
 102    -1.1207171400506e-06
 103    1.0001090089758e-05
 104    2.0460996347051e-06
 105    1.1861595883158e-06
 106    -6.4491605867547e-07
 107    -1.9121400398171e-05
 108    2.1692356413586e-05
 109    3.5122717494644e-05
 110    -6.3496481294202e-07
 111    -5.9701154205501e-07
 112    2.897814139161e-07
 113    3.409935781485e-07
 114    -5.1945166970302e-07
 115    -5.5016657632392e-07
 116    -4.808496685959e-06
 117    4.0019570826462e-05
 118    -8.0954947834152e-07
 119    1.0108803903066e-06
 120    7.2653463550273e-07
 121    -9.9303748900294e-06
 122    2.0487366476025e-06
 123    3.6902538491228e-06
 124    -9.6251175952441e-08
 125    -2.1056508333972e-07
 126    -2.4151109286562e-08
 127    8.4718736696024e-08
 128    -4.9199863247186e-07
 129    -1.0032083964285e-06
 130    -9.635185594593e-06
 131    5.9351640448338e-05
 132    -6.6683473442817e-07
 133    -1.523785220916e-06
 134    3.9615071705611e-06
 135    -2.4707878340706e-05
 136    -2.9760805814142e-06
 137    -9.2140520410475e-05
 138    2.8379223195658e-06
 139    1.711802698769e-06
 140    5.0032123022725e-07
 141    5.6239552721079e-07
 142    1.7260557389256e-07
 143    -7.2353107008772e-07
 144    -4.2879900909646e-06
 145    2.6660217178246e-05
 146    7.8644069213124e-07
 147    4.9202643020103e-07
 148    -3.9666951101523e-07
 149    1.5378573508536e-05
 150    -6.0064950656382e-06
 151    -4.4682426191475e-06
 152    -1.1056980818684e-06
 153    -4.2018262538921e-07
 154    -8.8258853747266e-08
 155    7.5678882823905e-07
 156    -9.2815791937007e-07
 157    -5.5991618501445e-08
 158    1.3857981045751e-06
 159    6.8198877259174e-07
 160    7.8349946244289e-07
 161    -3.9594273314276e-07
 162    -4.9143495979813e-07
 163    -7.7266075834635e-06
 164    7.8878082807174e-07
 165    8.5479838147162e-07
 166    4.9544952234998e-07
 167    -1.8284502630628e-07
 168    -2.2557049695902e-09
 169    -1.2365316868452e-07
 170     3.53483697153e-07
 171    9.4370975649542e-08
 172    -6.8829760299704e-07
 173    -1.1529439277068e-06
 174    -1.0028294441188e-06
 175    -3.9103323608959e-07
 176    9.0942034452626e-07
 177    -4.4395637090932e-07
 178    1.6293912540956e-06
 179    -1.9549091823392e-06
 180    1.3496606823289e-07
 181    1.6050644793662e-07
 182    5.7151139070058e-08
 183    -4.0035395106885e-07
 184    1.8241955934136e-07
 185    -2.7659082398388e-07
 186    -3.3141822865421e-06
 187    1.4121588584295e-06
 188    -1.2145651765814e-07
 189    1.9370271976163e-07
 190    1.5583353090353e-06
 191    2.8852400288234e-06
 192    5.9434997079107e-07
 193    -5.2675522167191e-06
 194    3.2003251544323e-07
 195    -8.8500062129005e-08
 196    2.3269868190401e-07
 197    1.1532356626171e-07
 198    -1.3218654973797e-07
 199    -8.6535585585081e-07
 200    -1.5491369593926e-06
 201    2.7085138931207e-07
 202    4.1880903172005e-06
 203    -1.495727072055e-06
 204    -1.0206967167209e-06
 205    -8.1187263559191e-07
 206    -3.5156055266617e-06
 207    1.2432345110828e-06
 208    -1.0795918977534e-05
 209    1.4109425421399e-06
 210    -5.046109707432e-06
 211    6.221201067028e-07
 212    2.9989344841073e-06
 213    -5.5257212010332e-07
 214    -3.2503517005523e-06
 215    -6.3172045101929e-07
 216    2.9152900518236e-07
 217    5.1430028236384e-07
 218    1.4785930881145e-06
 219     2.59835288648e-07
 220    9.9014705342751e-07
 221    -8.0573278713758e-07
 222    -8.1896424910439e-06
 223    -1.5368681789676e-05
 224    1.9701668626241e-06
 225    -6.1085659755754e-06
 226    2.9346634419006e-06
 227    9.5392873845632e-06
 228    2.4479825621273e-05
 229    -0.00010606110555664
 230    -1.3476757145707e-06
 231    -4.4845390137714e-06
 232    -2.2283885877545e-06
 233    1.8813173880873e-06
 234    3.0331192359997e-06
 235    -8.286343144115e-07
 236    -1.1494050113782e-05
 237    2.1753783545395e-05
 238    -2.4243420207786e-06
 239    8.601433667755e-06
 240    6.5572422498232e-06
 241    -2.5580974394381e-05
 242    -2.7941770048787e-06
 243    -8.6574152582522e-05
 244    1.0967903908653e-06
 245    7.2374742022299e-06
 246    1.1787761693998e-06
 247    2.7719067509336e-06
 248    1.0823300826046e-06
 249    -5.1552026607416e-06
 250    1.1008644315715e-05
 251    -4.8551102897963e-06
 252    -3.5031315376962e-05
 253    0.00029889980863616
 254    5.7337351088443e-07
 255    -2.7349386307838e-06
 256    8.1807517377192e-06
 257    0.00012128987037861
 258    0.00010417591536982
 259    -0.0002669239461495
 260    3.2810524713662e-06
 261    -1.3761086547409e-05
 262    -4.6331561407134e-06
 263    9.098788777836e-06
 264    4.8335256745661e-06
 265    -4.2813050376981e-06
 266    2.9781721315906e-05
 267    -9.3238607800347e-06
 268    3.6449792930056e-05
 269    -7.3027823412746e-05
 270    9.7528592765351e-06
 271    0.0033529719047102
 272    -3.6075950955085e-05
 273    -0.00024399429547909
 274    0.00019556068083841
 275    0.0023058931127733
 276    0.00063786188229348
 277    -0.0034286242881496
 278    0.00019664861729549
 279    -0.00024720089538949
 280    0.00016936071104864