[Molden Format]
made by pyscf v[2.0.1]
[Atoms] (AU)
O   1   8     0.00000000000000     0.00000000000000     9.42996968581551
H   2   1     0.00000000000000     0.00000000000000     7.60656786391454
H   3   1    -0.05031916615174     1.78353065140343     9.80584138228218
O   4   8     0.00000000000000     0.00000000000000     2.31533471513237
C   5   6     0.00000000000000     0.00000000000000     0.00000000000000
C   6   6     2.01118073026938    -1.40227222164369    -1.50774939176400
C   7   6    -2.01249334291722     1.41331050329955    -1.50315905028694
H   8   1     3.32037363730244    -2.26721897153159    -0.13599698591495
C   9   6     3.45899267434009     0.28739631745591    -3.37437943254505
H   10   1     1.07662969841332    -2.94725144642667    -2.56541439481080
H   11   1    -2.67503415753480     0.18421555839588    -3.06194479365997
H   12   1    -1.07974048864772     3.03851734677796    -2.43674295017013
C   13   6    -4.21607110578555     2.32938802552922     0.11994162256091
H   14   1     4.24440173074564     1.93368664142019    -2.34976285512790
H   15   1     2.15020713235517     1.04714335134846    -4.81494497423699
C   16   6     5.60746363007797    -1.12419643481196    -4.70268606082550
H   17   1    -3.46838323670267     3.50951302338067     1.66946842715333
H   18   1    -5.11873485366228     0.68575958301209     1.04047743976495
C   19   6    -6.18314754751344     3.80909592987882    -1.39656589068747
H   20   1     6.93011263717176    -1.87550812453645    -3.26656317360070
C   21   6     7.06356622236532     0.52877932406334    -6.57829775293605
H   22   1     4.82318879258361    -2.78573437948532    -5.70504560381835
H   23   1    -6.91582688743803     2.61304780074712    -2.95074552451969
H   24   1    -5.26532430573853     5.45420349051338    -2.31005832200284
C   25   6    -8.39941882261433     4.73263980500213     0.21800571437956
H   26   1     7.83338371486801     2.19084139882824    -5.57093109900697
H   27   1     5.73544244039420     1.27376866537418    -8.01071492370229
C   28   6     9.21124858443101    -0.89699110072176    -7.88926949186242
H   29   1    -7.66272760055236     5.92277078003992     1.77035591474408
H   30   1    -9.31497248082589     3.08753015622020     1.12614408368786
C   31   6   -10.35481709231879     6.21833079391143    -1.30905206253246
H   32   1    10.58815905329501    -1.61074586756696    -6.49512691622620
H   33   1    10.23506248045667     0.32468009384095    -9.23072870921204
H   34   1     8.47665842847139    -2.53598436989925    -8.94921964622535
H   35   1    -9.48948872868064     7.90013588951020    -2.18823918416067
H   36   1   -11.93332513000955     6.86460487874102    -0.11255798845995
H   37   1   -11.15126291841033     5.04495968327630    -2.83849898862534
[GTO]
1 0
 s    8 1.00
                 11720  0.00070964594651845
                  1759  0.0054672722921914
                 400.8   0.027823118610189
                 113.7    0.10474773971146
                 37.03    0.28292084635691
                 13.27    0.44849523869833
                 5.025    0.27081688521277
                 1.013    0.01545029160744
 s    8 1.00
                 11720  -0.00031444341168873
                  1759  -0.0024821376810179
                 400.8  -0.012316355381583
                 113.7  -0.050538917343672
                 37.03   -0.13938490331632
                 13.27   -0.32507749481778
                 5.025   -0.22984830758785
                 1.013     1.0953793467883
 s    1 1.00
                0.3023                   1
 p    3 1.00
                  17.7   0.062679166281506
                 3.854    0.33353656587936
                 1.046    0.74123964163973
 p    1 1.00
                0.2753                   1
 d    1 1.00
                 1.185                   1

2 0
 s    3 1.00
                 13.01   0.033498726389998
                 1.962    0.23480080117413
                0.4446     0.8136829578829
 s    1 1.00
                 0.122                   1
 p    1 1.00
                 0.727                   1

3 0
 s    3 1.00
                 13.01   0.033498726389998
                 1.962    0.23480080117413
                0.4446     0.8136829578829
 s    1 1.00
                 0.122                   1
 p    1 1.00
                 0.727                   1

4 0
 s    8 1.00
                 11720  0.00070964594651845
                  1759  0.0054672722921914
                 400.8   0.027823118610189
                 113.7    0.10474773971146
                 37.03    0.28292084635691
                 13.27    0.44849523869833
                 5.025    0.27081688521277
                 1.013    0.01545029160744
 s    8 1.00
                 11720  -0.00031444341168873
                  1759  -0.0024821376810179
                 400.8  -0.012316355381583
                 113.7  -0.050538917343672
                 37.03   -0.13938490331632
                 13.27   -0.32507749481778
                 5.025   -0.22984830758785
                 1.013     1.0953793467883
 s    1 1.00
                0.3023                   1
 p    3 1.00
                  17.7   0.062679166281506
                 3.854    0.33353656587936
                 1.046    0.74123964163973
 p    1 1.00
                0.2753                   1
 d    1 1.00
                 1.185                   1

5 0
 s    8 1.00
                  6665  0.00069158396281299
                  1000  0.0053257961529341
                   228   0.027060721042034
                 64.71    0.10165684614077
                 21.06     0.2745748236174
                 7.495    0.44829431892377
                 2.797    0.28490261071525
                0.5215   0.015194859206082
 s    8 1.00
                  6665  -0.00029326965268655
                  1000  -0.0023180354739745
                   228  -0.011499786038565
                 64.71  -0.046826727009787
                 21.06   -0.12846616875047
                 7.495   -0.30126627246289
                 2.797   -0.25563070233011
                0.5215      1.093793361012
 s    1 1.00
                0.1596                   1
 p    3 1.00
                 9.439   0.056979251590039
                 2.002    0.31320721150073
                0.5456    0.76037674173753
 p    1 1.00
                0.1517                   1
 d    1 1.00
                  0.55                   1

6 0
 s    8 1.00
                  6665  0.00069158396281299
                  1000  0.0053257961529341
                   228   0.027060721042034
                 64.71    0.10165684614077
                 21.06     0.2745748236174
                 7.495    0.44829431892377
                 2.797    0.28490261071525
                0.5215   0.015194859206082
 s    8 1.00
                  6665  -0.00029326965268655
                  1000  -0.0023180354739745
                   228  -0.011499786038565
                 64.71  -0.046826727009787
                 21.06   -0.12846616875047
                 7.495   -0.30126627246289
                 2.797   -0.25563070233011
                0.5215      1.093793361012
 s    1 1.00
                0.1596                   1
 p    3 1.00
                 9.439   0.056979251590039
                 2.002    0.31320721150073
                0.5456    0.76037674173753
 p    1 1.00
                0.1517                   1
 d    1 1.00
                  0.55                   1

7 0
 s    8 1.00
                  6665  0.00069158396281299
                  1000  0.0053257961529341
                   228   0.027060721042034
                 64.71    0.10165684614077
                 21.06     0.2745748236174
                 7.495    0.44829431892377
                 2.797    0.28490261071525
                0.5215   0.015194859206082
 s    8 1.00
                  6665  -0.00029326965268655
                  1000  -0.0023180354739745
                   228  -0.011499786038565
                 64.71  -0.046826727009787
                 21.06   -0.12846616875047
                 7.495   -0.30126627246289
                 2.797   -0.25563070233011
                0.5215      1.093793361012
 s    1 1.00
                0.1596                   1
 p    3 1.00
                 9.439   0.056979251590039
                 2.002    0.31320721150073
                0.5456    0.76037674173753
 p    1 1.00
                0.1517                   1
 d    1 1.00
                  0.55                   1

8 0
 s    3 1.00
                 13.01   0.033498726389998
                 1.962    0.23480080117413
                0.4446     0.8136829578829
 s    1 1.00
                 0.122                   1
 p    1 1.00
                 0.727                   1

9 0
 s    8 1.00
                  6665  0.00069158396281299
                  1000  0.0053257961529341
                   228   0.027060721042034
                 64.71    0.10165684614077
                 21.06     0.2745748236174
                 7.495    0.44829431892377
                 2.797    0.28490261071525
                0.5215   0.015194859206082
 s    8 1.00
                  6665  -0.00029326965268655
                  1000  -0.0023180354739745
                   228  -0.011499786038565
                 64.71  -0.046826727009787
                 21.06   -0.12846616875047
                 7.495   -0.30126627246289
                 2.797   -0.25563070233011
                0.5215      1.093793361012
 s    1 1.00
                0.1596                   1
 p    3 1.00
                 9.439   0.056979251590039
                 2.002    0.31320721150073
                0.5456    0.76037674173753
 p    1 1.00
                0.1517                   1
 d    1 1.00
                  0.55                   1

10 0
 s    3 1.00
                 13.01   0.033498726389998
                 1.962    0.23480080117413
                0.4446     0.8136829578829
 s    1 1.00
                 0.122                   1
 p    1 1.00
                 0.727                   1

11 0
 s    3 1.00
                 13.01   0.033498726389998
                 1.962    0.23480080117413
                0.4446     0.8136829578829
 s    1 1.00
                 0.122                   1
 p    1 1.00
                 0.727                   1

12 0
 s    3 1.00
                 13.01   0.033498726389998
                 1.962    0.23480080117413
                0.4446     0.8136829578829
 s    1 1.00
                 0.122                   1
 p    1 1.00
                 0.727                   1

13 0
 s    8 1.00
                  6665  0.00069158396281299
                  1000  0.0053257961529341
                   228   0.027060721042034
                 64.71    0.10165684614077
                 21.06     0.2745748236174
                 7.495    0.44829431892377
                 2.797    0.28490261071525
                0.5215   0.015194859206082
 s    8 1.00
                  6665  -0.00029326965268655
                  1000  -0.0023180354739745
                   228  -0.011499786038565
                 64.71  -0.046826727009787
                 21.06   -0.12846616875047
                 7.495   -0.30126627246289
                 2.797   -0.25563070233011
                0.5215      1.093793361012
 s    1 1.00
                0.1596                   1
 p    3 1.00
                 9.439   0.056979251590039
                 2.002    0.31320721150073
                0.5456    0.76037674173753
 p    1 1.00
                0.1517                   1
 d    1 1.00
                  0.55                   1

14 0
 s    3 1.00
                 13.01   0.033498726389998
                 1.962    0.23480080117413
                0.4446     0.8136829578829
 s    1 1.00
                 0.122                   1
 p    1 1.00
                 0.727                   1

15 0
 s    3 1.00
                 13.01   0.033498726389998
                 1.962    0.23480080117413
                0.4446     0.8136829578829
 s    1 1.00
                 0.122                   1
 p    1 1.00
                 0.727                   1

16 0
 s    8 1.00
                  6665  0.00069158396281299
                  1000  0.0053257961529341
                   228   0.027060721042034
                 64.71    0.10165684614077
                 21.06     0.2745748236174
                 7.495    0.44829431892377
                 2.797    0.28490261071525
                0.5215   0.015194859206082
 s    8 1.00
                  6665  -0.00029326965268655
                  1000  -0.0023180354739745
                   228  -0.011499786038565
                 64.71  -0.046826727009787
                 21.06   -0.12846616875047
                 7.495   -0.30126627246289
                 2.797   -0.25563070233011
                0.5215      1.093793361012
 s    1 1.00
                0.1596                   1
 p    3 1.00
                 9.439   0.056979251590039
                 2.002    0.31320721150073
                0.5456    0.76037674173753
 p    1 1.00
                0.1517                   1
 d    1 1.00
                  0.55                   1

17 0
 s    3 1.00
                 13.01   0.033498726389998
                 1.962    0.23480080117413
                0.4446     0.8136829578829
 s    1 1.00
                 0.122                   1
 p    1 1.00
                 0.727                   1

18 0
 s    3 1.00
                 13.01   0.033498726389998
                 1.962    0.23480080117413
                0.4446     0.8136829578829
 s    1 1.00
                 0.122                   1
 p    1 1.00
                 0.727                   1

19 0
 s    8 1.00
                  6665  0.00069158396281299
                  1000  0.0053257961529341
                   228   0.027060721042034
                 64.71    0.10165684614077
                 21.06     0.2745748236174
                 7.495    0.44829431892377
                 2.797    0.28490261071525
                0.5215   0.015194859206082
 s    8 1.00
                  6665  -0.00029326965268655
                  1000  -0.0023180354739745
                   228  -0.011499786038565
                 64.71  -0.046826727009787
                 21.06   -0.12846616875047
                 7.495   -0.30126627246289
                 2.797   -0.25563070233011
                0.5215      1.093793361012
 s    1 1.00
                0.1596                   1
 p    3 1.00
                 9.439   0.056979251590039
                 2.002    0.31320721150073
                0.5456    0.76037674173753
 p    1 1.00
                0.1517                   1
 d    1 1.00
                  0.55                   1

20 0
 s    3 1.00
                 13.01   0.033498726389998
                 1.962    0.23480080117413
                0.4446     0.8136829578829
 s    1 1.00
                 0.122                   1
 p    1 1.00
                 0.727                   1

21 0
 s    8 1.00
                  6665  0.00069158396281299
                  1000  0.0053257961529341
                   228   0.027060721042034
                 64.71    0.10165684614077
                 21.06     0.2745748236174
                 7.495    0.44829431892377
                 2.797    0.28490261071525
                0.5215   0.015194859206082
 s    8 1.00
                  6665  -0.00029326965268655
                  1000  -0.0023180354739745
                   228  -0.011499786038565
                 64.71  -0.046826727009787
                 21.06   -0.12846616875047
                 7.495   -0.30126627246289
                 2.797   -0.25563070233011
                0.5215      1.093793361012
 s    1 1.00
                0.1596                   1
 p    3 1.00
                 9.439   0.056979251590039
                 2.002    0.31320721150073
                0.5456    0.76037674173753
 p    1 1.00
                0.1517                   1
 d    1 1.00
                  0.55                   1

22 0
 s    3 1.00
                 13.01   0.033498726389998
                 1.962    0.23480080117413
                0.4446     0.8136829578829
 s    1 1.00
                 0.122                   1
 p    1 1.00
                 0.727                   1

23 0
 s    3 1.00
                 13.01   0.033498726389998
                 1.962    0.23480080117413
                0.4446     0.8136829578829
 s    1 1.00
                 0.122                   1
 p    1 1.00
                 0.727                   1

24 0
 s    3 1.00
                 13.01   0.033498726389998
                 1.962    0.23480080117413
                0.4446     0.8136829578829
 s    1 1.00
                 0.122                   1
 p    1 1.00
                 0.727                   1

25 0
 s    8 1.00
                  6665  0.00069158396281299
                  1000  0.0053257961529341
                   228   0.027060721042034
                 64.71    0.10165684614077
                 21.06     0.2745748236174
                 7.495    0.44829431892377
                 2.797    0.28490261071525
                0.5215   0.015194859206082
 s    8 1.00
                  6665  -0.00029326965268655
                  1000  -0.0023180354739745
                   228  -0.011499786038565
                 64.71  -0.046826727009787
                 21.06   -0.12846616875047
                 7.495   -0.30126627246289
                 2.797   -0.25563070233011
                0.5215      1.093793361012
 s    1 1.00
                0.1596                   1
 p    3 1.00
                 9.439   0.056979251590039
                 2.002    0.31320721150073
                0.5456    0.76037674173753
 p    1 1.00
                0.1517                   1
 d    1 1.00
                  0.55                   1

26 0
 s    3 1.00
                 13.01   0.033498726389998
                 1.962    0.23480080117413
                0.4446     0.8136829578829
 s    1 1.00
                 0.122                   1
 p    1 1.00
                 0.727                   1

27 0
 s    3 1.00
                 13.01   0.033498726389998
                 1.962    0.23480080117413
                0.4446     0.8136829578829
 s    1 1.00
                 0.122                   1
 p    1 1.00
                 0.727                   1

28 0
 s    8 1.00
                  6665  0.00069158396281299
                  1000  0.0053257961529341
                   228   0.027060721042034
                 64.71    0.10165684614077
                 21.06     0.2745748236174
                 7.495    0.44829431892377
                 2.797    0.28490261071525
                0.5215   0.015194859206082
 s    8 1.00
                  6665  -0.00029326965268655
                  1000  -0.0023180354739745
                   228  -0.011499786038565
                 64.71  -0.046826727009787
                 21.06   -0.12846616875047
                 7.495   -0.30126627246289
                 2.797   -0.25563070233011
                0.5215      1.093793361012
 s    1 1.00
                0.1596                   1
 p    3 1.00
                 9.439   0.056979251590039
                 2.002    0.31320721150073
                0.5456    0.76037674173753
 p    1 1.00
                0.1517                   1
 d    1 1.00
                  0.55                   1

29 0
 s    3 1.00
                 13.01   0.033498726389998
                 1.962    0.23480080117413
                0.4446     0.8136829578829
 s    1 1.00
                 0.122                   1
 p    1 1.00
                 0.727                   1

30 0
 s    3 1.00
                 13.01   0.033498726389998
                 1.962    0.23480080117413
                0.4446     0.8136829578829
 s    1 1.00
                 0.122                   1
 p    1 1.00
                 0.727                   1

31 0
 s    8 1.00
                  6665  0.00069158396281299
                  1000  0.0053257961529341
                   228   0.027060721042034
                 64.71    0.10165684614077
                 21.06     0.2745748236174
                 7.495    0.44829431892377
                 2.797    0.28490261071525
                0.5215   0.015194859206082
 s    8 1.00
                  6665  -0.00029326965268655
                  1000  -0.0023180354739745
                   228  -0.011499786038565
                 64.71  -0.046826727009787
                 21.06   -0.12846616875047
                 7.495   -0.30126627246289
                 2.797   -0.25563070233011
                0.5215      1.093793361012
 s    1 1.00
                0.1596                   1
 p    3 1.00
                 9.439   0.056979251590039
                 2.002    0.31320721150073
                0.5456    0.76037674173753
 p    1 1.00
                0.1517                   1
 d    1 1.00
                  0.55                   1

32 0
 s    3 1.00
                 13.01   0.033498726389998
                 1.962    0.23480080117413
                0.4446     0.8136829578829
 s    1 1.00
                 0.122                   1
 p    1 1.00
                 0.727                   1

33 0
 s    3 1.00
                 13.01   0.033498726389998
                 1.962    0.23480080117413
                0.4446     0.8136829578829
 s    1 1.00
                 0.122                   1
 p    1 1.00
                 0.727                   1

34 0
 s    3 1.00
                 13.01   0.033498726389998
                 1.962    0.23480080117413
                0.4446     0.8136829578829
 s    1 1.00
                 0.122                   1
 p    1 1.00
                 0.727                   1

35 0
 s    3 1.00
                 13.01   0.033498726389998
                 1.962    0.23480080117413
                0.4446     0.8136829578829
 s    1 1.00
                 0.122                   1
 p    1 1.00
                 0.727                   1

36 0
 s    3 1.00
                 13.01   0.033498726389998
                 1.962    0.23480080117413
                0.4446     0.8136829578829
 s    1 1.00
                 0.122                   1
 p    1 1.00
                 0.727                   1

37 0
 s    3 1.00
                 13.01   0.033498726389998
                 1.962    0.23480080117413
                0.4446     0.8136829578829
 s    1 1.00
                 0.122                   1
 p    1 1.00
                 0.727                   1

[5d]
[7f]
[9g]

[MO]
 Sym= A
 Ene=               0
 Spin= Alpha
 Occup=    1.00000
   1    6.105860934571e-05
   2    4.3181781056406e-05
   3    -0.00013054988365987
   4    6.8649885032761e-08
   5    -5.4536743090267e-06
   6    -8.0493291011899e-06
   7    -5.936281381531e-07
   8    2.5176636437092e-05
   9    8.5660338823224e-05
  10    -1.1186314106212e-05
  11    2.1215563712513e-08
  12    6.0058890485472e-07
  13    -3.3858074426024e-07
  14    -9.4329304331983e-09
  15    1.6617335348385e-05
  16    0.00019429323585743
  17    1.9543449026458e-07
  18    -1.7551815733456e-06
  19    2.2297365036268e-05
  20    8.0788468668367e-06
  21    -6.948397723219e-05
  22    -1.7923602599827e-07
  23    5.145007323132e-06
  24    -2.3701250737814e-06
  25      -1.0013692984347
  26    -0.0019674672042795
  27    0.0068567895149216
  28    4.595570565317e-06
  29    -8.8774060133579e-06
  30    0.0016491041854969
  31    -6.7314162908738e-07
  32    2.6275967411444e-06
  33    -0.0018781396911185
  34    -0.00011956358848775
  35    2.9294354328056e-06
  36    -1.4399598729587e-06
  37    -6.7192133737436e-05
  38    0.00017490913077716
  39    -0.00028004803323163
  40    -0.00038555071520192
  41    -0.0014681074482741
  42    -1.5690002453778e-05
  43    1.0311073895696e-05
  44    -4.3765142510355e-06
  45    -7.8127768815888e-05
  46    6.1991823813327e-05
  47    -0.0035996534476437
  48    0.00052295350469103
  49    8.123260804041e-06
  50    -2.330957624841e-06
  51    -2.950066386019e-05
  52    0.00010924130223389
  53    8.4817366042559e-05
  54    0.0001657595511787
  55    -0.0013795284777987
  56    -7.7882999294174e-05
  57    7.1054965592744e-06
  58    3.5014884619063e-05
  59    0.00042584519687254
  60    -0.00047990327479176
  61    0.00094444246112009
  62    0.00011685118887374
  63    -0.0001498427792448
  64    0.00014298858473321
  65    -5.472315761479e-05
  66    0.00012871291904443
  67    3.9168752769532e-05
  68    9.7129229024411e-05
  69    -0.00050711220861038
  70    6.0002554538626e-05
  71    -3.9790602736546e-05
  72    5.959686854262e-05
  73    -0.0010031465681672
  74    0.00077110820080024
  75    0.00064910108587595
  76    0.00013947344645737
  77    0.00012142872691674
  78    -8.9856615501428e-05
  79    -5.8322862008174e-05
  80    0.00015012971633492
  81    6.2719671160662e-05
  82    -0.00021060893062637
  83    -6.6315292499244e-05
  84    4.8749747962139e-05
  85    -4.8292853735922e-05
  86    -2.5088387061042e-05
  87    -4.929808438235e-05
  88    0.00061202515363499
  89    1.563066417031e-05
  90    1.742887733613e-05
  91    -1.1627624759709e-05
  92    -0.00025885322289205
  93    -0.00063456287495333
  94    1.6697585846165e-05
  95    -1.8410347833242e-05
  96    -1.1366673658052e-05
  97    -7.6111452449409e-06
  98    2.0167359526381e-05
  99    4.6749986637515e-05
 100    3.8699003154239e-05
 101    0.00016080236546833
 102    -8.186065364737e-06
 103    1.0187294635589e-05
 104    -7.5505366288951e-05
 105    1.9293309978832e-05
 106    0.00020164972617801
 107    6.4184873036412e-05
 108    -9.6889011087715e-06
 109    -7.5227994166296e-05
 110    -7.749355102625e-05
 111    6.0941562322589e-05
 112    4.4677051362599e-05
 113    -1.9222650579348e-05
 114    -7.0373734979857e-05
 115    5.6386606633115e-05
 116    0.00011334386907875
 117    -0.00083250372284164
 118    1.1829859493302e-05
 119    2.205231977444e-05
 120    -4.4011158920071e-05
 121    -0.00029910036362509
 122    -2.5921796499412e-05
 123    0.00013899607756841
 124    5.7727233267764e-06
 125    -1.4159193890463e-05
 126    -1.4429265457453e-05
 127    3.1427103945177e-05
 128    -4.979783334624e-05
 129    1.9382815183163e-05
 130    0.00032755379451026
 131    -7.7530483942493e-06
 132    -5.9025345298738e-06
 133    -2.9381610696641e-05
 134    -2.581020114015e-05
 135    0.00011808978161523
 136    1.359874774165e-05
 137    2.4556828762436e-05
 138    2.6910130270355e-05
 139    2.1655962842193e-05
 140    3.9495227671572e-05
 141    -0.00029323510798838
 142    -7.4913787887101e-06
 143    3.0623915650525e-06
 144    5.7800978069987e-06
 145    0.00023113398843716
 146    -5.443941771868e-05
 147    -6.3280073431044e-05
 148    2.5264180635801e-06
 149    -2.9684780590723e-06
 150    3.7753369925435e-06
 151    -1.235540060538e-05
 152    4.8293185711699e-06
 153    9.4088775942366e-05
 154    9.8003915358811e-05
 155    2.584339333746e-05
 156    -2.8523618795308e-05
 157    -2.0234985533965e-05
 158    2.4529891364405e-05
 159    8.5503586615933e-05
 160    5.8513372855299e-05
 161    7.5144483561204e-06
 162    -7.1252407866721e-06
 163    -0.00010476263294893
 164    -0.00010058058242596
 165    0.0001876691024543
 166    7.0167044328887e-05
 167    -3.022512802681e-05
 168    5.5873872470223e-05
 169    -0.00020888282534647
 170    0.0002020331969523
 171    0.00016594108356375
 172    1.5337149958345e-06
 173    -6.8234473553512e-06
 174    9.7641794646319e-06
 175    -2.8280804065744e-06
 176    1.5016759785927e-05
 177    1.6570291649212e-05
 178    -8.4005883344233e-05
 179    9.480971248729e-07
 180    -1.8229749610529e-06
 181     4.84450435069e-06
 182    -1.9941374374059e-05
 183    -3.1002935138537e-05
 184    6.7428161194982e-05
 185    -9.6624636050959e-07
 186    -2.2304725996767e-06
 187    -4.9203159885027e-06
 188    -0.00013115204018552
 189    0.00010316116609812
 190    8.7314706794783e-05
 191    -1.1098731121492e-06
 192    -1.8369423084511e-06
 193    7.2733967244863e-06
 194    3.0945381875949e-06
 195    5.5269886602023e-06
 196    1.3447356422324e-05
 197    1.8573343909138e-05
 198    -5.6404424544598e-06
 199    -1.9440190692553e-06
 200    3.4294189757339e-06
 201    -8.9741752099131e-05
 202    -3.1866930815079e-05
 203     1.00609661501e-05
 204    -1.6824797168214e-05
 205    -1.8432968951727e-05
 206    -7.5876693309285e-05
 207    -8.2097239131802e-05
 208    2.0878813513947e-05
 209    2.4867636952978e-06
 210    -1.7322413135713e-05
 211    7.3548164199241e-06
 212    4.1369207608587e-06
 213    -0.00027808461382546
 214    -3.9821006437996e-05
 215    2.806748118762e-05
 216    2.3691836258555e-05
 217    -0.00021026749753575
 218    6.4911658540214e-05
 219    8.457689030155e-05
 220    1.5064612040358e-07
 221    2.3665000773038e-05
 222    -8.8222293242844e-06
 223    -1.0510023536561e-05
 224    2.8226045344141e-06
 225    -2.8308504380223e-05
 226    -5.5866542513404e-05
 227    1.2341023555981e-05
 228    2.2254879785857e-06
 229     1.11400583692e-06
 230    -8.0602837016288e-06
 231    -5.3026565060506e-05
 232    3.9268243678085e-06
 233    -6.3962488954691e-06
 234    -1.1986895506198e-05
 235    -6.5023872973705e-07
 236    -4.1488447095035e-06
 237    7.6607107443356e-05
 238    2.6955560620351e-06
 239    -2.9362888309566e-06
 240    1.4197683396895e-06
 241    -3.3456443675579e-05
 242    6.2779507765913e-05
 243    -1.8971451198895e-05
 244    -1.8658561929955e-06
 245    -1.6031913232014e-06
 246    1.528480190896e-06
 247    -1.6579307997028e-07
 248    -6.7194404155837e-07
 249    1.4965214290688e-05
 250    -1.331422776378e-05
 251    4.0153831974193e-06
 252    1.9538031588086e-06
 253    6.9877689563502e-07
 254    3.4308717030943e-06
 255    -5.8736349432329e-05
 256    -1.4903095354761e-06
 257    -5.2373212990623e-06
 258    1.7218070600237e-06
 259    9.185151872657e-06
 260    2.8416644774846e-05
 261    -6.1265208104237e-05
 262    1.8041511080459e-05
 263    -1.3772247246066e-05