[Molden Format]
made by pyscf v[2.0.1]
[Atoms] (AU)
O   1   8     0.00000000000000     0.00000000000000     7.54024356125045
H   2   1     0.00000000000000     0.00000000000000     5.71684173934948
H   3   1    -0.05031916615174     1.78353065140343     7.91611525771711
O   4   8     0.00000000000000     0.00000000000000     2.31533471513237
C   5   6     0.00000000000000     0.00000000000000     0.00000000000000
C   6   6     2.01118073026938    -1.40227222164369    -1.50774939176400
C   7   6    -2.01249334291722     1.41331050329955    -1.50315905028694
H   8   1     3.32037363730244    -2.26721897153159    -0.13599698591495
C   9   6     3.45899267434009     0.28739631745591    -3.37437943254505
H   10   1     1.07662969841332    -2.94725144642667    -2.56541439481080
H   11   1    -2.67503415753480     0.18421555839588    -3.06194479365997
H   12   1    -1.07974048864772     3.03851734677796    -2.43674295017013
C   13   6    -4.21607110578555     2.32938802552922     0.11994162256091
H   14   1     4.24440173074564     1.93368664142019    -2.34976285512790
H   15   1     2.15020713235517     1.04714335134846    -4.81494497423699
C   16   6     5.60746363007797    -1.12419643481196    -4.70268606082550
H   17   1    -3.46838323670267     3.50951302338067     1.66946842715333
H   18   1    -5.11873485366228     0.68575958301209     1.04047743976495
C   19   6    -6.18314754751344     3.80909592987882    -1.39656589068747
H   20   1     6.93011263717176    -1.87550812453645    -3.26656317360070
C   21   6     7.06356622236532     0.52877932406334    -6.57829775293605
H   22   1     4.82318879258361    -2.78573437948532    -5.70504560381835
H   23   1    -6.91582688743803     2.61304780074712    -2.95074552451969
H   24   1    -5.26532430573853     5.45420349051338    -2.31005832200284
C   25   6    -8.39941882261433     4.73263980500213     0.21800571437956
H   26   1     7.83338371486801     2.19084139882824    -5.57093109900697
H   27   1     5.73544244039420     1.27376866537418    -8.01071492370229
C   28   6     9.21124858443101    -0.89699110072176    -7.88926949186242
H   29   1    -7.66272760055236     5.92277078003992     1.77035591474408
H   30   1    -9.31497248082589     3.08753015622020     1.12614408368786
C   31   6   -10.35481709231879     6.21833079391143    -1.30905206253246
H   32   1    10.58815905329501    -1.61074586756696    -6.49512691622620
H   33   1    10.23506248045667     0.32468009384095    -9.23072870921204
H   34   1     8.47665842847139    -2.53598436989925    -8.94921964622535
H   35   1    -9.48948872868064     7.90013588951020    -2.18823918416067
H   36   1   -11.93332513000955     6.86460487874102    -0.11255798845995
H   37   1   -11.15126291841033     5.04495968327630    -2.83849898862534
[GTO]
1 0
 s    8 1.00
                 11720  0.00070964594651845
                  1759  0.0054672722921914
                 400.8   0.027823118610189
                 113.7    0.10474773971146
                 37.03    0.28292084635691
                 13.27    0.44849523869833
                 5.025    0.27081688521277
                 1.013    0.01545029160744
 s    8 1.00
                 11720  -0.00031444341168873
                  1759  -0.0024821376810179
                 400.8  -0.012316355381583
                 113.7  -0.050538917343672
                 37.03   -0.13938490331632
                 13.27   -0.32507749481778
                 5.025   -0.22984830758785
                 1.013     1.0953793467883
 s    1 1.00
                0.3023                   1
 p    3 1.00
                  17.7   0.062679166281506
                 3.854    0.33353656587936
                 1.046    0.74123964163973
 p    1 1.00
                0.2753                   1
 d    1 1.00
                 1.185                   1

2 0
 s    3 1.00
                 13.01   0.033498726389998
                 1.962    0.23480080117413
                0.4446     0.8136829578829
 s    1 1.00
                 0.122                   1
 p    1 1.00
                 0.727                   1

3 0
 s    3 1.00
                 13.01   0.033498726389998
                 1.962    0.23480080117413
                0.4446     0.8136829578829
 s    1 1.00
                 0.122                   1
 p    1 1.00
                 0.727                   1

4 0
 s    8 1.00
                 11720  0.00070964594651845
                  1759  0.0054672722921914
                 400.8   0.027823118610189
                 113.7    0.10474773971146
                 37.03    0.28292084635691
                 13.27    0.44849523869833
                 5.025    0.27081688521277
                 1.013    0.01545029160744
 s    8 1.00
                 11720  -0.00031444341168873
                  1759  -0.0024821376810179
                 400.8  -0.012316355381583
                 113.7  -0.050538917343672
                 37.03   -0.13938490331632
                 13.27   -0.32507749481778
                 5.025   -0.22984830758785
                 1.013     1.0953793467883
 s    1 1.00
                0.3023                   1
 p    3 1.00
                  17.7   0.062679166281506
                 3.854    0.33353656587936
                 1.046    0.74123964163973
 p    1 1.00
                0.2753                   1
 d    1 1.00
                 1.185                   1

5 0
 s    8 1.00
                  6665  0.00069158396281299
                  1000  0.0053257961529341
                   228   0.027060721042034
                 64.71    0.10165684614077
                 21.06     0.2745748236174
                 7.495    0.44829431892377
                 2.797    0.28490261071525
                0.5215   0.015194859206082
 s    8 1.00
                  6665  -0.00029326965268655
                  1000  -0.0023180354739745
                   228  -0.011499786038565
                 64.71  -0.046826727009787
                 21.06   -0.12846616875047
                 7.495   -0.30126627246289
                 2.797   -0.25563070233011
                0.5215      1.093793361012
 s    1 1.00
                0.1596                   1
 p    3 1.00
                 9.439   0.056979251590039
                 2.002    0.31320721150073
                0.5456    0.76037674173753
 p    1 1.00
                0.1517                   1
 d    1 1.00
                  0.55                   1

6 0
 s    8 1.00
                  6665  0.00069158396281299
                  1000  0.0053257961529341
                   228   0.027060721042034
                 64.71    0.10165684614077
                 21.06     0.2745748236174
                 7.495    0.44829431892377
                 2.797    0.28490261071525
                0.5215   0.015194859206082
 s    8 1.00
                  6665  -0.00029326965268655
                  1000  -0.0023180354739745
                   228  -0.011499786038565
                 64.71  -0.046826727009787
                 21.06   -0.12846616875047
                 7.495   -0.30126627246289
                 2.797   -0.25563070233011
                0.5215      1.093793361012
 s    1 1.00
                0.1596                   1
 p    3 1.00
                 9.439   0.056979251590039
                 2.002    0.31320721150073
                0.5456    0.76037674173753
 p    1 1.00
                0.1517                   1
 d    1 1.00
                  0.55                   1

7 0
 s    8 1.00
                  6665  0.00069158396281299
                  1000  0.0053257961529341
                   228   0.027060721042034
                 64.71    0.10165684614077
                 21.06     0.2745748236174
                 7.495    0.44829431892377
                 2.797    0.28490261071525
                0.5215   0.015194859206082
 s    8 1.00
                  6665  -0.00029326965268655
                  1000  -0.0023180354739745
                   228  -0.011499786038565
                 64.71  -0.046826727009787
                 21.06   -0.12846616875047
                 7.495   -0.30126627246289
                 2.797   -0.25563070233011
                0.5215      1.093793361012
 s    1 1.00
                0.1596                   1
 p    3 1.00
                 9.439   0.056979251590039
                 2.002    0.31320721150073
                0.5456    0.76037674173753
 p    1 1.00
                0.1517                   1
 d    1 1.00
                  0.55                   1

8 0
 s    3 1.00
                 13.01   0.033498726389998
                 1.962    0.23480080117413
                0.4446     0.8136829578829
 s    1 1.00
                 0.122                   1
 p    1 1.00
                 0.727                   1

9 0
 s    8 1.00
                  6665  0.00069158396281299
                  1000  0.0053257961529341
                   228   0.027060721042034
                 64.71    0.10165684614077
                 21.06     0.2745748236174
                 7.495    0.44829431892377
                 2.797    0.28490261071525
                0.5215   0.015194859206082
 s    8 1.00
                  6665  -0.00029326965268655
                  1000  -0.0023180354739745
                   228  -0.011499786038565
                 64.71  -0.046826727009787
                 21.06   -0.12846616875047
                 7.495   -0.30126627246289
                 2.797   -0.25563070233011
                0.5215      1.093793361012
 s    1 1.00
                0.1596                   1
 p    3 1.00
                 9.439   0.056979251590039
                 2.002    0.31320721150073
                0.5456    0.76037674173753
 p    1 1.00
                0.1517                   1
 d    1 1.00
                  0.55                   1

10 0
 s    3 1.00
                 13.01   0.033498726389998
                 1.962    0.23480080117413
                0.4446     0.8136829578829
 s    1 1.00
                 0.122                   1
 p    1 1.00
                 0.727                   1

11 0
 s    3 1.00
                 13.01   0.033498726389998
                 1.962    0.23480080117413
                0.4446     0.8136829578829
 s    1 1.00
                 0.122                   1
 p    1 1.00
                 0.727                   1

12 0
 s    3 1.00
                 13.01   0.033498726389998
                 1.962    0.23480080117413
                0.4446     0.8136829578829
 s    1 1.00
                 0.122                   1
 p    1 1.00
                 0.727                   1

13 0
 s    8 1.00
                  6665  0.00069158396281299
                  1000  0.0053257961529341
                   228   0.027060721042034
                 64.71    0.10165684614077
                 21.06     0.2745748236174
                 7.495    0.44829431892377
                 2.797    0.28490261071525
                0.5215   0.015194859206082
 s    8 1.00
                  6665  -0.00029326965268655
                  1000  -0.0023180354739745
                   228  -0.011499786038565
                 64.71  -0.046826727009787
                 21.06   -0.12846616875047
                 7.495   -0.30126627246289
                 2.797   -0.25563070233011
                0.5215      1.093793361012
 s    1 1.00
                0.1596                   1
 p    3 1.00
                 9.439   0.056979251590039
                 2.002    0.31320721150073
                0.5456    0.76037674173753
 p    1 1.00
                0.1517                   1
 d    1 1.00
                  0.55                   1

14 0
 s    3 1.00
                 13.01   0.033498726389998
                 1.962    0.23480080117413
                0.4446     0.8136829578829
 s    1 1.00
                 0.122                   1
 p    1 1.00
                 0.727                   1

15 0
 s    3 1.00
                 13.01   0.033498726389998
                 1.962    0.23480080117413
                0.4446     0.8136829578829
 s    1 1.00
                 0.122                   1
 p    1 1.00
                 0.727                   1

16 0
 s    8 1.00
                  6665  0.00069158396281299
                  1000  0.0053257961529341
                   228   0.027060721042034
                 64.71    0.10165684614077
                 21.06     0.2745748236174
                 7.495    0.44829431892377
                 2.797    0.28490261071525
                0.5215   0.015194859206082
 s    8 1.00
                  6665  -0.00029326965268655
                  1000  -0.0023180354739745
                   228  -0.011499786038565
                 64.71  -0.046826727009787
                 21.06   -0.12846616875047
                 7.495   -0.30126627246289
                 2.797   -0.25563070233011
                0.5215      1.093793361012
 s    1 1.00
                0.1596                   1
 p    3 1.00
                 9.439   0.056979251590039
                 2.002    0.31320721150073
                0.5456    0.76037674173753
 p    1 1.00
                0.1517                   1
 d    1 1.00
                  0.55                   1

17 0
 s    3 1.00
                 13.01   0.033498726389998
                 1.962    0.23480080117413
                0.4446     0.8136829578829
 s    1 1.00
                 0.122                   1
 p    1 1.00
                 0.727                   1

18 0
 s    3 1.00
                 13.01   0.033498726389998
                 1.962    0.23480080117413
                0.4446     0.8136829578829
 s    1 1.00
                 0.122                   1
 p    1 1.00
                 0.727                   1

19 0
 s    8 1.00
                  6665  0.00069158396281299
                  1000  0.0053257961529341
                   228   0.027060721042034
                 64.71    0.10165684614077
                 21.06     0.2745748236174
                 7.495    0.44829431892377
                 2.797    0.28490261071525
                0.5215   0.015194859206082
 s    8 1.00
                  6665  -0.00029326965268655
                  1000  -0.0023180354739745
                   228  -0.011499786038565
                 64.71  -0.046826727009787
                 21.06   -0.12846616875047
                 7.495   -0.30126627246289
                 2.797   -0.25563070233011
                0.5215      1.093793361012
 s    1 1.00
                0.1596                   1
 p    3 1.00
                 9.439   0.056979251590039
                 2.002    0.31320721150073
                0.5456    0.76037674173753
 p    1 1.00
                0.1517                   1
 d    1 1.00
                  0.55                   1

20 0
 s    3 1.00
                 13.01   0.033498726389998
                 1.962    0.23480080117413
                0.4446     0.8136829578829
 s    1 1.00
                 0.122                   1
 p    1 1.00
                 0.727                   1

21 0
 s    8 1.00
                  6665  0.00069158396281299
                  1000  0.0053257961529341
                   228   0.027060721042034
                 64.71    0.10165684614077
                 21.06     0.2745748236174
                 7.495    0.44829431892377
                 2.797    0.28490261071525
                0.5215   0.015194859206082
 s    8 1.00
                  6665  -0.00029326965268655
                  1000  -0.0023180354739745
                   228  -0.011499786038565
                 64.71  -0.046826727009787
                 21.06   -0.12846616875047
                 7.495   -0.30126627246289
                 2.797   -0.25563070233011
                0.5215      1.093793361012
 s    1 1.00
                0.1596                   1
 p    3 1.00
                 9.439   0.056979251590039
                 2.002    0.31320721150073
                0.5456    0.76037674173753
 p    1 1.00
                0.1517                   1
 d    1 1.00
                  0.55                   1

22 0
 s    3 1.00
                 13.01   0.033498726389998
                 1.962    0.23480080117413
                0.4446     0.8136829578829
 s    1 1.00
                 0.122                   1
 p    1 1.00
                 0.727                   1

23 0
 s    3 1.00
                 13.01   0.033498726389998
                 1.962    0.23480080117413
                0.4446     0.8136829578829
 s    1 1.00
                 0.122                   1
 p    1 1.00
                 0.727                   1

24 0
 s    3 1.00
                 13.01   0.033498726389998
                 1.962    0.23480080117413
                0.4446     0.8136829578829
 s    1 1.00
                 0.122                   1
 p    1 1.00
                 0.727                   1

25 0
 s    8 1.00
                  6665  0.00069158396281299
                  1000  0.0053257961529341
                   228   0.027060721042034
                 64.71    0.10165684614077
                 21.06     0.2745748236174
                 7.495    0.44829431892377
                 2.797    0.28490261071525
                0.5215   0.015194859206082
 s    8 1.00
                  6665  -0.00029326965268655
                  1000  -0.0023180354739745
                   228  -0.011499786038565
                 64.71  -0.046826727009787
                 21.06   -0.12846616875047
                 7.495   -0.30126627246289
                 2.797   -0.25563070233011
                0.5215      1.093793361012
 s    1 1.00
                0.1596                   1
 p    3 1.00
                 9.439   0.056979251590039
                 2.002    0.31320721150073
                0.5456    0.76037674173753
 p    1 1.00
                0.1517                   1
 d    1 1.00
                  0.55                   1

26 0
 s    3 1.00
                 13.01   0.033498726389998
                 1.962    0.23480080117413
                0.4446     0.8136829578829
 s    1 1.00
                 0.122                   1
 p    1 1.00
                 0.727                   1

27 0
 s    3 1.00
                 13.01   0.033498726389998
                 1.962    0.23480080117413
                0.4446     0.8136829578829
 s    1 1.00
                 0.122                   1
 p    1 1.00
                 0.727                   1

28 0
 s    8 1.00
                  6665  0.00069158396281299
                  1000  0.0053257961529341
                   228   0.027060721042034
                 64.71    0.10165684614077
                 21.06     0.2745748236174
                 7.495    0.44829431892377
                 2.797    0.28490261071525
                0.5215   0.015194859206082
 s    8 1.00
                  6665  -0.00029326965268655
                  1000  -0.0023180354739745
                   228  -0.011499786038565
                 64.71  -0.046826727009787
                 21.06   -0.12846616875047
                 7.495   -0.30126627246289
                 2.797   -0.25563070233011
                0.5215      1.093793361012
 s    1 1.00
                0.1596                   1
 p    3 1.00
                 9.439   0.056979251590039
                 2.002    0.31320721150073
                0.5456    0.76037674173753
 p    1 1.00
                0.1517                   1
 d    1 1.00
                  0.55                   1

29 0
 s    3 1.00
                 13.01   0.033498726389998
                 1.962    0.23480080117413
                0.4446     0.8136829578829
 s    1 1.00
                 0.122                   1
 p    1 1.00
                 0.727                   1

30 0
 s    3 1.00
                 13.01   0.033498726389998
                 1.962    0.23480080117413
                0.4446     0.8136829578829
 s    1 1.00
                 0.122                   1
 p    1 1.00
                 0.727                   1

31 0
 s    8 1.00
                  6665  0.00069158396281299
                  1000  0.0053257961529341
                   228   0.027060721042034
                 64.71    0.10165684614077
                 21.06     0.2745748236174
                 7.495    0.44829431892377
                 2.797    0.28490261071525
                0.5215   0.015194859206082
 s    8 1.00
                  6665  -0.00029326965268655
                  1000  -0.0023180354739745
                   228  -0.011499786038565
                 64.71  -0.046826727009787
                 21.06   -0.12846616875047
                 7.495   -0.30126627246289
                 2.797   -0.25563070233011
                0.5215      1.093793361012
 s    1 1.00
                0.1596                   1
 p    3 1.00
                 9.439   0.056979251590039
                 2.002    0.31320721150073
                0.5456    0.76037674173753
 p    1 1.00
                0.1517                   1
 d    1 1.00
                  0.55                   1

32 0
 s    3 1.00
                 13.01   0.033498726389998
                 1.962    0.23480080117413
                0.4446     0.8136829578829
 s    1 1.00
                 0.122                   1
 p    1 1.00
                 0.727                   1

33 0
 s    3 1.00
                 13.01   0.033498726389998
                 1.962    0.23480080117413
                0.4446     0.8136829578829
 s    1 1.00
                 0.122                   1
 p    1 1.00
                 0.727                   1

34 0
 s    3 1.00
                 13.01   0.033498726389998
                 1.962    0.23480080117413
                0.4446     0.8136829578829
 s    1 1.00
                 0.122                   1
 p    1 1.00
                 0.727                   1

35 0
 s    3 1.00
                 13.01   0.033498726389998
                 1.962    0.23480080117413
                0.4446     0.8136829578829
 s    1 1.00
                 0.122                   1
 p    1 1.00
                 0.727                   1

36 0
 s    3 1.00
                 13.01   0.033498726389998
                 1.962    0.23480080117413
                0.4446     0.8136829578829
 s    1 1.00
                 0.122                   1
 p    1 1.00
                 0.727                   1

37 0
 s    3 1.00
                 13.01   0.033498726389998
                 1.962    0.23480080117413
                0.4446     0.8136829578829
 s    1 1.00
                 0.122                   1
 p    1 1.00
                 0.727                   1

[5d]
[7f]
[9g]

[MO]
 Sym= A
 Ene=               0
 Spin= Alpha
 Occup=    1.00000
   1    -6.4104868499862e-05
   2    -2.9245879318195e-05
   3    0.00012118403680966
   4    5.289422743508e-07
   5     4.24522649363e-06
   6    -1.8314863702673e-06
   7    -5.3395155323226e-07
   8    -2.1188847730942e-05
   9    -3.2411922471907e-05
  10    4.615469125757e-06
  11    -2.832672150509e-07
  12    2.5148072915891e-06
  13    1.7225198726417e-06
  14    4.1928999192755e-08
  15    -7.1282440620401e-05
  16    -0.00022546799597311
  17    -1.0928543887917e-06
  18    3.2896839151996e-06
  19      2.4026127656e-06
  20    4.0876844500879e-06
  21    4.0969703265032e-05
  22    1.6764409181669e-07
  23    2.2050144163319e-06
  24    -7.3367504657276e-06
  25       1.0013928211119
  26    0.0020329116549807
  27    -0.0070240636189914
  28    -5.3186713955698e-06
  29    1.3525705751585e-05
  30    -0.0016133352492123
  31    9.3449585181899e-07
  32    -5.0430826738427e-06
  33    0.0020335497601018
  34    0.00010446627886111
  35    -2.7566979323208e-06
  36    1.5391808561654e-06
  37    6.4880007734576e-05
  38    -0.00016898629843226
  39    0.00029770524691043
  40    0.00042288754439688
  41    0.0016076722461568
  42    1.6637468346372e-05
  43    -1.0371701280345e-05
  44    4.1063154570279e-05
  45    8.1947865107092e-05
  46    -6.5472014360113e-05
  47    0.0037573935976592
  48    -0.0004885894876142
  49    -8.0086937461284e-06
  50    2.563452615699e-06
  51    3.0848890567178e-05
  52    -0.00011293422344317
  53    -8.3834808025036e-05
  54    -0.00016393164662331
  55    0.0014004825968717
  56    7.8454542768495e-05
  57    -6.7027262041014e-06
  58    -3.3025620058408e-05
  59    -0.0004351286541043
  60    0.0004883171108568
  61    -0.0010002215429182
  62    -0.00011542465478973
  63    0.0001493835786554
  64    -0.0001434422460287
  65    5.3875642378576e-05
  66    -0.00012552799084204
  67    -3.6995002928256e-05
  68    -9.3239604332984e-05
  69    0.00051876608192293
  70    -6.1225698280461e-05
  71    4.1270983418718e-05
  72    -5.8589626251525e-05
  73    0.0010269198123782
  74    -0.00078901313551838
  75    -0.00067974129774499
  76    -0.00013813739382266
  77    -0.00012185113352196
  78    8.9813126989961e-05
  79    5.7725536557761e-05
  80    -0.00014816806569331
  81    -5.6630597142671e-05
  82    0.00022534040388305
  83    6.7441713908448e-05
  84    -4.9488521918086e-05
  85    4.6053395206999e-05
  86    2.5007608443505e-05
  87    4.9131846883605e-05
  88    -0.00063091631238506
  89    -1.5467905577223e-05
  90    -1.7674331046184e-05
  91    1.0729479598624e-05
  92    0.00026530571613209
  93    0.00066211205502411
  94     -8.4775209508e-06
  95    1.950717461963e-05
  96    1.1711778954198e-05
  97    8.3797322879583e-06
  98    -1.8785894485991e-05
  99    -4.9920075214972e-05
 100    -4.2792675509959e-05
 101    -0.0001691948340856
 102    5.2691131285489e-06
 103    -1.1152005185446e-05
 104    7.8761049650523e-05
 105    -2.1132033989725e-05
 106    -0.00020905934691009
 107    -6.3760934030135e-05
 108    6.6169716491914e-06
 109    7.7568122954615e-05
 110    7.8885296432576e-05
 111    -6.789462264681e-05
 112    -4.3377495331354e-05
 113    2.0978540698005e-05
 114    7.2720454291214e-05
 115    -5.501048542969e-05
 116    -0.00011077352944845
 117    0.00084950486904679
 118    -1.0449099850153e-05
 119    -2.3156118787907e-05
 120    4.307447984147e-05
 121    0.00029406041272744
 122    3.2915298590848e-05
 123    -0.00015431037818286
 124    -5.2801147237966e-06
 125    1.2156096008668e-05
 126    1.4272523415507e-05
 127    -3.1867487419754e-05
 128    5.1696762654749e-05
 129    -2.0583122523911e-05
 130    -0.00034392782534181
 131    8.3621637240662e-06
 132    6.003466373506e-06
 133    2.9851327046561e-05
 134    2.5588553627994e-05
 135    -0.00011791041566699
 136    -1.3931955607355e-05
 137    -2.5759712326358e-05
 138    -2.8082258478922e-05
 139    -2.2603130147249e-05
 140    -4.1198191408751e-05
 141    0.00031251864717539
 142    7.4288213666563e-06
 143    -3.4638092347599e-06
 144    -5.7494156051216e-06
 145    -0.00023402094822181
 146    6.1531656888484e-05
 147    5.9333019944005e-05
 148    -2.7004217789433e-06
 149    3.2696419933212e-06
 150    -4.8848750720076e-06
 151    1.3191138124844e-05
 152    -4.6861095193547e-06
 153    -9.6269843186468e-05
 154    -8.6298156558878e-05
 155    -2.6424209886852e-05
 156    2.7168493000706e-05
 157    1.9836664630136e-05
 158    -2.5441061281412e-05
 159    -8.2379786383562e-05
 160    -5.8705858933123e-05
 161    -7.8969719524843e-06
 162    7.5490538717828e-06
 163    0.00010339300617255
 164    0.00010081336333118
 165    -0.00020629615741749
 166    -7.010184585255e-05
 167    3.0212300881125e-05
 168    -5.3140068850345e-05
 169    0.00020841494538846
 170    -0.00020274110921582
 171    -0.00017206937140313
 172    -1.2088606723424e-06
 173    7.0698325741063e-06
 174    -1.0035313414095e-05
 175    2.7238766460946e-06
 176    -1.5197371383589e-05
 177    -1.7171746225901e-05
 178    8.6511798398061e-05
 179    -1.2674368571596e-06
 180    1.5026134968267e-06
 181    -4.5487048167891e-06
 182    2.0367005160587e-05
 183    3.2057274454339e-05
 184    -8.0134812225012e-05
 185    9.2914778275587e-07
 186    2.130776928792e-06
 187    4.884958073729e-06
 188    0.00013548348435219
 189    -0.0001035127971637
 190    -9.319665330679e-05
 191    1.077353380721e-06
 192    2.1199684011434e-06
 193    -7.2682042539638e-06
 194    -3.0450527844494e-06
 195    -6.026770048115e-06
 196    -1.3050914402911e-05
 197    -1.9706313461506e-05
 198    5.6941986253375e-06
 199    1.9354235101575e-06
 200    -3.1313277926081e-06
 201    8.7333239609806e-05
 202    2.9022346979004e-05
 203    -1.0611787582707e-05
 204    1.6604751880785e-05
 205    1.834822169003e-05
 206    7.4672904993806e-05
 207    8.2703141317379e-05
 208    -2.0820925310742e-05
 209    -2.2912050343039e-06
 210    1.7730090333398e-05
 211    -8.6704763935121e-06
 212    -5.440945222317e-06
 213    0.00029081637913835
 214    4.098849233309e-05
 215    -2.7903449488635e-05
 216    -2.3560947685001e-05
 217    0.00021006034206215
 218    -6.2756596717873e-05
 219    -8.7627599393049e-05
 220    -3.0195164142415e-07
 221    -2.3545665230482e-05
 222    8.8014877754741e-06
 223    1.0736446160276e-05
 224    -2.9459064960274e-06
 225    2.8870359349795e-05
 226    5.8210797217554e-05
 227    -1.2663857275822e-05
 228    -2.4359021604991e-06
 229    -1.0816325230659e-06
 230    8.1602100120256e-06
 231    5.350360346577e-05
 232    -4.0927788007865e-06
 233    6.5837796712757e-06
 234    1.2228249316993e-05
 235    6.7864451348103e-07
 236    4.0629866886828e-06
 237    -7.7800695240061e-05
 238    -2.4690165756826e-06
 239    3.1271479631756e-06
 240    -1.6006660247115e-06
 241    3.474964093517e-05
 242    -6.3928072553854e-05
 243    1.9492661401556e-05
 244    1.9646230809057e-06
 245    1.698903986845e-06
 246    -1.5349392745405e-06
 247    1.5196820464448e-07
 248    6.9430928241304e-07
 249    -1.4607182131459e-05
 250    1.0726113770578e-05
 251    -3.8361555151517e-06
 252    -1.9275503075369e-06
 253    -4.0660133162537e-07
 254    -4.4211393883838e-06
 255    5.8765063709107e-05
 256    1.7887875595566e-06
 257    5.0706091372334e-06
 258    -1.5631734927964e-06
 259    -8.7241318397643e-06
 260    -2.773909039585e-05
 261    5.5232754141519e-05
 262    -1.8344338148558e-05
 263    1.3783739367887e-05