[Molden Format]
made by pyscf v[2.0.1]
[Atoms] (AU)
O   1   8     0.00000000000000     0.00000000000000    10.94175058546756
H   2   1     0.00000000000000     0.00000000000000     9.11834876356659
H   3   1    -0.05031916615174     1.78353065140343    11.31762228193423
O   4   8     0.00000000000000     0.00000000000000     2.31533471513237
C   5   6     0.00000000000000     0.00000000000000     0.00000000000000
C   6   6     2.01118073026938    -1.40227222164369    -1.50774939176400
C   7   6    -2.01249334291722     1.41331050329955    -1.50315905028694
H   8   1     3.32037363730244    -2.26721897153159    -0.13599698591495
C   9   6     3.45899267434009     0.28739631745591    -3.37437943254505
H   10   1     1.07662969841332    -2.94725144642667    -2.56541439481080
H   11   1    -2.67503415753480     0.18421555839588    -3.06194479365997
H   12   1    -1.07974048864772     3.03851734677796    -2.43674295017013
C   13   6    -4.21607110578555     2.32938802552922     0.11994162256091
H   14   1     4.24440173074564     1.93368664142019    -2.34976285512790
H   15   1     2.15020713235517     1.04714335134846    -4.81494497423699
C   16   6     5.60746363007797    -1.12419643481196    -4.70268606082550
H   17   1    -3.46838323670267     3.50951302338067     1.66946842715333
H   18   1    -5.11873485366228     0.68575958301209     1.04047743976495
C   19   6    -6.18314754751344     3.80909592987882    -1.39656589068747
H   20   1     6.93011263717176    -1.87550812453645    -3.26656317360070
C   21   6     7.06356622236532     0.52877932406334    -6.57829775293605
H   22   1     4.82318879258361    -2.78573437948532    -5.70504560381835
H   23   1    -6.91582688743803     2.61304780074712    -2.95074552451969
H   24   1    -5.26532430573853     5.45420349051338    -2.31005832200284
C   25   6    -8.39941882261433     4.73263980500213     0.21800571437956
H   26   1     7.83338371486801     2.19084139882824    -5.57093109900697
H   27   1     5.73544244039420     1.27376866537418    -8.01071492370229
C   28   6     9.21124858443101    -0.89699110072176    -7.88926949186242
H   29   1    -7.66272760055236     5.92277078003992     1.77035591474408
H   30   1    -9.31497248082589     3.08753015622020     1.12614408368786
C   31   6   -10.35481709231879     6.21833079391143    -1.30905206253246
H   32   1    10.58815905329501    -1.61074586756696    -6.49512691622620
H   33   1    10.23506248045667     0.32468009384095    -9.23072870921204
H   34   1     8.47665842847139    -2.53598436989925    -8.94921964622535
H   35   1    -9.48948872868064     7.90013588951020    -2.18823918416067
H   36   1   -11.93332513000955     6.86460487874102    -0.11255798845995
H   37   1   -11.15126291841033     5.04495968327630    -2.83849898862534
[GTO]
1 0
 s    8 1.00
                 11720  0.00070964594651845
                  1759  0.0054672722921914
                 400.8   0.027823118610189
                 113.7    0.10474773971146
                 37.03    0.28292084635691
                 13.27    0.44849523869833
                 5.025    0.27081688521277
                 1.013    0.01545029160744
 s    8 1.00
                 11720  -0.00031444341168873
                  1759  -0.0024821376810179
                 400.8  -0.012316355381583
                 113.7  -0.050538917343672
                 37.03   -0.13938490331632
                 13.27   -0.32507749481778
                 5.025   -0.22984830758785
                 1.013     1.0953793467883
 s    1 1.00
                0.3023                   1
 p    3 1.00
                  17.7   0.062679166281506
                 3.854    0.33353656587936
                 1.046    0.74123964163973
 p    1 1.00
                0.2753                   1
 d    1 1.00
                 1.185                   1

2 0
 s    3 1.00
                 13.01   0.033498726389998
                 1.962    0.23480080117413
                0.4446     0.8136829578829
 s    1 1.00
                 0.122                   1
 p    1 1.00
                 0.727                   1

3 0
 s    3 1.00
                 13.01   0.033498726389998
                 1.962    0.23480080117413
                0.4446     0.8136829578829
 s    1 1.00
                 0.122                   1
 p    1 1.00
                 0.727                   1

4 0
 s    8 1.00
                 11720  0.00070964594651845
                  1759  0.0054672722921914
                 400.8   0.027823118610189
                 113.7    0.10474773971146
                 37.03    0.28292084635691
                 13.27    0.44849523869833
                 5.025    0.27081688521277
                 1.013    0.01545029160744
 s    8 1.00
                 11720  -0.00031444341168873
                  1759  -0.0024821376810179
                 400.8  -0.012316355381583
                 113.7  -0.050538917343672
                 37.03   -0.13938490331632
                 13.27   -0.32507749481778
                 5.025   -0.22984830758785
                 1.013     1.0953793467883
 s    1 1.00
                0.3023                   1
 p    3 1.00
                  17.7   0.062679166281506
                 3.854    0.33353656587936
                 1.046    0.74123964163973
 p    1 1.00
                0.2753                   1
 d    1 1.00
                 1.185                   1

5 0
 s    8 1.00
                  6665  0.00069158396281299
                  1000  0.0053257961529341
                   228   0.027060721042034
                 64.71    0.10165684614077
                 21.06     0.2745748236174
                 7.495    0.44829431892377
                 2.797    0.28490261071525
                0.5215   0.015194859206082
 s    8 1.00
                  6665  -0.00029326965268655
                  1000  -0.0023180354739745
                   228  -0.011499786038565
                 64.71  -0.046826727009787
                 21.06   -0.12846616875047
                 7.495   -0.30126627246289
                 2.797   -0.25563070233011
                0.5215      1.093793361012
 s    1 1.00
                0.1596                   1
 p    3 1.00
                 9.439   0.056979251590039
                 2.002    0.31320721150073
                0.5456    0.76037674173753
 p    1 1.00
                0.1517                   1
 d    1 1.00
                  0.55                   1

6 0
 s    8 1.00
                  6665  0.00069158396281299
                  1000  0.0053257961529341
                   228   0.027060721042034
                 64.71    0.10165684614077
                 21.06     0.2745748236174
                 7.495    0.44829431892377
                 2.797    0.28490261071525
                0.5215   0.015194859206082
 s    8 1.00
                  6665  -0.00029326965268655
                  1000  -0.0023180354739745
                   228  -0.011499786038565
                 64.71  -0.046826727009787
                 21.06   -0.12846616875047
                 7.495   -0.30126627246289
                 2.797   -0.25563070233011
                0.5215      1.093793361012
 s    1 1.00
                0.1596                   1
 p    3 1.00
                 9.439   0.056979251590039
                 2.002    0.31320721150073
                0.5456    0.76037674173753
 p    1 1.00
                0.1517                   1
 d    1 1.00
                  0.55                   1

7 0
 s    8 1.00
                  6665  0.00069158396281299
                  1000  0.0053257961529341
                   228   0.027060721042034
                 64.71    0.10165684614077
                 21.06     0.2745748236174
                 7.495    0.44829431892377
                 2.797    0.28490261071525
                0.5215   0.015194859206082
 s    8 1.00
                  6665  -0.00029326965268655
                  1000  -0.0023180354739745
                   228  -0.011499786038565
                 64.71  -0.046826727009787
                 21.06   -0.12846616875047
                 7.495   -0.30126627246289
                 2.797   -0.25563070233011
                0.5215      1.093793361012
 s    1 1.00
                0.1596                   1
 p    3 1.00
                 9.439   0.056979251590039
                 2.002    0.31320721150073
                0.5456    0.76037674173753
 p    1 1.00
                0.1517                   1
 d    1 1.00
                  0.55                   1

8 0
 s    3 1.00
                 13.01   0.033498726389998
                 1.962    0.23480080117413
                0.4446     0.8136829578829
 s    1 1.00
                 0.122                   1
 p    1 1.00
                 0.727                   1

9 0
 s    8 1.00
                  6665  0.00069158396281299
                  1000  0.0053257961529341
                   228   0.027060721042034
                 64.71    0.10165684614077
                 21.06     0.2745748236174
                 7.495    0.44829431892377
                 2.797    0.28490261071525
                0.5215   0.015194859206082
 s    8 1.00
                  6665  -0.00029326965268655
                  1000  -0.0023180354739745
                   228  -0.011499786038565
                 64.71  -0.046826727009787
                 21.06   -0.12846616875047
                 7.495   -0.30126627246289
                 2.797   -0.25563070233011
                0.5215      1.093793361012
 s    1 1.00
                0.1596                   1
 p    3 1.00
                 9.439   0.056979251590039
                 2.002    0.31320721150073
                0.5456    0.76037674173753
 p    1 1.00
                0.1517                   1
 d    1 1.00
                  0.55                   1

10 0
 s    3 1.00
                 13.01   0.033498726389998
                 1.962    0.23480080117413
                0.4446     0.8136829578829
 s    1 1.00
                 0.122                   1
 p    1 1.00
                 0.727                   1

11 0
 s    3 1.00
                 13.01   0.033498726389998
                 1.962    0.23480080117413
                0.4446     0.8136829578829
 s    1 1.00
                 0.122                   1
 p    1 1.00
                 0.727                   1

12 0
 s    3 1.00
                 13.01   0.033498726389998
                 1.962    0.23480080117413
                0.4446     0.8136829578829
 s    1 1.00
                 0.122                   1
 p    1 1.00
                 0.727                   1

13 0
 s    8 1.00
                  6665  0.00069158396281299
                  1000  0.0053257961529341
                   228   0.027060721042034
                 64.71    0.10165684614077
                 21.06     0.2745748236174
                 7.495    0.44829431892377
                 2.797    0.28490261071525
                0.5215   0.015194859206082
 s    8 1.00
                  6665  -0.00029326965268655
                  1000  -0.0023180354739745
                   228  -0.011499786038565
                 64.71  -0.046826727009787
                 21.06   -0.12846616875047
                 7.495   -0.30126627246289
                 2.797   -0.25563070233011
                0.5215      1.093793361012
 s    1 1.00
                0.1596                   1
 p    3 1.00
                 9.439   0.056979251590039
                 2.002    0.31320721150073
                0.5456    0.76037674173753
 p    1 1.00
                0.1517                   1
 d    1 1.00
                  0.55                   1

14 0
 s    3 1.00
                 13.01   0.033498726389998
                 1.962    0.23480080117413
                0.4446     0.8136829578829
 s    1 1.00
                 0.122                   1
 p    1 1.00
                 0.727                   1

15 0
 s    3 1.00
                 13.01   0.033498726389998
                 1.962    0.23480080117413
                0.4446     0.8136829578829
 s    1 1.00
                 0.122                   1
 p    1 1.00
                 0.727                   1

16 0
 s    8 1.00
                  6665  0.00069158396281299
                  1000  0.0053257961529341
                   228   0.027060721042034
                 64.71    0.10165684614077
                 21.06     0.2745748236174
                 7.495    0.44829431892377
                 2.797    0.28490261071525
                0.5215   0.015194859206082
 s    8 1.00
                  6665  -0.00029326965268655
                  1000  -0.0023180354739745
                   228  -0.011499786038565
                 64.71  -0.046826727009787
                 21.06   -0.12846616875047
                 7.495   -0.30126627246289
                 2.797   -0.25563070233011
                0.5215      1.093793361012
 s    1 1.00
                0.1596                   1
 p    3 1.00
                 9.439   0.056979251590039
                 2.002    0.31320721150073
                0.5456    0.76037674173753
 p    1 1.00
                0.1517                   1
 d    1 1.00
                  0.55                   1

17 0
 s    3 1.00
                 13.01   0.033498726389998
                 1.962    0.23480080117413
                0.4446     0.8136829578829
 s    1 1.00
                 0.122                   1
 p    1 1.00
                 0.727                   1

18 0
 s    3 1.00
                 13.01   0.033498726389998
                 1.962    0.23480080117413
                0.4446     0.8136829578829
 s    1 1.00
                 0.122                   1
 p    1 1.00
                 0.727                   1

19 0
 s    8 1.00
                  6665  0.00069158396281299
                  1000  0.0053257961529341
                   228   0.027060721042034
                 64.71    0.10165684614077
                 21.06     0.2745748236174
                 7.495    0.44829431892377
                 2.797    0.28490261071525
                0.5215   0.015194859206082
 s    8 1.00
                  6665  -0.00029326965268655
                  1000  -0.0023180354739745
                   228  -0.011499786038565
                 64.71  -0.046826727009787
                 21.06   -0.12846616875047
                 7.495   -0.30126627246289
                 2.797   -0.25563070233011
                0.5215      1.093793361012
 s    1 1.00
                0.1596                   1
 p    3 1.00
                 9.439   0.056979251590039
                 2.002    0.31320721150073
                0.5456    0.76037674173753
 p    1 1.00
                0.1517                   1
 d    1 1.00
                  0.55                   1

20 0
 s    3 1.00
                 13.01   0.033498726389998
                 1.962    0.23480080117413
                0.4446     0.8136829578829
 s    1 1.00
                 0.122                   1
 p    1 1.00
                 0.727                   1

21 0
 s    8 1.00
                  6665  0.00069158396281299
                  1000  0.0053257961529341
                   228   0.027060721042034
                 64.71    0.10165684614077
                 21.06     0.2745748236174
                 7.495    0.44829431892377
                 2.797    0.28490261071525
                0.5215   0.015194859206082
 s    8 1.00
                  6665  -0.00029326965268655
                  1000  -0.0023180354739745
                   228  -0.011499786038565
                 64.71  -0.046826727009787
                 21.06   -0.12846616875047
                 7.495   -0.30126627246289
                 2.797   -0.25563070233011
                0.5215      1.093793361012
 s    1 1.00
                0.1596                   1
 p    3 1.00
                 9.439   0.056979251590039
                 2.002    0.31320721150073
                0.5456    0.76037674173753
 p    1 1.00
                0.1517                   1
 d    1 1.00
                  0.55                   1

22 0
 s    3 1.00
                 13.01   0.033498726389998
                 1.962    0.23480080117413
                0.4446     0.8136829578829
 s    1 1.00
                 0.122                   1
 p    1 1.00
                 0.727                   1

23 0
 s    3 1.00
                 13.01   0.033498726389998
                 1.962    0.23480080117413
                0.4446     0.8136829578829
 s    1 1.00
                 0.122                   1
 p    1 1.00
                 0.727                   1

24 0
 s    3 1.00
                 13.01   0.033498726389998
                 1.962    0.23480080117413
                0.4446     0.8136829578829
 s    1 1.00
                 0.122                   1
 p    1 1.00
                 0.727                   1

25 0
 s    8 1.00
                  6665  0.00069158396281299
                  1000  0.0053257961529341
                   228   0.027060721042034
                 64.71    0.10165684614077
                 21.06     0.2745748236174
                 7.495    0.44829431892377
                 2.797    0.28490261071525
                0.5215   0.015194859206082
 s    8 1.00
                  6665  -0.00029326965268655
                  1000  -0.0023180354739745
                   228  -0.011499786038565
                 64.71  -0.046826727009787
                 21.06   -0.12846616875047
                 7.495   -0.30126627246289
                 2.797   -0.25563070233011
                0.5215      1.093793361012
 s    1 1.00
                0.1596                   1
 p    3 1.00
                 9.439   0.056979251590039
                 2.002    0.31320721150073
                0.5456    0.76037674173753
 p    1 1.00
                0.1517                   1
 d    1 1.00
                  0.55                   1

26 0
 s    3 1.00
                 13.01   0.033498726389998
                 1.962    0.23480080117413
                0.4446     0.8136829578829
 s    1 1.00
                 0.122                   1
 p    1 1.00
                 0.727                   1

27 0
 s    3 1.00
                 13.01   0.033498726389998
                 1.962    0.23480080117413
                0.4446     0.8136829578829
 s    1 1.00
                 0.122                   1
 p    1 1.00
                 0.727                   1

28 0
 s    8 1.00
                  6665  0.00069158396281299
                  1000  0.0053257961529341
                   228   0.027060721042034
                 64.71    0.10165684614077
                 21.06     0.2745748236174
                 7.495    0.44829431892377
                 2.797    0.28490261071525
                0.5215   0.015194859206082
 s    8 1.00
                  6665  -0.00029326965268655
                  1000  -0.0023180354739745
                   228  -0.011499786038565
                 64.71  -0.046826727009787
                 21.06   -0.12846616875047
                 7.495   -0.30126627246289
                 2.797   -0.25563070233011
                0.5215      1.093793361012
 s    1 1.00
                0.1596                   1
 p    3 1.00
                 9.439   0.056979251590039
                 2.002    0.31320721150073
                0.5456    0.76037674173753
 p    1 1.00
                0.1517                   1
 d    1 1.00
                  0.55                   1

29 0
 s    3 1.00
                 13.01   0.033498726389998
                 1.962    0.23480080117413
                0.4446     0.8136829578829
 s    1 1.00
                 0.122                   1
 p    1 1.00
                 0.727                   1

30 0
 s    3 1.00
                 13.01   0.033498726389998
                 1.962    0.23480080117413
                0.4446     0.8136829578829
 s    1 1.00
                 0.122                   1
 p    1 1.00
                 0.727                   1

31 0
 s    8 1.00
                  6665  0.00069158396281299
                  1000  0.0053257961529341
                   228   0.027060721042034
                 64.71    0.10165684614077
                 21.06     0.2745748236174
                 7.495    0.44829431892377
                 2.797    0.28490261071525
                0.5215   0.015194859206082
 s    8 1.00
                  6665  -0.00029326965268655
                  1000  -0.0023180354739745
                   228  -0.011499786038565
                 64.71  -0.046826727009787
                 21.06   -0.12846616875047
                 7.495   -0.30126627246289
                 2.797   -0.25563070233011
                0.5215      1.093793361012
 s    1 1.00
                0.1596                   1
 p    3 1.00
                 9.439   0.056979251590039
                 2.002    0.31320721150073
                0.5456    0.76037674173753
 p    1 1.00
                0.1517                   1
 d    1 1.00
                  0.55                   1

32 0
 s    3 1.00
                 13.01   0.033498726389998
                 1.962    0.23480080117413
                0.4446     0.8136829578829
 s    1 1.00
                 0.122                   1
 p    1 1.00
                 0.727                   1

33 0
 s    3 1.00
                 13.01   0.033498726389998
                 1.962    0.23480080117413
                0.4446     0.8136829578829
 s    1 1.00
                 0.122                   1
 p    1 1.00
                 0.727                   1

34 0
 s    3 1.00
                 13.01   0.033498726389998
                 1.962    0.23480080117413
                0.4446     0.8136829578829
 s    1 1.00
                 0.122                   1
 p    1 1.00
                 0.727                   1

35 0
 s    3 1.00
                 13.01   0.033498726389998
                 1.962    0.23480080117413
                0.4446     0.8136829578829
 s    1 1.00
                 0.122                   1
 p    1 1.00
                 0.727                   1

36 0
 s    3 1.00
                 13.01   0.033498726389998
                 1.962    0.23480080117413
                0.4446     0.8136829578829
 s    1 1.00
                 0.122                   1
 p    1 1.00
                 0.727                   1

37 0
 s    3 1.00
                 13.01   0.033498726389998
                 1.962    0.23480080117413
                0.4446     0.8136829578829
 s    1 1.00
                 0.122                   1
 p    1 1.00
                 0.727                   1

[5d]
[7f]
[9g]

[MO]
 Sym= A
 Ene=               0
 Spin= Alpha
 Occup=    1.00000
   1    -2.9607957249882e-05
   2    -1.5994884063691e-05
   3    6.2489771919658e-05
   4    -5.6319605839022e-08
   5    2.3668695544198e-06
   6    -3.153617085431e-07
   7    3.8609713117945e-07
   8    -1.4136223717999e-05
   9    -4.6744407883863e-05
  10    8.7626951673932e-06
  11    1.3464027845817e-08
  12    -6.4123719545692e-07
  13    5.6953330156833e-07
  14    3.0952800148035e-08
  15    -7.6449452739515e-06
  16    -9.2441362803936e-05
  17    -4.1542359288816e-08
  18    8.8532921039103e-07
  19    -2.7465859265111e-05
  20    -3.5624915894523e-06
  21    3.7902620552174e-05
  22     1.33532572092e-07
  23    -4.5759661673219e-06
  24    1.3617270072008e-06
  25        1.001359054913
  26    0.0019455641848392
  27    -0.0067658714571591
  28    -4.2887018679872e-06
  29    7.3449368465607e-06
  30    -0.0016587893848226
  31    6.3689618006599e-07
  32    -1.8936226835058e-06
  33    0.0018120468450735
  34    0.00012974602121954
  35    -3.0393472632423e-06
  36    1.3427047230302e-06
  37    6.7700205059053e-05
  38    -0.00017632538004741
  39      0.00027169606954
  40    0.00036740070590476
  41    0.0014005653529806
  42    1.5092330217011e-05
  43    -1.0276954451775e-05
  44    -1.4389397317619e-05
  45    7.8395370987272e-05
  46    -6.0666106823256e-05
  47    0.0035323434362276
  48    -0.00053982452635763
  49    -8.3431352264784e-06
  50    2.2822605799756e-06
  51    2.8695703247116e-05
  52    -0.00010727448816612
  53    -8.5091824894322e-05
  54    -0.00016627605259581
  55    0.0013687858116065
  56    7.7647522282294e-05
  57    -7.2178570496019e-06
  58    -3.5999988155141e-05
  59    -0.00042426715686153
  60    0.00047673870959892
  61    -0.00091893146520884
  62    -0.00011786403662451
  63    0.00015010806932927
  64    -0.00014276761862854
  65    5.5265022423584e-05
  66    -0.00013053775591067
  67    -4.0158385528128e-05
  68    -9.8892823121774e-05
  69    0.00050279775492409
  70    -5.9316753133799e-05
  71    3.9101508713232e-05
  72    -6.007101567393e-05
  73    0.00099428184310326
  74    -0.00076590255252626
  75    -0.00063575546777816
  76    -0.00014061843462322
  77    -0.00012104328221396
  78    8.9756765542195e-05
  79    5.8835985524456e-05
  80    -0.00015152472079567
  81    -6.5622179938794e-05
  82    0.00020610930054667
  83    6.5775689968401e-05
  84    -4.8322787799219e-05
  85    4.9186158991746e-05
  86    2.5007865832522e-05
  87    4.9196926344904e-05
  88    -0.00060150540748256
  89    -1.5790815515516e-05
  90    -1.735688686845e-05
  91    1.2125330120416e-05
  92    0.00025576262323193
  93    0.0006213525488572
  94    -2.0451442605987e-05
  95    1.793993117393e-05
  96    1.1147688453746e-05
  97    7.1290876336914e-06
  98    -2.080455031787e-05
  99    -4.5313372003685e-05
 100    -3.6651141241871e-05
 101    -0.00015715217399111
 102    9.6581385431702e-06
 103    -9.7108190131133e-06
 104    7.4056562062542e-05
 105    -1.8415501199247e-05
 106    -0.00019843422218996
 107    -6.4519464730045e-05
 108    1.1324996860912e-05
 109    7.4390532547766e-05
 110    7.7181026859698e-05
 111    -5.6729765072852e-05
 112    -4.5422796036178e-05
 113    1.8333897994429e-05
 114    6.9484007197284e-05
 115    -5.7380812758074e-05
 116    -0.00011520938198295
 117    0.00082684359800556
 118    -1.2762476296929e-05
 119    -2.1378043415483e-05
 120    4.4258748696481e-05
 121    0.00030760575671687
 122    2.2230292559975e-05
 123    -0.00012643358441594
 124    -5.8706807564545e-06
 125    1.4963713373968e-05
 126    1.5166518178859e-05
 127    -3.1492732998212e-05
 128    4.9478090496613e-05
 129    -1.8848137197951e-05
 130    -0.00031984370543184
 131    7.4453796026318e-06
 132    5.8225483027064e-06
 133    2.9129453078451e-05
 134    2.5874528033565e-05
 135    -0.00011901986673292
 136    -1.3432525029405e-05
 137    -2.3920557815503e-05
 138    -2.6496490379478e-05
 139    -2.1223182137927e-05
 140    -3.8723636765939e-05
 141    0.00028382163439532
 142    7.5969289054289e-06
 143    -2.840800558281e-06
 144    -5.853808936271e-06
 145    -0.00022992855793069
 146    5.0498306565268e-05
 147    6.5575081230373e-05
 148    -2.4161967940577e-06
 149    2.8673554309284e-06
 150    -3.269264704748e-06
 151    1.1970604503984e-05
 152    -4.9043198213162e-06
 153    -9.4189180090787e-05
 154    -0.00010844249352077
 155    -2.5254298057562e-05
 156    2.9755274164814e-05
 157    2.1224886859562e-05
 158    -2.4531094882186e-05
 159    -8.7022416476025e-05
 160    -5.883127048184e-05
 161    -7.4668030045398e-06
 162    6.7019111869278e-06
 163    0.00010420796231011
 164    9.9171129143706e-05
 165    -0.00017372700138983
 166    -6.9927501132842e-05
 167    3.0144235634697e-05
 168    -5.6449334694667e-05
 169    0.00021193144097209
 170    -0.00020537965897432
 171    -0.00016147022698854
 172    -1.8406018216933e-06
 173    6.8967559447614e-06
 174    -9.8746687993271e-06
 175    2.9044470488207e-06
 176    -1.5340575607572e-05
 177    -1.6311370305359e-05
 178    8.2349496127341e-05
 179    -7.1831796955122e-07
 180    1.9915149334399e-06
 181    -4.9708939795848e-06
 182    1.9462238205051e-05
 183    3.0162130892263e-05
 184    -6.1137037091548e-05
 185     8.80911545739e-07
 186    2.1107162849076e-06
 187    5.0140548591177e-06
 188    0.00012877203088403
 189    -0.00010329540394308
 190    -8.4029239119602e-05
 191    1.1431119746966e-06
 192    1.6689714624107e-06
 193    -7.3165803456501e-06
 194    -3.1210373670268e-06
 195    -5.2517619985509e-06
 196    -1.3717995756684e-05
 197    -1.8113572356097e-05
 198    5.6281655164151e-06
 199    1.9691477243137e-06
 200    -3.6156251071558e-06
 201    8.9838117805571e-05
 202    3.3056974965821e-05
 203    -9.8370913425178e-06
 204    1.7010246283659e-05
 205    1.8491369859303e-05
 206    7.5899265325944e-05
 207    8.2385188437878e-05
 208    -2.1036764461346e-05
 209    -2.4634172967628e-06
 210    1.7172523612594e-05
 211    -6.8714609574001e-06
 212    -3.595513117694e-06
 213    0.0002711647372317
 214    3.9153839217208e-05
 215    -2.8008657314939e-05
 216    -2.3845297108287e-05
 217    0.00021112524638386
 218    -6.5628422488795e-05
 219    -8.3400347291434e-05
 220    -1.1575964410216e-07
 221    -2.3779905565252e-05
 222    8.8028252872059e-06
 223    1.0446024752488e-05
 224    -2.7604539714946e-06
 225    2.7753100656061e-05
 226    5.4691741211135e-05
 227    -1.2169305485406e-05
 228    -2.1070790974282e-06
 229    -1.1319076389323e-06
 230    7.8120296978107e-06
 231    5.3086057876886e-05
 232    -3.8475267101587e-06
 233    6.2940181338566e-06
 234    1.1892830084888e-05
 235    6.0803827211588e-07
 236    4.0691618557676e-06
 237    -7.6024893671637e-05
 238    -2.6724319568405e-06
 239    2.8869651700824e-06
 240    -1.4182290613742e-06
 241    3.2835393329518e-05
 242    -6.2119995235154e-05
 243    1.8714669545543e-05
 244    1.8167956110017e-06
 245    1.5550528697963e-06
 246    -1.5397413534249e-06
 247    1.7382358042699e-07
 248    6.6292663735306e-07
 249    -1.5327128404021e-05
 250    1.5192439167167e-05
 251    -4.1088884063805e-06
 252    -2.0677287876017e-06
 253    -8.8110146986715e-07
 254    -3.0519911244324e-06
 255    5.8984501486325e-05
 256    1.3172693801222e-06
 257    5.3278450281496e-06
 258    -1.7818049911944e-06
 259    -9.5236004762138e-06
 260    -2.891499878666e-05
 261    6.5415195508959e-05
 262    -1.7831924907856e-05