[Molden Format]
made by pyscf v[2.0.1]
[Atoms] (AU)
O   1   8     0.00000000000000     0.00000000000000     9.80791491072852
H   2   1     0.00000000000000     0.00000000000000     7.98451308882755
H   3   1    -0.05031916615174     1.78353065140343    10.18378660719519
O   4   8     0.00000000000000     0.00000000000000     2.31533471513237
C   5   6     0.00000000000000     0.00000000000000     0.00000000000000
C   6   6     2.01118073026938    -1.40227222164369    -1.50774939176400
C   7   6    -2.01249334291722     1.41331050329955    -1.50315905028694
H   8   1     3.32037363730244    -2.26721897153159    -0.13599698591495
C   9   6     3.45899267434009     0.28739631745591    -3.37437943254505
H   10   1     1.07662969841332    -2.94725144642667    -2.56541439481080
H   11   1    -2.67503415753480     0.18421555839588    -3.06194479365997
H   12   1    -1.07974048864772     3.03851734677796    -2.43674295017013
C   13   6    -4.21607110578555     2.32938802552922     0.11994162256091
H   14   1     4.24440173074564     1.93368664142019    -2.34976285512790
H   15   1     2.15020713235517     1.04714335134846    -4.81494497423699
C   16   6     5.60746363007797    -1.12419643481196    -4.70268606082550
H   17   1    -3.46838323670267     3.50951302338067     1.66946842715333
H   18   1    -5.11873485366228     0.68575958301209     1.04047743976495
C   19   6    -6.18314754751344     3.80909592987882    -1.39656589068747
H   20   1     6.93011263717176    -1.87550812453645    -3.26656317360070
C   21   6     7.06356622236532     0.52877932406334    -6.57829775293605
H   22   1     4.82318879258361    -2.78573437948532    -5.70504560381835
H   23   1    -6.91582688743803     2.61304780074712    -2.95074552451969
H   24   1    -5.26532430573853     5.45420349051338    -2.31005832200284
C   25   6    -8.39941882261433     4.73263980500213     0.21800571437956
H   26   1     7.83338371486801     2.19084139882824    -5.57093109900697
H   27   1     5.73544244039420     1.27376866537418    -8.01071492370229
C   28   6     9.21124858443101    -0.89699110072176    -7.88926949186242
H   29   1    -7.66272760055236     5.92277078003992     1.77035591474408
H   30   1    -9.31497248082589     3.08753015622020     1.12614408368786
C   31   6   -10.35481709231879     6.21833079391143    -1.30905206253246
H   32   1    10.58815905329501    -1.61074586756696    -6.49512691622620
H   33   1    10.23506248045667     0.32468009384095    -9.23072870921204
H   34   1     8.47665842847139    -2.53598436989925    -8.94921964622535
H   35   1    -9.48948872868064     7.90013588951020    -2.18823918416067
H   36   1   -11.93332513000955     6.86460487874102    -0.11255798845995
H   37   1   -11.15126291841033     5.04495968327630    -2.83849898862534
[GTO]
1 0
 s    8 1.00
                 11720  0.00070964594651845
                  1759  0.0054672722921914
                 400.8   0.027823118610189
                 113.7    0.10474773971146
                 37.03    0.28292084635691
                 13.27    0.44849523869833
                 5.025    0.27081688521277
                 1.013    0.01545029160744
 s    8 1.00
                 11720  -0.00031444341168873
                  1759  -0.0024821376810179
                 400.8  -0.012316355381583
                 113.7  -0.050538917343672
                 37.03   -0.13938490331632
                 13.27   -0.32507749481778
                 5.025   -0.22984830758785
                 1.013     1.0953793467883
 s    1 1.00
                0.3023                   1
 p    3 1.00
                  17.7   0.062679166281506
                 3.854    0.33353656587936
                 1.046    0.74123964163973
 p    1 1.00
                0.2753                   1
 d    1 1.00
                 1.185                   1

2 0
 s    3 1.00
                 13.01   0.033498726389998
                 1.962    0.23480080117413
                0.4446     0.8136829578829
 s    1 1.00
                 0.122                   1
 p    1 1.00
                 0.727                   1

3 0
 s    3 1.00
                 13.01   0.033498726389998
                 1.962    0.23480080117413
                0.4446     0.8136829578829
 s    1 1.00
                 0.122                   1
 p    1 1.00
                 0.727                   1

4 0
 s    8 1.00
                 11720  0.00070964594651845
                  1759  0.0054672722921914
                 400.8   0.027823118610189
                 113.7    0.10474773971146
                 37.03    0.28292084635691
                 13.27    0.44849523869833
                 5.025    0.27081688521277
                 1.013    0.01545029160744
 s    8 1.00
                 11720  -0.00031444341168873
                  1759  -0.0024821376810179
                 400.8  -0.012316355381583
                 113.7  -0.050538917343672
                 37.03   -0.13938490331632
                 13.27   -0.32507749481778
                 5.025   -0.22984830758785
                 1.013     1.0953793467883
 s    1 1.00
                0.3023                   1
 p    3 1.00
                  17.7   0.062679166281506
                 3.854    0.33353656587936
                 1.046    0.74123964163973
 p    1 1.00
                0.2753                   1
 d    1 1.00
                 1.185                   1

5 0
 s    8 1.00
                  6665  0.00069158396281299
                  1000  0.0053257961529341
                   228   0.027060721042034
                 64.71    0.10165684614077
                 21.06     0.2745748236174
                 7.495    0.44829431892377
                 2.797    0.28490261071525
                0.5215   0.015194859206082
 s    8 1.00
                  6665  -0.00029326965268655
                  1000  -0.0023180354739745
                   228  -0.011499786038565
                 64.71  -0.046826727009787
                 21.06   -0.12846616875047
                 7.495   -0.30126627246289
                 2.797   -0.25563070233011
                0.5215      1.093793361012
 s    1 1.00
                0.1596                   1
 p    3 1.00
                 9.439   0.056979251590039
                 2.002    0.31320721150073
                0.5456    0.76037674173753
 p    1 1.00
                0.1517                   1
 d    1 1.00
                  0.55                   1

6 0
 s    8 1.00
                  6665  0.00069158396281299
                  1000  0.0053257961529341
                   228   0.027060721042034
                 64.71    0.10165684614077
                 21.06     0.2745748236174
                 7.495    0.44829431892377
                 2.797    0.28490261071525
                0.5215   0.015194859206082
 s    8 1.00
                  6665  -0.00029326965268655
                  1000  -0.0023180354739745
                   228  -0.011499786038565
                 64.71  -0.046826727009787
                 21.06   -0.12846616875047
                 7.495   -0.30126627246289
                 2.797   -0.25563070233011
                0.5215      1.093793361012
 s    1 1.00
                0.1596                   1
 p    3 1.00
                 9.439   0.056979251590039
                 2.002    0.31320721150073
                0.5456    0.76037674173753
 p    1 1.00
                0.1517                   1
 d    1 1.00
                  0.55                   1

7 0
 s    8 1.00
                  6665  0.00069158396281299
                  1000  0.0053257961529341
                   228   0.027060721042034
                 64.71    0.10165684614077
                 21.06     0.2745748236174
                 7.495    0.44829431892377
                 2.797    0.28490261071525
                0.5215   0.015194859206082
 s    8 1.00
                  6665  -0.00029326965268655
                  1000  -0.0023180354739745
                   228  -0.011499786038565
                 64.71  -0.046826727009787
                 21.06   -0.12846616875047
                 7.495   -0.30126627246289
                 2.797   -0.25563070233011
                0.5215      1.093793361012
 s    1 1.00
                0.1596                   1
 p    3 1.00
                 9.439   0.056979251590039
                 2.002    0.31320721150073
                0.5456    0.76037674173753
 p    1 1.00
                0.1517                   1
 d    1 1.00
                  0.55                   1

8 0
 s    3 1.00
                 13.01   0.033498726389998
                 1.962    0.23480080117413
                0.4446     0.8136829578829
 s    1 1.00
                 0.122                   1
 p    1 1.00
                 0.727                   1

9 0
 s    8 1.00
                  6665  0.00069158396281299
                  1000  0.0053257961529341
                   228   0.027060721042034
                 64.71    0.10165684614077
                 21.06     0.2745748236174
                 7.495    0.44829431892377
                 2.797    0.28490261071525
                0.5215   0.015194859206082
 s    8 1.00
                  6665  -0.00029326965268655
                  1000  -0.0023180354739745
                   228  -0.011499786038565
                 64.71  -0.046826727009787
                 21.06   -0.12846616875047
                 7.495   -0.30126627246289
                 2.797   -0.25563070233011
                0.5215      1.093793361012
 s    1 1.00
                0.1596                   1
 p    3 1.00
                 9.439   0.056979251590039
                 2.002    0.31320721150073
                0.5456    0.76037674173753
 p    1 1.00
                0.1517                   1
 d    1 1.00
                  0.55                   1

10 0
 s    3 1.00
                 13.01   0.033498726389998
                 1.962    0.23480080117413
                0.4446     0.8136829578829
 s    1 1.00
                 0.122                   1
 p    1 1.00
                 0.727                   1

11 0
 s    3 1.00
                 13.01   0.033498726389998
                 1.962    0.23480080117413
                0.4446     0.8136829578829
 s    1 1.00
                 0.122                   1
 p    1 1.00
                 0.727                   1

12 0
 s    3 1.00
                 13.01   0.033498726389998
                 1.962    0.23480080117413
                0.4446     0.8136829578829
 s    1 1.00
                 0.122                   1
 p    1 1.00
                 0.727                   1

13 0
 s    8 1.00
                  6665  0.00069158396281299
                  1000  0.0053257961529341
                   228   0.027060721042034
                 64.71    0.10165684614077
                 21.06     0.2745748236174
                 7.495    0.44829431892377
                 2.797    0.28490261071525
                0.5215   0.015194859206082
 s    8 1.00
                  6665  -0.00029326965268655
                  1000  -0.0023180354739745
                   228  -0.011499786038565
                 64.71  -0.046826727009787
                 21.06   -0.12846616875047
                 7.495   -0.30126627246289
                 2.797   -0.25563070233011
                0.5215      1.093793361012
 s    1 1.00
                0.1596                   1
 p    3 1.00
                 9.439   0.056979251590039
                 2.002    0.31320721150073
                0.5456    0.76037674173753
 p    1 1.00
                0.1517                   1
 d    1 1.00
                  0.55                   1

14 0
 s    3 1.00
                 13.01   0.033498726389998
                 1.962    0.23480080117413
                0.4446     0.8136829578829
 s    1 1.00
                 0.122                   1
 p    1 1.00
                 0.727                   1

15 0
 s    3 1.00
                 13.01   0.033498726389998
                 1.962    0.23480080117413
                0.4446     0.8136829578829
 s    1 1.00
                 0.122                   1
 p    1 1.00
                 0.727                   1

16 0
 s    8 1.00
                  6665  0.00069158396281299
                  1000  0.0053257961529341
                   228   0.027060721042034
                 64.71    0.10165684614077
                 21.06     0.2745748236174
                 7.495    0.44829431892377
                 2.797    0.28490261071525
                0.5215   0.015194859206082
 s    8 1.00
                  6665  -0.00029326965268655
                  1000  -0.0023180354739745
                   228  -0.011499786038565
                 64.71  -0.046826727009787
                 21.06   -0.12846616875047
                 7.495   -0.30126627246289
                 2.797   -0.25563070233011
                0.5215      1.093793361012
 s    1 1.00
                0.1596                   1
 p    3 1.00
                 9.439   0.056979251590039
                 2.002    0.31320721150073
                0.5456    0.76037674173753
 p    1 1.00
                0.1517                   1
 d    1 1.00
                  0.55                   1

17 0
 s    3 1.00
                 13.01   0.033498726389998
                 1.962    0.23480080117413
                0.4446     0.8136829578829
 s    1 1.00
                 0.122                   1
 p    1 1.00
                 0.727                   1

18 0
 s    3 1.00
                 13.01   0.033498726389998
                 1.962    0.23480080117413
                0.4446     0.8136829578829
 s    1 1.00
                 0.122                   1
 p    1 1.00
                 0.727                   1

19 0
 s    8 1.00
                  6665  0.00069158396281299
                  1000  0.0053257961529341
                   228   0.027060721042034
                 64.71    0.10165684614077
                 21.06     0.2745748236174
                 7.495    0.44829431892377
                 2.797    0.28490261071525
                0.5215   0.015194859206082
 s    8 1.00
                  6665  -0.00029326965268655
                  1000  -0.0023180354739745
                   228  -0.011499786038565
                 64.71  -0.046826727009787
                 21.06   -0.12846616875047
                 7.495   -0.30126627246289
                 2.797   -0.25563070233011
                0.5215      1.093793361012
 s    1 1.00
                0.1596                   1
 p    3 1.00
                 9.439   0.056979251590039
                 2.002    0.31320721150073
                0.5456    0.76037674173753
 p    1 1.00
                0.1517                   1
 d    1 1.00
                  0.55                   1

20 0
 s    3 1.00
                 13.01   0.033498726389998
                 1.962    0.23480080117413
                0.4446     0.8136829578829
 s    1 1.00
                 0.122                   1
 p    1 1.00
                 0.727                   1

21 0
 s    8 1.00
                  6665  0.00069158396281299
                  1000  0.0053257961529341
                   228   0.027060721042034
                 64.71    0.10165684614077
                 21.06     0.2745748236174
                 7.495    0.44829431892377
                 2.797    0.28490261071525
                0.5215   0.015194859206082
 s    8 1.00
                  6665  -0.00029326965268655
                  1000  -0.0023180354739745
                   228  -0.011499786038565
                 64.71  -0.046826727009787
                 21.06   -0.12846616875047
                 7.495   -0.30126627246289
                 2.797   -0.25563070233011
                0.5215      1.093793361012
 s    1 1.00
                0.1596                   1
 p    3 1.00
                 9.439   0.056979251590039
                 2.002    0.31320721150073
                0.5456    0.76037674173753
 p    1 1.00
                0.1517                   1
 d    1 1.00
                  0.55                   1

22 0
 s    3 1.00
                 13.01   0.033498726389998
                 1.962    0.23480080117413
                0.4446     0.8136829578829
 s    1 1.00
                 0.122                   1
 p    1 1.00
                 0.727                   1

23 0
 s    3 1.00
                 13.01   0.033498726389998
                 1.962    0.23480080117413
                0.4446     0.8136829578829
 s    1 1.00
                 0.122                   1
 p    1 1.00
                 0.727                   1

24 0
 s    3 1.00
                 13.01   0.033498726389998
                 1.962    0.23480080117413
                0.4446     0.8136829578829
 s    1 1.00
                 0.122                   1
 p    1 1.00
                 0.727                   1

25 0
 s    8 1.00
                  6665  0.00069158396281299
                  1000  0.0053257961529341
                   228   0.027060721042034
                 64.71    0.10165684614077
                 21.06     0.2745748236174
                 7.495    0.44829431892377
                 2.797    0.28490261071525
                0.5215   0.015194859206082
 s    8 1.00
                  6665  -0.00029326965268655
                  1000  -0.0023180354739745
                   228  -0.011499786038565
                 64.71  -0.046826727009787
                 21.06   -0.12846616875047
                 7.495   -0.30126627246289
                 2.797   -0.25563070233011
                0.5215      1.093793361012
 s    1 1.00
                0.1596                   1
 p    3 1.00
                 9.439   0.056979251590039
                 2.002    0.31320721150073
                0.5456    0.76037674173753
 p    1 1.00
                0.1517                   1
 d    1 1.00
                  0.55                   1

26 0
 s    3 1.00
                 13.01   0.033498726389998
                 1.962    0.23480080117413
                0.4446     0.8136829578829
 s    1 1.00
                 0.122                   1
 p    1 1.00
                 0.727                   1

27 0
 s    3 1.00
                 13.01   0.033498726389998
                 1.962    0.23480080117413
                0.4446     0.8136829578829
 s    1 1.00
                 0.122                   1
 p    1 1.00
                 0.727                   1

28 0
 s    8 1.00
                  6665  0.00069158396281299
                  1000  0.0053257961529341
                   228   0.027060721042034
                 64.71    0.10165684614077
                 21.06     0.2745748236174
                 7.495    0.44829431892377
                 2.797    0.28490261071525
                0.5215   0.015194859206082
 s    8 1.00
                  6665  -0.00029326965268655
                  1000  -0.0023180354739745
                   228  -0.011499786038565
                 64.71  -0.046826727009787
                 21.06   -0.12846616875047
                 7.495   -0.30126627246289
                 2.797   -0.25563070233011
                0.5215      1.093793361012
 s    1 1.00
                0.1596                   1
 p    3 1.00
                 9.439   0.056979251590039
                 2.002    0.31320721150073
                0.5456    0.76037674173753
 p    1 1.00
                0.1517                   1
 d    1 1.00
                  0.55                   1

29 0
 s    3 1.00
                 13.01   0.033498726389998
                 1.962    0.23480080117413
                0.4446     0.8136829578829
 s    1 1.00
                 0.122                   1
 p    1 1.00
                 0.727                   1

30 0
 s    3 1.00
                 13.01   0.033498726389998
                 1.962    0.23480080117413
                0.4446     0.8136829578829
 s    1 1.00
                 0.122                   1
 p    1 1.00
                 0.727                   1

31 0
 s    8 1.00
                  6665  0.00069158396281299
                  1000  0.0053257961529341
                   228   0.027060721042034
                 64.71    0.10165684614077
                 21.06     0.2745748236174
                 7.495    0.44829431892377
                 2.797    0.28490261071525
                0.5215   0.015194859206082
 s    8 1.00
                  6665  -0.00029326965268655
                  1000  -0.0023180354739745
                   228  -0.011499786038565
                 64.71  -0.046826727009787
                 21.06   -0.12846616875047
                 7.495   -0.30126627246289
                 2.797   -0.25563070233011
                0.5215      1.093793361012
 s    1 1.00
                0.1596                   1
 p    3 1.00
                 9.439   0.056979251590039
                 2.002    0.31320721150073
                0.5456    0.76037674173753
 p    1 1.00
                0.1517                   1
 d    1 1.00
                  0.55                   1

32 0
 s    3 1.00
                 13.01   0.033498726389998
                 1.962    0.23480080117413
                0.4446     0.8136829578829
 s    1 1.00
                 0.122                   1
 p    1 1.00
                 0.727                   1

33 0
 s    3 1.00
                 13.01   0.033498726389998
                 1.962    0.23480080117413
                0.4446     0.8136829578829
 s    1 1.00
                 0.122                   1
 p    1 1.00
                 0.727                   1

34 0
 s    3 1.00
                 13.01   0.033498726389998
                 1.962    0.23480080117413
                0.4446     0.8136829578829
 s    1 1.00
                 0.122                   1
 p    1 1.00
                 0.727                   1

35 0
 s    3 1.00
                 13.01   0.033498726389998
                 1.962    0.23480080117413
                0.4446     0.8136829578829
 s    1 1.00
                 0.122                   1
 p    1 1.00
                 0.727                   1

36 0
 s    3 1.00
                 13.01   0.033498726389998
                 1.962    0.23480080117413
                0.4446     0.8136829578829
 s    1 1.00
                 0.122                   1
 p    1 1.00
                 0.727                   1

37 0
 s    3 1.00
                 13.01   0.033498726389998
                 1.962    0.23480080117413
                0.4446     0.8136829578829
 s    1 1.00
                 0.122                   1
 p    1 1.00
                 0.727                   1

[5d]
[7f]
[9g]

[MO]
 Sym= A
 Ene=               0
 Spin= Alpha
 Occup=    1.00000
   1    5.2622356322215e-05
   2    3.5681944711481e-05
   3    -0.00011882091676144
   4    8.1918799096778e-08
   5    -4.7640322156687e-06
   6    -4.0152366194439e-06
   7    -5.8809446478393e-07
   8    2.3307971376206e-05
   9    8.1509996295563e-05
  10    -1.2758244434534e-05
  11    1.597944768545e-09
  12    7.8484289109406e-07
  13    -4.1491567711286e-07
  14    -1.7392559105768e-08
  15    1.5494172195355e-05
  16    0.00017284626919803
  17    1.3226939256353e-07
  18    -1.5332256881985e-06
  19    3.2958649941445e-05
  20    7.5224143436068e-06
  21    -6.461381185737e-05
  22    -1.8280515482463e-07
  23    5.7224917313434e-06
  24    -2.5414945991094e-06
  25      -1.0013660119701
  26    -0.0019602793970198
  27    0.0068272867640368
  28    4.5006120584835e-06
  29    -8.3866529332899e-06
  30      0.00165205504137
  31    -6.8254182539554e-07
  32    2.3626778262412e-06
  33    -0.0018549095533891
  34    -0.00012276461551608
  35    2.962407321554e-06
  36    -1.406810977231e-06
  37    -6.7364143353031e-05
  38    0.00017538321467905
  39    -0.00027712319425183
  40    -0.00037928808297324
  41    -0.0014457595102221
  42    -1.5506089450039e-05
  43    1.0301980127432e-05
  44    1.8468058957818e-06
  45    -7.7860005877572e-05
  46    6.1409970654976e-05
  47    -0.0035765873510653
  48    0.0005284337248171
  49    8.1742125273812e-06
  50    -2.2950566582201e-06
  51    -2.9246739948883e-05
  52    0.00010860197788316
  53    8.4921771227183e-05
  54    0.00016595414682398
  55     -0.00137606586235
  56    -7.7789563878929e-05
  57    7.1459631701882e-06
  58    3.5343939722199e-05
  59    0.00042505842102323
  60    -0.00047876664568208
  61    0.00093564900919117
  62    0.00011716204187614
  63    -0.00014992239593243
  64    0.00014290677164136
  65    -5.4896362561959e-05
  66    0.00012930054830905
  67    3.9475822864168e-05
  68    9.7680378749658e-05
  69    -0.00050513449765016
  70    5.9776362458906e-05
  71    -3.9559065442211e-05
  72    5.9761101307525e-05
  73    -0.0010000525254597
  74    0.00076910655473184
  75    0.00064465402041718
  76    0.00013980994370028
  77    0.00012130400243738
  78    -8.9824599093892e-05
  79    -5.8466633012318e-05
  80    0.00015054506256913
  81    6.370759989683e-05
  82    -0.00020882010191644
  83    -6.6141066603985e-05
  84      4.8618248879e-05
  85    -4.8612037771664e-05
  86    -2.5063821850853e-05
  87    -4.9266545089923e-05
  88    0.00060852339224845
  89    1.5676824536202e-05
  90    1.739953633051e-05
  91    -1.1792597242356e-05
  92    -0.00025775227552544
  93    -0.00063008558005692
  94    1.8011165231674e-05
  95    -1.8244031483479e-05
  96    -1.1291870283969e-05
  97    -7.4582313797339e-06
  98    2.0373805894692e-05
  99    4.6260924144442e-05
 100    3.800539956832e-05
 101    0.00015951331774867
 102    -8.6669449503744e-06
 103    1.0019596224334e-05
 104    -7.5004556388306e-05
 105    1.8981256813605e-05
 106    0.00020051837464642
 107    6.427902088165e-05
 108    -1.0221160469255e-05
 109    -7.493318619872e-05
 110    -7.7372418605852e-05
 111    5.958858940666e-05
 112    4.4915593863365e-05
 113    -1.8927591056739e-05
 114    -7.0060197770324e-05
 115     5.67386088275e-05
 116    0.00011399684761292
 117    -0.00083100982854999
 118    1.2116698979975e-05
 119    2.1840377221981e-05
 120    -4.4116241825815e-05
 121    -0.00030144975481613
 122    -2.4738301899012e-05
 123    0.00013536922869634
 124    5.8107599032522e-06
 125    -1.4438267069964e-05
 126    -1.4619652829427e-05
 127    3.1422190774393e-05
 128    -4.9637246846679e-05
 129    1.9189642244909e-05
 130    0.00032492451510216
 131    -7.6515267779088e-06
 132    -5.8751700017343e-06
 133    -2.9297990143294e-05
 134    -2.5823666848378e-05
 135    0.00011837178861674
 136    1.3542029180039e-05
 137    2.4344788210706e-05
 138    2.6758819804094e-05
 139    2.150533024695e-05
 140    3.9226479937883e-05
 141    -0.00029005011446504
 142    -7.5222082115767e-06
 143    2.9898502809445e-06
 144    5.8043184960842e-06
 145    0.00023068757636969
 146    -5.3161470852321e-05
 147    -6.403629271286e-05
 148    2.4899435283848e-06
 149    -2.9313378267034e-06
 150    3.6030099899972e-06
 151    -1.2224059096387e-05
 152    4.8519323793312e-06
 153    9.4017772747614e-05
 154    0.00010118933284955
 155    2.5659100639865e-05
 156    -2.8887430971496e-05
 157    -2.0522068758204e-05
 158    2.4492025112878e-05
 159    8.6095577641861e-05
 160    5.8586206019132e-05
 161    7.5009136150503e-06
 162    -7.0215869588104e-06
 163    -0.00010470006974897
 164    -0.0001002483794374
 165    0.00018371928181285
 166    7.0107076475951e-05
 167    -3.0202827225963e-05
 168    5.6146911433316e-05
 169    -0.00020958816317557
 170    0.00020277530898186
 171    0.00016465551720919
 172    1.6204290850439e-06
 173    -6.8278073311339e-06
 174    9.778432866136e-06
 175    -2.8473104326221e-06
 176    1.5080421933378e-05
 177    1.6484994230331e-05
 178    -8.3489658282787e-05
 179    8.799405673375e-07
 180    -1.8784635958095e-06
 181    4.8884912744999e-06
 182    -1.9788293117425e-05
 183    -3.073079052341e-05
 184    6.5328959191965e-05
 185    -9.422930583155e-07
 186    -2.1956209541271e-06
 187    -4.9516072577422e-06
 188    -0.00013035497302263
 189    0.00010318959556853
 190    8.624729428347e-05
 191    -1.1190485197961e-06
 192    -1.7818518895956e-06
 193    7.2848281210179e-06
 194    3.1029807068586e-06
 195    5.4357011913217e-06
 196    1.3526054266996e-05
 197    1.8404705386186e-05
 198    -5.6354413524397e-06
 199    -1.9512473828156e-06
 200    3.489417347862e-06
 201    -8.9882167760596e-05
 202    -3.2279808650507e-05
 203    9.9794290846063e-06
 204    -1.687790257051e-05
 205    -1.845319763101e-05
 206    -7.5943613004287e-05
 207    -8.2148259829619e-05
 208    2.0917779983482e-05
 209    2.4910778567624e-06
 210    -1.7269744139648e-05
 211    7.1860328959602e-06
 212    3.9725226525167e-06
 213    -0.00027584273923634
 214    -3.9577223648723e-05
 215    2.8058077115164e-05
 216    2.3764132641985e-05
 217    -0.00021055054858819
 218    6.5224151983475e-05
 219    8.4185497412785e-05
 220    1.3685527062851e-07
 221    2.3704306473471e-05
 222    -8.8189921380546e-06
 223    -1.0487238282511e-05
 224    2.8053609353716e-06
 225    -2.8133258615335e-05
 226    -5.5475761611291e-05
 227    1.2283302398102e-05
 228    2.186530939264e-06
 229    1.1189816423204e-06
 230    -7.9792014172752e-06
 231    -5.3019135174596e-05
 232    3.9005523827089e-06
 233    -6.3630217782934e-06
 234    -1.1953121629873e-05
 235    -6.3716256922542e-07
 236    -4.1258848747595e-06
 237    7.6408744045301e-05
 238    2.691741792524e-06
 239    -2.9179494365947e-06
 240    1.4166377612529e-06
 241    -3.3255792214829e-05
 242    6.2560337885693e-05
 243    -1.8886052628035e-05
 244    -1.8501871902004e-06
 245    -1.5870009637553e-06
 246    1.5315806350923e-06
 247    -1.6772297392115e-07
 248    -6.699481596617e-07
 249      1.5112330126e-05
 250    -1.3906376098085e-05
 251    4.0479066088193e-06
 252    1.9822011463664e-06
 253    7.5787424459894e-07
 254    3.3101326928118e-06
 255    -5.882078092372e-05
 256    -1.4334896957086e-06
 257    -5.2690358624543e-06
 258    1.7455989571293e-06
 259    9.2877626983047e-06
 260    2.855679137798e-05
 261    -6.2589544742554e-05
 262    1.7959849496277e-05
 263    -1.3743100708572e-05