[Molden Format]
made by pyscf v[2.0.1]
[Atoms] (AU)
O   1   8     0.00000000000000     0.00000000000000    11.69764103529358
H   2   1     0.00000000000000     0.00000000000000     9.87423921339262
H   3   1    -0.05031916615174     1.78353065140343    12.07351273176025
O   4   8     0.00000000000000     0.00000000000000     2.31533471513237
C   5   6     0.00000000000000     0.00000000000000     0.00000000000000
C   6   6     2.01118073026938    -1.40227222164369    -1.50774939176400
C   7   6    -2.01249334291722     1.41331050329955    -1.50315905028694
H   8   1     3.32037363730244    -2.26721897153159    -0.13599698591495
C   9   6     3.45899267434009     0.28739631745591    -3.37437943254505
H   10   1     1.07662969841332    -2.94725144642667    -2.56541439481080
H   11   1    -2.67503415753480     0.18421555839588    -3.06194479365997
H   12   1    -1.07974048864772     3.03851734677796    -2.43674295017013
C   13   6    -4.21607110578555     2.32938802552922     0.11994162256091
H   14   1     4.24440173074564     1.93368664142019    -2.34976285512790
H   15   1     2.15020713235517     1.04714335134846    -4.81494497423699
C   16   6     5.60746363007797    -1.12419643481196    -4.70268606082550
H   17   1    -3.46838323670267     3.50951302338067     1.66946842715333
H   18   1    -5.11873485366228     0.68575958301209     1.04047743976495
C   19   6    -6.18314754751344     3.80909592987882    -1.39656589068747
H   20   1     6.93011263717176    -1.87550812453645    -3.26656317360070
C   21   6     7.06356622236532     0.52877932406334    -6.57829775293605
H   22   1     4.82318879258361    -2.78573437948532    -5.70504560381835
H   23   1    -6.91582688743803     2.61304780074712    -2.95074552451969
H   24   1    -5.26532430573853     5.45420349051338    -2.31005832200284
C   25   6    -8.39941882261433     4.73263980500213     0.21800571437956
H   26   1     7.83338371486801     2.19084139882824    -5.57093109900697
H   27   1     5.73544244039420     1.27376866537418    -8.01071492370229
C   28   6     9.21124858443101    -0.89699110072176    -7.88926949186242
H   29   1    -7.66272760055236     5.92277078003992     1.77035591474408
H   30   1    -9.31497248082589     3.08753015622020     1.12614408368786
C   31   6   -10.35481709231879     6.21833079391143    -1.30905206253246
H   32   1    10.58815905329501    -1.61074586756696    -6.49512691622620
H   33   1    10.23506248045667     0.32468009384095    -9.23072870921204
H   34   1     8.47665842847139    -2.53598436989925    -8.94921964622535
H   35   1    -9.48948872868064     7.90013588951020    -2.18823918416067
H   36   1   -11.93332513000955     6.86460487874102    -0.11255798845995
H   37   1   -11.15126291841033     5.04495968327630    -2.83849898862534
[GTO]
1 0
 s    8 1.00
                 11720  0.00070964594651845
                  1759  0.0054672722921914
                 400.8   0.027823118610189
                 113.7    0.10474773971146
                 37.03    0.28292084635691
                 13.27    0.44849523869833
                 5.025    0.27081688521277
                 1.013    0.01545029160744
 s    8 1.00
                 11720  -0.00031444341168873
                  1759  -0.0024821376810179
                 400.8  -0.012316355381583
                 113.7  -0.050538917343672
                 37.03   -0.13938490331632
                 13.27   -0.32507749481778
                 5.025   -0.22984830758785
                 1.013     1.0953793467883
 s    1 1.00
                0.3023                   1
 p    3 1.00
                  17.7   0.062679166281506
                 3.854    0.33353656587936
                 1.046    0.74123964163973
 p    1 1.00
                0.2753                   1
 d    1 1.00
                 1.185                   1

2 0
 s    3 1.00
                 13.01   0.033498726389998
                 1.962    0.23480080117413
                0.4446     0.8136829578829
 s    1 1.00
                 0.122                   1
 p    1 1.00
                 0.727                   1

3 0
 s    3 1.00
                 13.01   0.033498726389998
                 1.962    0.23480080117413
                0.4446     0.8136829578829
 s    1 1.00
                 0.122                   1
 p    1 1.00
                 0.727                   1

4 0
 s    8 1.00
                 11720  0.00070964594651845
                  1759  0.0054672722921914
                 400.8   0.027823118610189
                 113.7    0.10474773971146
                 37.03    0.28292084635691
                 13.27    0.44849523869833
                 5.025    0.27081688521277
                 1.013    0.01545029160744
 s    8 1.00
                 11720  -0.00031444341168873
                  1759  -0.0024821376810179
                 400.8  -0.012316355381583
                 113.7  -0.050538917343672
                 37.03   -0.13938490331632
                 13.27   -0.32507749481778
                 5.025   -0.22984830758785
                 1.013     1.0953793467883
 s    1 1.00
                0.3023                   1
 p    3 1.00
                  17.7   0.062679166281506
                 3.854    0.33353656587936
                 1.046    0.74123964163973
 p    1 1.00
                0.2753                   1
 d    1 1.00
                 1.185                   1

5 0
 s    8 1.00
                  6665  0.00069158396281299
                  1000  0.0053257961529341
                   228   0.027060721042034
                 64.71    0.10165684614077
                 21.06     0.2745748236174
                 7.495    0.44829431892377
                 2.797    0.28490261071525
                0.5215   0.015194859206082
 s    8 1.00
                  6665  -0.00029326965268655
                  1000  -0.0023180354739745
                   228  -0.011499786038565
                 64.71  -0.046826727009787
                 21.06   -0.12846616875047
                 7.495   -0.30126627246289
                 2.797   -0.25563070233011
                0.5215      1.093793361012
 s    1 1.00
                0.1596                   1
 p    3 1.00
                 9.439   0.056979251590039
                 2.002    0.31320721150073
                0.5456    0.76037674173753
 p    1 1.00
                0.1517                   1
 d    1 1.00
                  0.55                   1

6 0
 s    8 1.00
                  6665  0.00069158396281299
                  1000  0.0053257961529341
                   228   0.027060721042034
                 64.71    0.10165684614077
                 21.06     0.2745748236174
                 7.495    0.44829431892377
                 2.797    0.28490261071525
                0.5215   0.015194859206082
 s    8 1.00
                  6665  -0.00029326965268655
                  1000  -0.0023180354739745
                   228  -0.011499786038565
                 64.71  -0.046826727009787
                 21.06   -0.12846616875047
                 7.495   -0.30126627246289
                 2.797   -0.25563070233011
                0.5215      1.093793361012
 s    1 1.00
                0.1596                   1
 p    3 1.00
                 9.439   0.056979251590039
                 2.002    0.31320721150073
                0.5456    0.76037674173753
 p    1 1.00
                0.1517                   1
 d    1 1.00
                  0.55                   1

7 0
 s    8 1.00
                  6665  0.00069158396281299
                  1000  0.0053257961529341
                   228   0.027060721042034
                 64.71    0.10165684614077
                 21.06     0.2745748236174
                 7.495    0.44829431892377
                 2.797    0.28490261071525
                0.5215   0.015194859206082
 s    8 1.00
                  6665  -0.00029326965268655
                  1000  -0.0023180354739745
                   228  -0.011499786038565
                 64.71  -0.046826727009787
                 21.06   -0.12846616875047
                 7.495   -0.30126627246289
                 2.797   -0.25563070233011
                0.5215      1.093793361012
 s    1 1.00
                0.1596                   1
 p    3 1.00
                 9.439   0.056979251590039
                 2.002    0.31320721150073
                0.5456    0.76037674173753
 p    1 1.00
                0.1517                   1
 d    1 1.00
                  0.55                   1

8 0
 s    3 1.00
                 13.01   0.033498726389998
                 1.962    0.23480080117413
                0.4446     0.8136829578829
 s    1 1.00
                 0.122                   1
 p    1 1.00
                 0.727                   1

9 0
 s    8 1.00
                  6665  0.00069158396281299
                  1000  0.0053257961529341
                   228   0.027060721042034
                 64.71    0.10165684614077
                 21.06     0.2745748236174
                 7.495    0.44829431892377
                 2.797    0.28490261071525
                0.5215   0.015194859206082
 s    8 1.00
                  6665  -0.00029326965268655
                  1000  -0.0023180354739745
                   228  -0.011499786038565
                 64.71  -0.046826727009787
                 21.06   -0.12846616875047
                 7.495   -0.30126627246289
                 2.797   -0.25563070233011
                0.5215      1.093793361012
 s    1 1.00
                0.1596                   1
 p    3 1.00
                 9.439   0.056979251590039
                 2.002    0.31320721150073
                0.5456    0.76037674173753
 p    1 1.00
                0.1517                   1
 d    1 1.00
                  0.55                   1

10 0
 s    3 1.00
                 13.01   0.033498726389998
                 1.962    0.23480080117413
                0.4446     0.8136829578829
 s    1 1.00
                 0.122                   1
 p    1 1.00
                 0.727                   1

11 0
 s    3 1.00
                 13.01   0.033498726389998
                 1.962    0.23480080117413
                0.4446     0.8136829578829
 s    1 1.00
                 0.122                   1
 p    1 1.00
                 0.727                   1

12 0
 s    3 1.00
                 13.01   0.033498726389998
                 1.962    0.23480080117413
                0.4446     0.8136829578829
 s    1 1.00
                 0.122                   1
 p    1 1.00
                 0.727                   1

13 0
 s    8 1.00
                  6665  0.00069158396281299
                  1000  0.0053257961529341
                   228   0.027060721042034
                 64.71    0.10165684614077
                 21.06     0.2745748236174
                 7.495    0.44829431892377
                 2.797    0.28490261071525
                0.5215   0.015194859206082
 s    8 1.00
                  6665  -0.00029326965268655
                  1000  -0.0023180354739745
                   228  -0.011499786038565
                 64.71  -0.046826727009787
                 21.06   -0.12846616875047
                 7.495   -0.30126627246289
                 2.797   -0.25563070233011
                0.5215      1.093793361012
 s    1 1.00
                0.1596                   1
 p    3 1.00
                 9.439   0.056979251590039
                 2.002    0.31320721150073
                0.5456    0.76037674173753
 p    1 1.00
                0.1517                   1
 d    1 1.00
                  0.55                   1

14 0
 s    3 1.00
                 13.01   0.033498726389998
                 1.962    0.23480080117413
                0.4446     0.8136829578829
 s    1 1.00
                 0.122                   1
 p    1 1.00
                 0.727                   1

15 0
 s    3 1.00
                 13.01   0.033498726389998
                 1.962    0.23480080117413
                0.4446     0.8136829578829
 s    1 1.00
                 0.122                   1
 p    1 1.00
                 0.727                   1

16 0
 s    8 1.00
                  6665  0.00069158396281299
                  1000  0.0053257961529341
                   228   0.027060721042034
                 64.71    0.10165684614077
                 21.06     0.2745748236174
                 7.495    0.44829431892377
                 2.797    0.28490261071525
                0.5215   0.015194859206082
 s    8 1.00
                  6665  -0.00029326965268655
                  1000  -0.0023180354739745
                   228  -0.011499786038565
                 64.71  -0.046826727009787
                 21.06   -0.12846616875047
                 7.495   -0.30126627246289
                 2.797   -0.25563070233011
                0.5215      1.093793361012
 s    1 1.00
                0.1596                   1
 p    3 1.00
                 9.439   0.056979251590039
                 2.002    0.31320721150073
                0.5456    0.76037674173753
 p    1 1.00
                0.1517                   1
 d    1 1.00
                  0.55                   1

17 0
 s    3 1.00
                 13.01   0.033498726389998
                 1.962    0.23480080117413
                0.4446     0.8136829578829
 s    1 1.00
                 0.122                   1
 p    1 1.00
                 0.727                   1

18 0
 s    3 1.00
                 13.01   0.033498726389998
                 1.962    0.23480080117413
                0.4446     0.8136829578829
 s    1 1.00
                 0.122                   1
 p    1 1.00
                 0.727                   1

19 0
 s    8 1.00
                  6665  0.00069158396281299
                  1000  0.0053257961529341
                   228   0.027060721042034
                 64.71    0.10165684614077
                 21.06     0.2745748236174
                 7.495    0.44829431892377
                 2.797    0.28490261071525
                0.5215   0.015194859206082
 s    8 1.00
                  6665  -0.00029326965268655
                  1000  -0.0023180354739745
                   228  -0.011499786038565
                 64.71  -0.046826727009787
                 21.06   -0.12846616875047
                 7.495   -0.30126627246289
                 2.797   -0.25563070233011
                0.5215      1.093793361012
 s    1 1.00
                0.1596                   1
 p    3 1.00
                 9.439   0.056979251590039
                 2.002    0.31320721150073
                0.5456    0.76037674173753
 p    1 1.00
                0.1517                   1
 d    1 1.00
                  0.55                   1

20 0
 s    3 1.00
                 13.01   0.033498726389998
                 1.962    0.23480080117413
                0.4446     0.8136829578829
 s    1 1.00
                 0.122                   1
 p    1 1.00
                 0.727                   1

21 0
 s    8 1.00
                  6665  0.00069158396281299
                  1000  0.0053257961529341
                   228   0.027060721042034
                 64.71    0.10165684614077
                 21.06     0.2745748236174
                 7.495    0.44829431892377
                 2.797    0.28490261071525
                0.5215   0.015194859206082
 s    8 1.00
                  6665  -0.00029326965268655
                  1000  -0.0023180354739745
                   228  -0.011499786038565
                 64.71  -0.046826727009787
                 21.06   -0.12846616875047
                 7.495   -0.30126627246289
                 2.797   -0.25563070233011
                0.5215      1.093793361012
 s    1 1.00
                0.1596                   1
 p    3 1.00
                 9.439   0.056979251590039
                 2.002    0.31320721150073
                0.5456    0.76037674173753
 p    1 1.00
                0.1517                   1
 d    1 1.00
                  0.55                   1

22 0
 s    3 1.00
                 13.01   0.033498726389998
                 1.962    0.23480080117413
                0.4446     0.8136829578829
 s    1 1.00
                 0.122                   1
 p    1 1.00
                 0.727                   1

23 0
 s    3 1.00
                 13.01   0.033498726389998
                 1.962    0.23480080117413
                0.4446     0.8136829578829
 s    1 1.00
                 0.122                   1
 p    1 1.00
                 0.727                   1

24 0
 s    3 1.00
                 13.01   0.033498726389998
                 1.962    0.23480080117413
                0.4446     0.8136829578829
 s    1 1.00
                 0.122                   1
 p    1 1.00
                 0.727                   1

25 0
 s    8 1.00
                  6665  0.00069158396281299
                  1000  0.0053257961529341
                   228   0.027060721042034
                 64.71    0.10165684614077
                 21.06     0.2745748236174
                 7.495    0.44829431892377
                 2.797    0.28490261071525
                0.5215   0.015194859206082
 s    8 1.00
                  6665  -0.00029326965268655
                  1000  -0.0023180354739745
                   228  -0.011499786038565
                 64.71  -0.046826727009787
                 21.06   -0.12846616875047
                 7.495   -0.30126627246289
                 2.797   -0.25563070233011
                0.5215      1.093793361012
 s    1 1.00
                0.1596                   1
 p    3 1.00
                 9.439   0.056979251590039
                 2.002    0.31320721150073
                0.5456    0.76037674173753
 p    1 1.00
                0.1517                   1
 d    1 1.00
                  0.55                   1

26 0
 s    3 1.00
                 13.01   0.033498726389998
                 1.962    0.23480080117413
                0.4446     0.8136829578829
 s    1 1.00
                 0.122                   1
 p    1 1.00
                 0.727                   1

27 0
 s    3 1.00
                 13.01   0.033498726389998
                 1.962    0.23480080117413
                0.4446     0.8136829578829
 s    1 1.00
                 0.122                   1
 p    1 1.00
                 0.727                   1

28 0
 s    8 1.00
                  6665  0.00069158396281299
                  1000  0.0053257961529341
                   228   0.027060721042034
                 64.71    0.10165684614077
                 21.06     0.2745748236174
                 7.495    0.44829431892377
                 2.797    0.28490261071525
                0.5215   0.015194859206082
 s    8 1.00
                  6665  -0.00029326965268655
                  1000  -0.0023180354739745
                   228  -0.011499786038565
                 64.71  -0.046826727009787
                 21.06   -0.12846616875047
                 7.495   -0.30126627246289
                 2.797   -0.25563070233011
                0.5215      1.093793361012
 s    1 1.00
                0.1596                   1
 p    3 1.00
                 9.439   0.056979251590039
                 2.002    0.31320721150073
                0.5456    0.76037674173753
 p    1 1.00
                0.1517                   1
 d    1 1.00
                  0.55                   1

29 0
 s    3 1.00
                 13.01   0.033498726389998
                 1.962    0.23480080117413
                0.4446     0.8136829578829
 s    1 1.00
                 0.122                   1
 p    1 1.00
                 0.727                   1

30 0
 s    3 1.00
                 13.01   0.033498726389998
                 1.962    0.23480080117413
                0.4446     0.8136829578829
 s    1 1.00
                 0.122                   1
 p    1 1.00
                 0.727                   1

31 0
 s    8 1.00
                  6665  0.00069158396281299
                  1000  0.0053257961529341
                   228   0.027060721042034
                 64.71    0.10165684614077
                 21.06     0.2745748236174
                 7.495    0.44829431892377
                 2.797    0.28490261071525
                0.5215   0.015194859206082
 s    8 1.00
                  6665  -0.00029326965268655
                  1000  -0.0023180354739745
                   228  -0.011499786038565
                 64.71  -0.046826727009787
                 21.06   -0.12846616875047
                 7.495   -0.30126627246289
                 2.797   -0.25563070233011
                0.5215      1.093793361012
 s    1 1.00
                0.1596                   1
 p    3 1.00
                 9.439   0.056979251590039
                 2.002    0.31320721150073
                0.5456    0.76037674173753
 p    1 1.00
                0.1517                   1
 d    1 1.00
                  0.55                   1

32 0
 s    3 1.00
                 13.01   0.033498726389998
                 1.962    0.23480080117413
                0.4446     0.8136829578829
 s    1 1.00
                 0.122                   1
 p    1 1.00
                 0.727                   1

33 0
 s    3 1.00
                 13.01   0.033498726389998
                 1.962    0.23480080117413
                0.4446     0.8136829578829
 s    1 1.00
                 0.122                   1
 p    1 1.00
                 0.727                   1

34 0
 s    3 1.00
                 13.01   0.033498726389998
                 1.962    0.23480080117413
                0.4446     0.8136829578829
 s    1 1.00
                 0.122                   1
 p    1 1.00
                 0.727                   1

35 0
 s    3 1.00
                 13.01   0.033498726389998
                 1.962    0.23480080117413
                0.4446     0.8136829578829
 s    1 1.00
                 0.122                   1
 p    1 1.00
                 0.727                   1

36 0
 s    3 1.00
                 13.01   0.033498726389998
                 1.962    0.23480080117413
                0.4446     0.8136829578829
 s    1 1.00
                 0.122                   1
 p    1 1.00
                 0.727                   1

37 0
 s    3 1.00
                 13.01   0.033498726389998
                 1.962    0.23480080117413
                0.4446     0.8136829578829
 s    1 1.00
                 0.122                   1
 p    1 1.00
                 0.727                   1

[5d]
[7f]
[9g]

[MO]
 Sym= A
 Ene=               0
 Spin= Alpha
 Occup=    1.00000
   1    -1.9136273746219e-05
   2    -8.1055539200564e-06
   3    3.2700934059195e-05
   4    -3.1603641605017e-08
   5    1.2310495643461e-06
   6    -3.4810995668188e-07
   7    2.2647770767599e-07
   8    -8.1565219281309e-06
   9    -2.5452193889582e-05
  10    4.8546111302585e-06
  11    9.641865921788e-09
  12    -3.8815490613662e-07
  13    4.2105721059223e-07
  14    2.3419983832058e-08
  15    -3.6339831359645e-06
  16    -5.0019236760597e-05
  17    -1.8972043211453e-08
  18    5.1070324156018e-07
  19    -1.5683801911892e-05
  20    -1.7049098840565e-06
  21    2.1381510519668e-05
  22    8.2058835429463e-08
  23    -2.8607363206114e-06
  24    6.6442716061607e-07
  25       1.0013571490377
  26    0.0019413697102372
  27    -0.0067498550085855
  28    -4.1824871557074e-06
  29    6.8714474296336e-06
  30    -0.0016620933164664
  31    5.6168673557594e-07
  32    -1.6995474844652e-06
  33    0.0018029848327778
  34    0.00013179254532193
  35    -3.0716316153797e-06
  36    1.321354970926e-06
  37    6.7846493500205e-05
  38    -0.00017672376452373
  39    0.00027051618425887
  40    0.00036467007367388
  41     0.001389768406607
  42    1.4969111860295e-05
  43    -1.0271162075305e-05
  44    -1.7557188991659e-05
  45    7.8945483953537e-05
  46    -6.0720889392969e-05
  47    0.0035212721575337
  48    -0.00054313966894508
  49    -8.4208713485764e-06
  50    2.3076752714449e-06
  51    2.8569127526077e-05
  52    -0.00010699181277305
  53    -8.5134342806783e-05
  54    -0.00016636813644735
  55    0.0013665078216354
  56    7.7662792819079e-05
  57    -7.2592704579548e-06
  58    -3.6204466742438e-05
  59    -0.00042401949152123
  60    0.00047618298379214
  61    -0.00091493275721817
  62    -0.00011807214036066
  63    0.00015023331106139
  64    -0.00014279378929893
  65    5.5369654472271e-05
  66    -0.00013089258106495
  67    -4.037383589691e-05
  68    -9.928115471063e-05
  69    0.00050254725349542
  70    -5.9223044030886e-05
  71    3.8995645047584e-05
  72    -6.0175192112168e-05
  73    0.00099278973651245
  74    -0.00076515273978925
  75    -0.00063346730160621
  76    -0.00014087306488908
  77    -0.00012102794499064
  78    8.977466863509e-05
  79     5.89669666265e-05
  80    -0.00015183781945288
  81    -6.6152925203866e-05
  82    0.00020559017973511
  83    6.5682726479043e-05
  84    -4.8244722542785e-05
  85    4.9348907008889e-05
  86    2.4995221461614e-05
  87    4.9185288033607e-05
  88    -0.00059964927656072
  89    -1.5825942573884e-05
  90    -1.7352363376367e-05
  91    1.2224216621133e-05
  92    0.00025535146576138
  93    0.00061909889952303
  94    -2.1140911245493e-05
  95    1.7870125937479e-05
  96    1.1111549625245e-05
  97    7.0348564430894e-06
  98    -2.0930483423242e-05
  99    -4.5081326778748e-05
 100    -3.6276553251751e-05
 101    -0.00015661521141699
 102    9.9275138299676e-06
 103    -9.6374012388135e-06
 104    7.3827270185133e-05
 105    -1.8272558830978e-05
 106    -0.00019792809933331
 107    -6.4603011562249e-05
 108    1.1624849007655e-05
 109    7.4263317197812e-05
 110    7.7147878871664e-05
 111    -5.599122734241e-05
 112    -4.5567719822034e-05
 113    1.8178264223013e-05
 114    6.9344217697609e-05
 115    -5.7538866647251e-05
 116    -0.00011551408169406
 117    0.00082545192372845
 118    -1.2959365573645e-05
 119    -2.1242509051566e-05
 120    4.4291075687847e-05
 121    0.00030953799476363
 122    2.1552257369346e-05
 123    -0.00012366990812768
 124    -5.8859618931197e-06
 125    1.5118340187981e-05
 126    1.5344904026458e-05
 127    -3.1536337219211e-05
 128    4.9471064527701e-05
 129    -1.8750973904955e-05
 130    -0.00031856735452756
 131    7.3893608270813e-06
 132    5.8091000724623e-06
 133    2.9090991431085e-05
 134    2.5883191834745e-05
 135    -0.00011918369174168
 136    -1.3415254564191e-05
 137    -2.3809724161955e-05
 138    -2.642433229423e-05
 139    -2.114415451285e-05
 140    -3.8583130628973e-05
 141    0.00028214609784254
 142     7.61622775079e-06
 143    -2.8039879050184e-06
 144    -5.8674619201928e-06
 145    -0.00022964235490359
 146    4.9798296671403e-05
 147    6.5941611567974e-05
 148    -2.3951726334266e-06
 149    2.8589939121353e-06
 150    -3.1860144726075e-06
 151    1.1900812605019e-05
 152    -4.9169679388398e-06
 153    -9.4318793506473e-05
 154    -0.00011055357709188
 155    -2.5144512879073e-05
 156    3.0022125274328e-05
 157    2.1434202153451e-05
 158    -2.456932469079e-05
 159    -8.7196693050769e-05
 160    -5.8921161375299e-05
 161    -7.4516264679481e-06
 162    6.5854230265685e-06
 163    0.00010401356167032
 164    9.8800968184677e-05
 165    -0.00017061501003799
 166    -6.9874151238335e-05
 167    3.0132278828148e-05
 168    -5.6484282774892e-05
 169    0.00021271077372417
 170    -0.00020630299049267
 171    -0.00016048244955862
 172    -1.9079696579112e-06
 173    6.9252828805117e-06
 174    -9.9125670452649e-06
 175    2.9246978648942e-06
 176    -1.5437486002449e-05
 177    -1.6266715375145e-05
 178    8.2009879109814e-05
 179    -6.7342224767876e-07
 180    2.0177373924754e-06
 181    -4.9879405552369e-06
 182    1.937576511838e-05
 183    3.0014660391087e-05
 184    -6.0078687665481e-05
 185    8.6128494061796e-07
 186    2.0864342329957e-06
 187    5.0318318502614e-06
 188    0.00012838288603132
 189    -0.00010333960849745
 190    -8.3486933136315e-05
 191    1.1481038807686e-06
 192    1.6399527631262e-06
 193    -7.3252517655601e-06
 194    -3.125027013273e-06
 195    -5.204933375763e-06
 196    -1.3761395309688e-05
 197    -1.8035201707115e-05
 198    5.6227020076353e-06
 199    1.9739009305763e-06
 200    -3.6483618862997e-06
 201    8.9764703375034e-05
 202    3.3256918132472e-05
 203    -9.802547566261e-06
 204    1.7051013472136e-05
 205    1.850021928539e-05
 206    7.5858176003001e-05
 207    8.2489985369138e-05
 208    -2.1076651465952e-05
 209    -2.4500221981598e-06
 210    1.7148806900576e-05
 211    -6.7885397413624e-06
 212    -3.4766345705263e-06
 213    0.00026985926313994
 214    3.9059915091352e-05
 215    -2.7990312897911e-05
 216    -2.3855298963002e-05
 217    0.00021125388965483
 218    -6.5669908240344e-05
 219    -8.3189821633384e-05
 220    -1.1080111266936e-07
 221    -2.3797829976256e-05
 222    8.7950055646249e-06
 223    1.0435438860053e-05
 224    -2.7450765420921e-06
 225    2.7653913727198e-05
 226    5.450117887779e-05
 227    -1.2141921630728e-05
 228    -2.0869036844126e-06
 229    -1.1347740356787e-06
 230    7.7685473957257e-06
 231    5.3104628941703e-05
 232    -3.8354089916268e-06
 233    6.276867322549e-06
 234    1.1879682812235e-05
 235    6.0470454997107e-07
 236    4.0606332760457e-06
 237    -7.5969604794747e-05
 238    -2.66503633848e-06
 239    2.8789900862135e-06
 240    -1.4199371849842e-06
 241    3.2747339888706e-05
 242    -6.200499808012e-05
 243    1.8654779791852e-05
 244    1.8080856161073e-06
 245    1.5486317405124e-06
 246    -1.541379062437e-06
 247    1.742316879263e-07
 248    6.6157652836577e-07
 249    -1.5362562223531e-05
 250    1.5554298469238e-05
 251    -4.1234182773222e-06
 252    -2.0974719525937e-06
 253    -9.1481923671292e-07
 254    -2.9764848546874e-06
 255    5.9024954179942e-05
 256    1.2864672468652e-06
 257    5.3417142293117e-06
 258    -1.7885280634825e-06
 259    -9.5918986405018e-06
 260    -2.9026451570643e-05
 261    6.618045098268e-05
 262    -1.7806924021676e-05