[Molden Format]
made by pyscf v[2.0.1]
[Atoms] (AU)
O   1   8     0.00000000000000     0.00000000000000     8.29613401107647
H   2   1     0.00000000000000     0.00000000000000     6.47273218917551
H   3   1    -0.05031916615174     1.78353065140343     8.67200570754314
O   4   8     0.00000000000000     0.00000000000000     2.31533471513237
C   5   6     0.00000000000000     0.00000000000000     0.00000000000000
C   6   6     2.01118073026938    -1.40227222164369    -1.50774939176400
C   7   6    -2.01249334291722     1.41331050329955    -1.50315905028694
H   8   1     3.32037363730244    -2.26721897153159    -0.13599698591495
C   9   6     3.45899267434009     0.28739631745591    -3.37437943254505
H   10   1     1.07662969841332    -2.94725144642667    -2.56541439481080
H   11   1    -2.67503415753480     0.18421555839588    -3.06194479365997
H   12   1    -1.07974048864772     3.03851734677796    -2.43674295017013
C   13   6    -4.21607110578555     2.32938802552922     0.11994162256091
H   14   1     4.24440173074564     1.93368664142019    -2.34976285512790
H   15   1     2.15020713235517     1.04714335134846    -4.81494497423699
C   16   6     5.60746363007797    -1.12419643481196    -4.70268606082550
H   17   1    -3.46838323670267     3.50951302338067     1.66946842715333
H   18   1    -5.11873485366228     0.68575958301209     1.04047743976495
C   19   6    -6.18314754751344     3.80909592987882    -1.39656589068747
H   20   1     6.93011263717176    -1.87550812453645    -3.26656317360070
C   21   6     7.06356622236532     0.52877932406334    -6.57829775293605
H   22   1     4.82318879258361    -2.78573437948532    -5.70504560381835
H   23   1    -6.91582688743803     2.61304780074712    -2.95074552451969
H   24   1    -5.26532430573853     5.45420349051338    -2.31005832200284
C   25   6    -8.39941882261433     4.73263980500213     0.21800571437956
H   26   1     7.83338371486801     2.19084139882824    -5.57093109900697
H   27   1     5.73544244039420     1.27376866537418    -8.01071492370229
C   28   6     9.21124858443101    -0.89699110072176    -7.88926949186242
H   29   1    -7.66272760055236     5.92277078003992     1.77035591474408
H   30   1    -9.31497248082589     3.08753015622020     1.12614408368786
C   31   6   -10.35481709231879     6.21833079391143    -1.30905206253246
H   32   1    10.58815905329501    -1.61074586756696    -6.49512691622620
H   33   1    10.23506248045667     0.32468009384095    -9.23072870921204
H   34   1     8.47665842847139    -2.53598436989925    -8.94921964622535
H   35   1    -9.48948872868064     7.90013588951020    -2.18823918416067
H   36   1   -11.93332513000955     6.86460487874102    -0.11255798845995
H   37   1   -11.15126291841033     5.04495968327630    -2.83849898862534
[GTO]
1 0
 s    8 1.00
                 11720  0.00070964594651845
                  1759  0.0054672722921914
                 400.8   0.027823118610189
                 113.7    0.10474773971146
                 37.03    0.28292084635691
                 13.27    0.44849523869833
                 5.025    0.27081688521277
                 1.013    0.01545029160744
 s    8 1.00
                 11720  -0.00031444341168873
                  1759  -0.0024821376810179
                 400.8  -0.012316355381583
                 113.7  -0.050538917343672
                 37.03   -0.13938490331632
                 13.27   -0.32507749481778
                 5.025   -0.22984830758785
                 1.013     1.0953793467883
 s    1 1.00
                0.3023                   1
 p    3 1.00
                  17.7   0.062679166281506
                 3.854    0.33353656587936
                 1.046    0.74123964163973
 p    1 1.00
                0.2753                   1
 d    1 1.00
                 1.185                   1

2 0
 s    3 1.00
                 13.01   0.033498726389998
                 1.962    0.23480080117413
                0.4446     0.8136829578829
 s    1 1.00
                 0.122                   1
 p    1 1.00
                 0.727                   1

3 0
 s    3 1.00
                 13.01   0.033498726389998
                 1.962    0.23480080117413
                0.4446     0.8136829578829
 s    1 1.00
                 0.122                   1
 p    1 1.00
                 0.727                   1

4 0
 s    8 1.00
                 11720  0.00070964594651845
                  1759  0.0054672722921914
                 400.8   0.027823118610189
                 113.7    0.10474773971146
                 37.03    0.28292084635691
                 13.27    0.44849523869833
                 5.025    0.27081688521277
                 1.013    0.01545029160744
 s    8 1.00
                 11720  -0.00031444341168873
                  1759  -0.0024821376810179
                 400.8  -0.012316355381583
                 113.7  -0.050538917343672
                 37.03   -0.13938490331632
                 13.27   -0.32507749481778
                 5.025   -0.22984830758785
                 1.013     1.0953793467883
 s    1 1.00
                0.3023                   1
 p    3 1.00
                  17.7   0.062679166281506
                 3.854    0.33353656587936
                 1.046    0.74123964163973
 p    1 1.00
                0.2753                   1
 d    1 1.00
                 1.185                   1

5 0
 s    8 1.00
                  6665  0.00069158396281299
                  1000  0.0053257961529341
                   228   0.027060721042034
                 64.71    0.10165684614077
                 21.06     0.2745748236174
                 7.495    0.44829431892377
                 2.797    0.28490261071525
                0.5215   0.015194859206082
 s    8 1.00
                  6665  -0.00029326965268655
                  1000  -0.0023180354739745
                   228  -0.011499786038565
                 64.71  -0.046826727009787
                 21.06   -0.12846616875047
                 7.495   -0.30126627246289
                 2.797   -0.25563070233011
                0.5215      1.093793361012
 s    1 1.00
                0.1596                   1
 p    3 1.00
                 9.439   0.056979251590039
                 2.002    0.31320721150073
                0.5456    0.76037674173753
 p    1 1.00
                0.1517                   1
 d    1 1.00
                  0.55                   1

6 0
 s    8 1.00
                  6665  0.00069158396281299
                  1000  0.0053257961529341
                   228   0.027060721042034
                 64.71    0.10165684614077
                 21.06     0.2745748236174
                 7.495    0.44829431892377
                 2.797    0.28490261071525
                0.5215   0.015194859206082
 s    8 1.00
                  6665  -0.00029326965268655
                  1000  -0.0023180354739745
                   228  -0.011499786038565
                 64.71  -0.046826727009787
                 21.06   -0.12846616875047
                 7.495   -0.30126627246289
                 2.797   -0.25563070233011
                0.5215      1.093793361012
 s    1 1.00
                0.1596                   1
 p    3 1.00
                 9.439   0.056979251590039
                 2.002    0.31320721150073
                0.5456    0.76037674173753
 p    1 1.00
                0.1517                   1
 d    1 1.00
                  0.55                   1

7 0
 s    8 1.00
                  6665  0.00069158396281299
                  1000  0.0053257961529341
                   228   0.027060721042034
                 64.71    0.10165684614077
                 21.06     0.2745748236174
                 7.495    0.44829431892377
                 2.797    0.28490261071525
                0.5215   0.015194859206082
 s    8 1.00
                  6665  -0.00029326965268655
                  1000  -0.0023180354739745
                   228  -0.011499786038565
                 64.71  -0.046826727009787
                 21.06   -0.12846616875047
                 7.495   -0.30126627246289
                 2.797   -0.25563070233011
                0.5215      1.093793361012
 s    1 1.00
                0.1596                   1
 p    3 1.00
                 9.439   0.056979251590039
                 2.002    0.31320721150073
                0.5456    0.76037674173753
 p    1 1.00
                0.1517                   1
 d    1 1.00
                  0.55                   1

8 0
 s    3 1.00
                 13.01   0.033498726389998
                 1.962    0.23480080117413
                0.4446     0.8136829578829
 s    1 1.00
                 0.122                   1
 p    1 1.00
                 0.727                   1

9 0
 s    8 1.00
                  6665  0.00069158396281299
                  1000  0.0053257961529341
                   228   0.027060721042034
                 64.71    0.10165684614077
                 21.06     0.2745748236174
                 7.495    0.44829431892377
                 2.797    0.28490261071525
                0.5215   0.015194859206082
 s    8 1.00
                  6665  -0.00029326965268655
                  1000  -0.0023180354739745
                   228  -0.011499786038565
                 64.71  -0.046826727009787
                 21.06   -0.12846616875047
                 7.495   -0.30126627246289
                 2.797   -0.25563070233011
                0.5215      1.093793361012
 s    1 1.00
                0.1596                   1
 p    3 1.00
                 9.439   0.056979251590039
                 2.002    0.31320721150073
                0.5456    0.76037674173753
 p    1 1.00
                0.1517                   1
 d    1 1.00
                  0.55                   1

10 0
 s    3 1.00
                 13.01   0.033498726389998
                 1.962    0.23480080117413
                0.4446     0.8136829578829
 s    1 1.00
                 0.122                   1
 p    1 1.00
                 0.727                   1

11 0
 s    3 1.00
                 13.01   0.033498726389998
                 1.962    0.23480080117413
                0.4446     0.8136829578829
 s    1 1.00
                 0.122                   1
 p    1 1.00
                 0.727                   1

12 0
 s    3 1.00
                 13.01   0.033498726389998
                 1.962    0.23480080117413
                0.4446     0.8136829578829
 s    1 1.00
                 0.122                   1
 p    1 1.00
                 0.727                   1

13 0
 s    8 1.00
                  6665  0.00069158396281299
                  1000  0.0053257961529341
                   228   0.027060721042034
                 64.71    0.10165684614077
                 21.06     0.2745748236174
                 7.495    0.44829431892377
                 2.797    0.28490261071525
                0.5215   0.015194859206082
 s    8 1.00
                  6665  -0.00029326965268655
                  1000  -0.0023180354739745
                   228  -0.011499786038565
                 64.71  -0.046826727009787
                 21.06   -0.12846616875047
                 7.495   -0.30126627246289
                 2.797   -0.25563070233011
                0.5215      1.093793361012
 s    1 1.00
                0.1596                   1
 p    3 1.00
                 9.439   0.056979251590039
                 2.002    0.31320721150073
                0.5456    0.76037674173753
 p    1 1.00
                0.1517                   1
 d    1 1.00
                  0.55                   1

14 0
 s    3 1.00
                 13.01   0.033498726389998
                 1.962    0.23480080117413
                0.4446     0.8136829578829
 s    1 1.00
                 0.122                   1
 p    1 1.00
                 0.727                   1

15 0
 s    3 1.00
                 13.01   0.033498726389998
                 1.962    0.23480080117413
                0.4446     0.8136829578829
 s    1 1.00
                 0.122                   1
 p    1 1.00
                 0.727                   1

16 0
 s    8 1.00
                  6665  0.00069158396281299
                  1000  0.0053257961529341
                   228   0.027060721042034
                 64.71    0.10165684614077
                 21.06     0.2745748236174
                 7.495    0.44829431892377
                 2.797    0.28490261071525
                0.5215   0.015194859206082
 s    8 1.00
                  6665  -0.00029326965268655
                  1000  -0.0023180354739745
                   228  -0.011499786038565
                 64.71  -0.046826727009787
                 21.06   -0.12846616875047
                 7.495   -0.30126627246289
                 2.797   -0.25563070233011
                0.5215      1.093793361012
 s    1 1.00
                0.1596                   1
 p    3 1.00
                 9.439   0.056979251590039
                 2.002    0.31320721150073
                0.5456    0.76037674173753
 p    1 1.00
                0.1517                   1
 d    1 1.00
                  0.55                   1

17 0
 s    3 1.00
                 13.01   0.033498726389998
                 1.962    0.23480080117413
                0.4446     0.8136829578829
 s    1 1.00
                 0.122                   1
 p    1 1.00
                 0.727                   1

18 0
 s    3 1.00
                 13.01   0.033498726389998
                 1.962    0.23480080117413
                0.4446     0.8136829578829
 s    1 1.00
                 0.122                   1
 p    1 1.00
                 0.727                   1

19 0
 s    8 1.00
                  6665  0.00069158396281299
                  1000  0.0053257961529341
                   228   0.027060721042034
                 64.71    0.10165684614077
                 21.06     0.2745748236174
                 7.495    0.44829431892377
                 2.797    0.28490261071525
                0.5215   0.015194859206082
 s    8 1.00
                  6665  -0.00029326965268655
                  1000  -0.0023180354739745
                   228  -0.011499786038565
                 64.71  -0.046826727009787
                 21.06   -0.12846616875047
                 7.495   -0.30126627246289
                 2.797   -0.25563070233011
                0.5215      1.093793361012
 s    1 1.00
                0.1596                   1
 p    3 1.00
                 9.439   0.056979251590039
                 2.002    0.31320721150073
                0.5456    0.76037674173753
 p    1 1.00
                0.1517                   1
 d    1 1.00
                  0.55                   1

20 0
 s    3 1.00
                 13.01   0.033498726389998
                 1.962    0.23480080117413
                0.4446     0.8136829578829
 s    1 1.00
                 0.122                   1
 p    1 1.00
                 0.727                   1

21 0
 s    8 1.00
                  6665  0.00069158396281299
                  1000  0.0053257961529341
                   228   0.027060721042034
                 64.71    0.10165684614077
                 21.06     0.2745748236174
                 7.495    0.44829431892377
                 2.797    0.28490261071525
                0.5215   0.015194859206082
 s    8 1.00
                  6665  -0.00029326965268655
                  1000  -0.0023180354739745
                   228  -0.011499786038565
                 64.71  -0.046826727009787
                 21.06   -0.12846616875047
                 7.495   -0.30126627246289
                 2.797   -0.25563070233011
                0.5215      1.093793361012
 s    1 1.00
                0.1596                   1
 p    3 1.00
                 9.439   0.056979251590039
                 2.002    0.31320721150073
                0.5456    0.76037674173753
 p    1 1.00
                0.1517                   1
 d    1 1.00
                  0.55                   1

22 0
 s    3 1.00
                 13.01   0.033498726389998
                 1.962    0.23480080117413
                0.4446     0.8136829578829
 s    1 1.00
                 0.122                   1
 p    1 1.00
                 0.727                   1

23 0
 s    3 1.00
                 13.01   0.033498726389998
                 1.962    0.23480080117413
                0.4446     0.8136829578829
 s    1 1.00
                 0.122                   1
 p    1 1.00
                 0.727                   1

24 0
 s    3 1.00
                 13.01   0.033498726389998
                 1.962    0.23480080117413
                0.4446     0.8136829578829
 s    1 1.00
                 0.122                   1
 p    1 1.00
                 0.727                   1

25 0
 s    8 1.00
                  6665  0.00069158396281299
                  1000  0.0053257961529341
                   228   0.027060721042034
                 64.71    0.10165684614077
                 21.06     0.2745748236174
                 7.495    0.44829431892377
                 2.797    0.28490261071525
                0.5215   0.015194859206082
 s    8 1.00
                  6665  -0.00029326965268655
                  1000  -0.0023180354739745
                   228  -0.011499786038565
                 64.71  -0.046826727009787
                 21.06   -0.12846616875047
                 7.495   -0.30126627246289
                 2.797   -0.25563070233011
                0.5215      1.093793361012
 s    1 1.00
                0.1596                   1
 p    3 1.00
                 9.439   0.056979251590039
                 2.002    0.31320721150073
                0.5456    0.76037674173753
 p    1 1.00
                0.1517                   1
 d    1 1.00
                  0.55                   1

26 0
 s    3 1.00
                 13.01   0.033498726389998
                 1.962    0.23480080117413
                0.4446     0.8136829578829
 s    1 1.00
                 0.122                   1
 p    1 1.00
                 0.727                   1

27 0
 s    3 1.00
                 13.01   0.033498726389998
                 1.962    0.23480080117413
                0.4446     0.8136829578829
 s    1 1.00
                 0.122                   1
 p    1 1.00
                 0.727                   1

28 0
 s    8 1.00
                  6665  0.00069158396281299
                  1000  0.0053257961529341
                   228   0.027060721042034
                 64.71    0.10165684614077
                 21.06     0.2745748236174
                 7.495    0.44829431892377
                 2.797    0.28490261071525
                0.5215   0.015194859206082
 s    8 1.00
                  6665  -0.00029326965268655
                  1000  -0.0023180354739745
                   228  -0.011499786038565
                 64.71  -0.046826727009787
                 21.06   -0.12846616875047
                 7.495   -0.30126627246289
                 2.797   -0.25563070233011
                0.5215      1.093793361012
 s    1 1.00
                0.1596                   1
 p    3 1.00
                 9.439   0.056979251590039
                 2.002    0.31320721150073
                0.5456    0.76037674173753
 p    1 1.00
                0.1517                   1
 d    1 1.00
                  0.55                   1

29 0
 s    3 1.00
                 13.01   0.033498726389998
                 1.962    0.23480080117413
                0.4446     0.8136829578829
 s    1 1.00
                 0.122                   1
 p    1 1.00
                 0.727                   1

30 0
 s    3 1.00
                 13.01   0.033498726389998
                 1.962    0.23480080117413
                0.4446     0.8136829578829
 s    1 1.00
                 0.122                   1
 p    1 1.00
                 0.727                   1

31 0
 s    8 1.00
                  6665  0.00069158396281299
                  1000  0.0053257961529341
                   228   0.027060721042034
                 64.71    0.10165684614077
                 21.06     0.2745748236174
                 7.495    0.44829431892377
                 2.797    0.28490261071525
                0.5215   0.015194859206082
 s    8 1.00
                  6665  -0.00029326965268655
                  1000  -0.0023180354739745
                   228  -0.011499786038565
                 64.71  -0.046826727009787
                 21.06   -0.12846616875047
                 7.495   -0.30126627246289
                 2.797   -0.25563070233011
                0.5215      1.093793361012
 s    1 1.00
                0.1596                   1
 p    3 1.00
                 9.439   0.056979251590039
                 2.002    0.31320721150073
                0.5456    0.76037674173753
 p    1 1.00
                0.1517                   1
 d    1 1.00
                  0.55                   1

32 0
 s    3 1.00
                 13.01   0.033498726389998
                 1.962    0.23480080117413
                0.4446     0.8136829578829
 s    1 1.00
                 0.122                   1
 p    1 1.00
                 0.727                   1

33 0
 s    3 1.00
                 13.01   0.033498726389998
                 1.962    0.23480080117413
                0.4446     0.8136829578829
 s    1 1.00
                 0.122                   1
 p    1 1.00
                 0.727                   1

34 0
 s    3 1.00
                 13.01   0.033498726389998
                 1.962    0.23480080117413
                0.4446     0.8136829578829
 s    1 1.00
                 0.122                   1
 p    1 1.00
                 0.727                   1

35 0
 s    3 1.00
                 13.01   0.033498726389998
                 1.962    0.23480080117413
                0.4446     0.8136829578829
 s    1 1.00
                 0.122                   1
 p    1 1.00
                 0.727                   1

36 0
 s    3 1.00
                 13.01   0.033498726389998
                 1.962    0.23480080117413
                0.4446     0.8136829578829
 s    1 1.00
                 0.122                   1
 p    1 1.00
                 0.727                   1

37 0
 s    3 1.00
                 13.01   0.033498726389998
                 1.962    0.23480080117413
                0.4446     0.8136829578829
 s    1 1.00
                 0.122                   1
 p    1 1.00
                 0.727                   1

[5d]
[7f]
[9g]

[MO]
 Sym= A
 Ene=               0
 Spin= Alpha
 Occup=    1.00000
   1    -7.0573167813339e-05
   2    -5.1295990626196e-05
   3    0.00013364185180117
   4    1.5333237311555e-07
   5    5.6880209297379e-06
   6    1.3731251530768e-05
   7    2.2339103209505e-07
   8    -2.520726159427e-05
   9    -6.3793677165029e-05
  10    3.4803117903514e-06
  11    -1.5684148512335e-07
  12    1.0939728749906e-06
  13     8.82611165925e-07
  14    1.7448119234645e-08
  15    -3.5596924563456e-05
  16    -0.00022294332777718
  17    -5.9799908640381e-07
  18    2.5239934156917e-06
  19    2.3091309729172e-05
  20    -3.2085324996592e-06
  21    6.118883364362e-05
  22    1.4603683978419e-07
  23    -1.0164838971041e-06
  24    -2.6583104254975e-06
  25       1.0013822151265
  26    0.0019985877702674
  27    -0.0069651697138653
  28    -4.966716645715e-06
  29    1.1099403424011e-05
  30    -0.0016351357694681
  31    6.2696926727086e-07
  32    -3.8763817878478e-06
  33    0.0019726870092654
  34    0.00010809754147884
  35    -2.8093353227292e-06
  36    1.5360085901308e-06
  37    6.6264859513367e-05
  38    -0.00017245285488707
  39    0.00029123406949051
  40    0.00040937196012773
  41    0.0015571769543881
  42    1.6332403036975e-05
  43    -1.036920339908e-05
  44    2.8183300539948e-05
  45    7.9798055025943e-05
  46    -6.3913536526366e-05
  47    0.0036911925338474
  48    -0.00050178370218166
  49    -7.9706693113515e-06
  50    2.4795948497868e-06
  51    3.0427694911784e-05
  52    -0.00011174393305659
  53    -8.426130080916e-05
  54    -0.00016474774488921
  55    0.0013912560420774
  56    7.8279640150903e-05
  57    -6.9468110457781e-06
  58    -3.3840654307242e-05
  59    -0.00042941513164161
  60    0.0004839974341357
  61    -0.00097799801954512
  62    -0.00011575404163805
  63    0.00014964895890318
  64    -0.00014334071558452
  65    5.4117929876971e-05
  66    -0.00012658714366536
  67    -3.7863296826784e-05
  68    -9.4815321346608e-05
  69    0.00051281099894699
  70    -6.0852839083056e-05
  71    4.0744382596571e-05
  72    -5.9054339796561e-05
  73    0.0010154222295229
  74    -0.0007801792698443
  75    -0.00066723187124221
  76    -0.00013838284256508
  77    -0.00012187088326192
  78    8.9909561490327e-05
  79    5.7893346921581e-05
  80    -0.00014867868052402
  81    -5.9081586715818e-05
  82    0.00021814945348461
  83    6.7025494402463e-05
  84    -4.923594427121e-05
  85    4.7034648261975e-05
  86    2.5061182825832e-05
  87    4.9224517152822e-05
  88    -0.00062355620078375
  89    -1.5487124374715e-05
  90    -1.7555582591243e-05
  91    1.1078582411607e-05
  92    0.00026280715397237
  93    0.00065103985612212
  94    -1.202230438281e-05
  95    1.9062675535453e-05
  96    1.1595942654153e-05
  97    8.1208343176039e-06
  98    -1.9329452889624e-05
  99    -4.8671553775803e-05
 100    -4.1160444028625e-05
 101    -0.00016583066829947
 102    6.3433726296467e-06
 103    -1.0776408163124e-05
 104    7.7427146561584e-05
 105    -2.0391349513204e-05
 106    -0.00020588708863174
 107    -6.3835222242321e-05
 108    7.7519093839215e-06
 109    7.6544932359796e-05
 110    7.8249135239784e-05
 111    -6.5455254817534e-05
 112    -4.380062352881e-05
 113    2.0302386451615e-05
 114    7.1691306909304e-05
 115    -5.5543835338809e-05
 116    -0.00011175525750171
 117    0.00084329430482055
 118    -1.0928922432434e-05
 119    -2.2757767849677e-05
 120    4.3504538539785e-05
 121    0.00029345515142329
 122    3.1315972698735e-05
 123    -0.00014964623314926
 124    -5.4712725830879e-06
 125    1.3113092461692e-05
 126    1.4138364993598e-05
 127    -3.1627586832005e-05
 128    5.0772812252028e-05
 129    -2.0022756911183e-05
 130    -0.0003374786636357
 131    8.1348462863984e-06
 132    5.9799405549559e-06
 133    2.9686936110638e-05
 134    2.5621589889319e-05
 135    -0.00011751923911563
 136    -1.3839388052139e-05
 137    -2.5306339995781e-05
 138    -2.751213930553e-05
 139    -2.2182823531811e-05
 140    -4.0443993209824e-05
 141    0.00030455110797105
 142    7.3991355708034e-06
 143    -3.3497513787851e-06
 144    -5.7277167948218e-06
 145    -0.00023232935232769
 146    5.9052339751523e-05
 147    6.0577305224334e-05
 148    -2.6387816715382e-06
 149    3.1510553119563e-06
 150    -4.4509665201353e-06
 151    1.2839725456761e-05
 152    -4.724028016851e-06
 153    -9.5125428689461e-05
 154    -9.0602279598014e-05
 155    -2.6217098041692e-05
 156    2.7624176177262e-05
 157    1.9867376731519e-05
 158    -2.4903651791401e-05
 159    -8.3710248127189e-05
 160    -5.8486323591553e-05
 161    -7.7624499276263e-06
 162    7.4090127239659e-06
 163    0.00010398476889542
 164    0.00010097497820437
 165    -0.00020182375599986
 166    -7.0107644529553e-05
 167    3.0218547894864e-05
 168    -5.4264785495241e-05
 169    0.00020698001491347
 170    -0.0002010460161673
 171    -0.00017021465786088
 172    -1.2757741469846e-06
 173    6.8595340533536e-06
 174    -9.827127356835e-06
 175    2.7280942789555e-06
 176    -1.4970787881637e-05
 177    -1.6927721549699e-05
 178    8.5709506442835e-05
 179    -1.1967976429091e-06
 180    1.6076686568883e-06
 181    -4.6608741514583e-06
 182    2.044003725472e-05
 183    3.1910521375693e-05
 184    -7.526628056854e-05
 185    1.0310258911939e-06
 186    2.2854563503295e-06
 187    4.8143023546165e-06
 188    0.00013391081615687
 189    -0.00010322641619627
 190    -9.1289369641418e-05
 191    1.070738741285e-06
 192    2.0267489909597e-06
 193    -7.2416084988522e-06
 194    -3.0577516359453e-06
 195    -5.8541059600111e-06
 196    -1.3093261978488e-05
 197    -1.9151501256978e-05
 198    5.6538965988147e-06
 199    1.9300599631117e-06
 200    -3.2211668480468e-06
 201    8.8385074184445e-05
 202    3.0115560560829e-05
 203    -1.035099257236e-05
 204    1.663196293163e-05
 205    1.8362118794815e-05
 206    7.5175512426415e-05
 207    8.2335335251085e-05
 208    -2.0766818630745e-05
 209    -2.4018030058906e-06
 210    1.7553300098784e-05
 211    -8.0750824427775e-06
 212    -4.7926056882676e-06
 213    0.00028572834918751
 214    4.0618740397905e-05
 215    -2.7916836701633e-05
 216    -2.3349998625298e-05
 217    0.0002097902769641
 218    -6.3512554764468e-05
 219    -8.6376077783757e-05
 220    -2.2976141104742e-07
 221    -2.3564946326952e-05
 222    8.8143973575519e-06
 223    1.0625864360875e-05
 224    -2.8825180329427e-06
 225    2.8866782415338e-05
 226    5.7400730758167e-05
 227    -1.2550017420595e-05
 228    -2.3731660295626e-06
 229    -1.0952593568931e-06
 230    8.2794591254351e-06
 231    5.3120621207236e-05
 232    -4.0244693219715e-06
 233    6.5181524258867e-06
 234    1.2128005867135e-05
 235    7.0000177599006e-07
 236    4.2225113550194e-06
 237    -7.7384921190154e-05
 238    -2.6824897236757e-06
 239    3.0226337297533e-06
 240    -1.4488612532189e-06
 241    3.430302952822e-05
 242    -6.3504940197829e-05
 243    1.9263891413558e-05
 244    1.9258232677197e-06
 245    1.6665134709259e-06
 246    -1.5159891409915e-06
 247    1.4950285649378e-07
 248    6.820201295485e-07
 249    -1.4432934153119e-05
 250    1.1890200390242e-05
 251    -3.9037068389042e-06
 252    -1.9546963010275e-06
 253    -5.3906109515247e-07
 254    -3.9552398562934e-06
 255    5.8739309579903e-05
 256    1.6936772800354e-06
 257    5.1427417780047e-06
 258    -1.621492582036e-06
 259    -8.8194053272056e-06
 260    -2.7914990303099e-05
 261    5.7021527955076e-05
 262    -1.8271634811386e-05