[Molden Format]
made by pyscf v[2.0.1]
[Atoms] (AU)
O   1   8     0.00000000000000     0.00000000000000    10.18586013564153
H   2   1     0.00000000000000     0.00000000000000     8.36245831374057
H   3   1    -0.05031916615174     1.78353065140343    10.56173183210820
O   4   8     0.00000000000000     0.00000000000000     2.31533471513237
C   5   6     0.00000000000000     0.00000000000000     0.00000000000000
C   6   6     2.01118073026938    -1.40227222164369    -1.50774939176400
C   7   6    -2.01249334291722     1.41331050329955    -1.50315905028694
H   8   1     3.32037363730244    -2.26721897153159    -0.13599698591495
C   9   6     3.45899267434009     0.28739631745591    -3.37437943254505
H   10   1     1.07662969841332    -2.94725144642667    -2.56541439481080
H   11   1    -2.67503415753480     0.18421555839588    -3.06194479365997
H   12   1    -1.07974048864772     3.03851734677796    -2.43674295017013
C   13   6    -4.21607110578555     2.32938802552922     0.11994162256091
H   14   1     4.24440173074564     1.93368664142019    -2.34976285512790
H   15   1     2.15020713235517     1.04714335134846    -4.81494497423699
C   16   6     5.60746363007797    -1.12419643481196    -4.70268606082550
H   17   1    -3.46838323670267     3.50951302338067     1.66946842715333
H   18   1    -5.11873485366228     0.68575958301209     1.04047743976495
C   19   6    -6.18314754751344     3.80909592987882    -1.39656589068747
H   20   1     6.93011263717176    -1.87550812453645    -3.26656317360070
C   21   6     7.06356622236532     0.52877932406334    -6.57829775293605
H   22   1     4.82318879258361    -2.78573437948532    -5.70504560381835
H   23   1    -6.91582688743803     2.61304780074712    -2.95074552451969
H   24   1    -5.26532430573853     5.45420349051338    -2.31005832200284
C   25   6    -8.39941882261433     4.73263980500213     0.21800571437956
H   26   1     7.83338371486801     2.19084139882824    -5.57093109900697
H   27   1     5.73544244039420     1.27376866537418    -8.01071492370229
C   28   6     9.21124858443101    -0.89699110072176    -7.88926949186242
H   29   1    -7.66272760055236     5.92277078003992     1.77035591474408
H   30   1    -9.31497248082589     3.08753015622020     1.12614408368786
C   31   6   -10.35481709231879     6.21833079391143    -1.30905206253246
H   32   1    10.58815905329501    -1.61074586756696    -6.49512691622620
H   33   1    10.23506248045667     0.32468009384095    -9.23072870921204
H   34   1     8.47665842847139    -2.53598436989925    -8.94921964622535
H   35   1    -9.48948872868064     7.90013588951020    -2.18823918416067
H   36   1   -11.93332513000955     6.86460487874102    -0.11255798845995
H   37   1   -11.15126291841033     5.04495968327630    -2.83849898862534
[GTO]
1 0
 s    8 1.00
                 11720  0.00070964594651845
                  1759  0.0054672722921914
                 400.8   0.027823118610189
                 113.7    0.10474773971146
                 37.03    0.28292084635691
                 13.27    0.44849523869833
                 5.025    0.27081688521277
                 1.013    0.01545029160744
 s    8 1.00
                 11720  -0.00031444341168873
                  1759  -0.0024821376810179
                 400.8  -0.012316355381583
                 113.7  -0.050538917343672
                 37.03   -0.13938490331632
                 13.27   -0.32507749481778
                 5.025   -0.22984830758785
                 1.013     1.0953793467883
 s    1 1.00
                0.3023                   1
 p    3 1.00
                  17.7   0.062679166281506
                 3.854    0.33353656587936
                 1.046    0.74123964163973
 p    1 1.00
                0.2753                   1
 d    1 1.00
                 1.185                   1

2 0
 s    3 1.00
                 13.01   0.033498726389998
                 1.962    0.23480080117413
                0.4446     0.8136829578829
 s    1 1.00
                 0.122                   1
 p    1 1.00
                 0.727                   1

3 0
 s    3 1.00
                 13.01   0.033498726389998
                 1.962    0.23480080117413
                0.4446     0.8136829578829
 s    1 1.00
                 0.122                   1
 p    1 1.00
                 0.727                   1

4 0
 s    8 1.00
                 11720  0.00070964594651845
                  1759  0.0054672722921914
                 400.8   0.027823118610189
                 113.7    0.10474773971146
                 37.03    0.28292084635691
                 13.27    0.44849523869833
                 5.025    0.27081688521277
                 1.013    0.01545029160744
 s    8 1.00
                 11720  -0.00031444341168873
                  1759  -0.0024821376810179
                 400.8  -0.012316355381583
                 113.7  -0.050538917343672
                 37.03   -0.13938490331632
                 13.27   -0.32507749481778
                 5.025   -0.22984830758785
                 1.013     1.0953793467883
 s    1 1.00
                0.3023                   1
 p    3 1.00
                  17.7   0.062679166281506
                 3.854    0.33353656587936
                 1.046    0.74123964163973
 p    1 1.00
                0.2753                   1
 d    1 1.00
                 1.185                   1

5 0
 s    8 1.00
                  6665  0.00069158396281299
                  1000  0.0053257961529341
                   228   0.027060721042034
                 64.71    0.10165684614077
                 21.06     0.2745748236174
                 7.495    0.44829431892377
                 2.797    0.28490261071525
                0.5215   0.015194859206082
 s    8 1.00
                  6665  -0.00029326965268655
                  1000  -0.0023180354739745
                   228  -0.011499786038565
                 64.71  -0.046826727009787
                 21.06   -0.12846616875047
                 7.495   -0.30126627246289
                 2.797   -0.25563070233011
                0.5215      1.093793361012
 s    1 1.00
                0.1596                   1
 p    3 1.00
                 9.439   0.056979251590039
                 2.002    0.31320721150073
                0.5456    0.76037674173753
 p    1 1.00
                0.1517                   1
 d    1 1.00
                  0.55                   1

6 0
 s    8 1.00
                  6665  0.00069158396281299
                  1000  0.0053257961529341
                   228   0.027060721042034
                 64.71    0.10165684614077
                 21.06     0.2745748236174
                 7.495    0.44829431892377
                 2.797    0.28490261071525
                0.5215   0.015194859206082
 s    8 1.00
                  6665  -0.00029326965268655
                  1000  -0.0023180354739745
                   228  -0.011499786038565
                 64.71  -0.046826727009787
                 21.06   -0.12846616875047
                 7.495   -0.30126627246289
                 2.797   -0.25563070233011
                0.5215      1.093793361012
 s    1 1.00
                0.1596                   1
 p    3 1.00
                 9.439   0.056979251590039
                 2.002    0.31320721150073
                0.5456    0.76037674173753
 p    1 1.00
                0.1517                   1
 d    1 1.00
                  0.55                   1

7 0
 s    8 1.00
                  6665  0.00069158396281299
                  1000  0.0053257961529341
                   228   0.027060721042034
                 64.71    0.10165684614077
                 21.06     0.2745748236174
                 7.495    0.44829431892377
                 2.797    0.28490261071525
                0.5215   0.015194859206082
 s    8 1.00
                  6665  -0.00029326965268655
                  1000  -0.0023180354739745
                   228  -0.011499786038565
                 64.71  -0.046826727009787
                 21.06   -0.12846616875047
                 7.495   -0.30126627246289
                 2.797   -0.25563070233011
                0.5215      1.093793361012
 s    1 1.00
                0.1596                   1
 p    3 1.00
                 9.439   0.056979251590039
                 2.002    0.31320721150073
                0.5456    0.76037674173753
 p    1 1.00
                0.1517                   1
 d    1 1.00
                  0.55                   1

8 0
 s    3 1.00
                 13.01   0.033498726389998
                 1.962    0.23480080117413
                0.4446     0.8136829578829
 s    1 1.00
                 0.122                   1
 p    1 1.00
                 0.727                   1

9 0
 s    8 1.00
                  6665  0.00069158396281299
                  1000  0.0053257961529341
                   228   0.027060721042034
                 64.71    0.10165684614077
                 21.06     0.2745748236174
                 7.495    0.44829431892377
                 2.797    0.28490261071525
                0.5215   0.015194859206082
 s    8 1.00
                  6665  -0.00029326965268655
                  1000  -0.0023180354739745
                   228  -0.011499786038565
                 64.71  -0.046826727009787
                 21.06   -0.12846616875047
                 7.495   -0.30126627246289
                 2.797   -0.25563070233011
                0.5215      1.093793361012
 s    1 1.00
                0.1596                   1
 p    3 1.00
                 9.439   0.056979251590039
                 2.002    0.31320721150073
                0.5456    0.76037674173753
 p    1 1.00
                0.1517                   1
 d    1 1.00
                  0.55                   1

10 0
 s    3 1.00
                 13.01   0.033498726389998
                 1.962    0.23480080117413
                0.4446     0.8136829578829
 s    1 1.00
                 0.122                   1
 p    1 1.00
                 0.727                   1

11 0
 s    3 1.00
                 13.01   0.033498726389998
                 1.962    0.23480080117413
                0.4446     0.8136829578829
 s    1 1.00
                 0.122                   1
 p    1 1.00
                 0.727                   1

12 0
 s    3 1.00
                 13.01   0.033498726389998
                 1.962    0.23480080117413
                0.4446     0.8136829578829
 s    1 1.00
                 0.122                   1
 p    1 1.00
                 0.727                   1

13 0
 s    8 1.00
                  6665  0.00069158396281299
                  1000  0.0053257961529341
                   228   0.027060721042034
                 64.71    0.10165684614077
                 21.06     0.2745748236174
                 7.495    0.44829431892377
                 2.797    0.28490261071525
                0.5215   0.015194859206082
 s    8 1.00
                  6665  -0.00029326965268655
                  1000  -0.0023180354739745
                   228  -0.011499786038565
                 64.71  -0.046826727009787
                 21.06   -0.12846616875047
                 7.495   -0.30126627246289
                 2.797   -0.25563070233011
                0.5215      1.093793361012
 s    1 1.00
                0.1596                   1
 p    3 1.00
                 9.439   0.056979251590039
                 2.002    0.31320721150073
                0.5456    0.76037674173753
 p    1 1.00
                0.1517                   1
 d    1 1.00
                  0.55                   1

14 0
 s    3 1.00
                 13.01   0.033498726389998
                 1.962    0.23480080117413
                0.4446     0.8136829578829
 s    1 1.00
                 0.122                   1
 p    1 1.00
                 0.727                   1

15 0
 s    3 1.00
                 13.01   0.033498726389998
                 1.962    0.23480080117413
                0.4446     0.8136829578829
 s    1 1.00
                 0.122                   1
 p    1 1.00
                 0.727                   1

16 0
 s    8 1.00
                  6665  0.00069158396281299
                  1000  0.0053257961529341
                   228   0.027060721042034
                 64.71    0.10165684614077
                 21.06     0.2745748236174
                 7.495    0.44829431892377
                 2.797    0.28490261071525
                0.5215   0.015194859206082
 s    8 1.00
                  6665  -0.00029326965268655
                  1000  -0.0023180354739745
                   228  -0.011499786038565
                 64.71  -0.046826727009787
                 21.06   -0.12846616875047
                 7.495   -0.30126627246289
                 2.797   -0.25563070233011
                0.5215      1.093793361012
 s    1 1.00
                0.1596                   1
 p    3 1.00
                 9.439   0.056979251590039
                 2.002    0.31320721150073
                0.5456    0.76037674173753
 p    1 1.00
                0.1517                   1
 d    1 1.00
                  0.55                   1

17 0
 s    3 1.00
                 13.01   0.033498726389998
                 1.962    0.23480080117413
                0.4446     0.8136829578829
 s    1 1.00
                 0.122                   1
 p    1 1.00
                 0.727                   1

18 0
 s    3 1.00
                 13.01   0.033498726389998
                 1.962    0.23480080117413
                0.4446     0.8136829578829
 s    1 1.00
                 0.122                   1
 p    1 1.00
                 0.727                   1

19 0
 s    8 1.00
                  6665  0.00069158396281299
                  1000  0.0053257961529341
                   228   0.027060721042034
                 64.71    0.10165684614077
                 21.06     0.2745748236174
                 7.495    0.44829431892377
                 2.797    0.28490261071525
                0.5215   0.015194859206082
 s    8 1.00
                  6665  -0.00029326965268655
                  1000  -0.0023180354739745
                   228  -0.011499786038565
                 64.71  -0.046826727009787
                 21.06   -0.12846616875047
                 7.495   -0.30126627246289
                 2.797   -0.25563070233011
                0.5215      1.093793361012
 s    1 1.00
                0.1596                   1
 p    3 1.00
                 9.439   0.056979251590039
                 2.002    0.31320721150073
                0.5456    0.76037674173753
 p    1 1.00
                0.1517                   1
 d    1 1.00
                  0.55                   1

20 0
 s    3 1.00
                 13.01   0.033498726389998
                 1.962    0.23480080117413
                0.4446     0.8136829578829
 s    1 1.00
                 0.122                   1
 p    1 1.00
                 0.727                   1

21 0
 s    8 1.00
                  6665  0.00069158396281299
                  1000  0.0053257961529341
                   228   0.027060721042034
                 64.71    0.10165684614077
                 21.06     0.2745748236174
                 7.495    0.44829431892377
                 2.797    0.28490261071525
                0.5215   0.015194859206082
 s    8 1.00
                  6665  -0.00029326965268655
                  1000  -0.0023180354739745
                   228  -0.011499786038565
                 64.71  -0.046826727009787
                 21.06   -0.12846616875047
                 7.495   -0.30126627246289
                 2.797   -0.25563070233011
                0.5215      1.093793361012
 s    1 1.00
                0.1596                   1
 p    3 1.00
                 9.439   0.056979251590039
                 2.002    0.31320721150073
                0.5456    0.76037674173753
 p    1 1.00
                0.1517                   1
 d    1 1.00
                  0.55                   1

22 0
 s    3 1.00
                 13.01   0.033498726389998
                 1.962    0.23480080117413
                0.4446     0.8136829578829
 s    1 1.00
                 0.122                   1
 p    1 1.00
                 0.727                   1

23 0
 s    3 1.00
                 13.01   0.033498726389998
                 1.962    0.23480080117413
                0.4446     0.8136829578829
 s    1 1.00
                 0.122                   1
 p    1 1.00
                 0.727                   1

24 0
 s    3 1.00
                 13.01   0.033498726389998
                 1.962    0.23480080117413
                0.4446     0.8136829578829
 s    1 1.00
                 0.122                   1
 p    1 1.00
                 0.727                   1

25 0
 s    8 1.00
                  6665  0.00069158396281299
                  1000  0.0053257961529341
                   228   0.027060721042034
                 64.71    0.10165684614077
                 21.06     0.2745748236174
                 7.495    0.44829431892377
                 2.797    0.28490261071525
                0.5215   0.015194859206082
 s    8 1.00
                  6665  -0.00029326965268655
                  1000  -0.0023180354739745
                   228  -0.011499786038565
                 64.71  -0.046826727009787
                 21.06   -0.12846616875047
                 7.495   -0.30126627246289
                 2.797   -0.25563070233011
                0.5215      1.093793361012
 s    1 1.00
                0.1596                   1
 p    3 1.00
                 9.439   0.056979251590039
                 2.002    0.31320721150073
                0.5456    0.76037674173753
 p    1 1.00
                0.1517                   1
 d    1 1.00
                  0.55                   1

26 0
 s    3 1.00
                 13.01   0.033498726389998
                 1.962    0.23480080117413
                0.4446     0.8136829578829
 s    1 1.00
                 0.122                   1
 p    1 1.00
                 0.727                   1

27 0
 s    3 1.00
                 13.01   0.033498726389998
                 1.962    0.23480080117413
                0.4446     0.8136829578829
 s    1 1.00
                 0.122                   1
 p    1 1.00
                 0.727                   1

28 0
 s    8 1.00
                  6665  0.00069158396281299
                  1000  0.0053257961529341
                   228   0.027060721042034
                 64.71    0.10165684614077
                 21.06     0.2745748236174
                 7.495    0.44829431892377
                 2.797    0.28490261071525
                0.5215   0.015194859206082
 s    8 1.00
                  6665  -0.00029326965268655
                  1000  -0.0023180354739745
                   228  -0.011499786038565
                 64.71  -0.046826727009787
                 21.06   -0.12846616875047
                 7.495   -0.30126627246289
                 2.797   -0.25563070233011
                0.5215      1.093793361012
 s    1 1.00
                0.1596                   1
 p    3 1.00
                 9.439   0.056979251590039
                 2.002    0.31320721150073
                0.5456    0.76037674173753
 p    1 1.00
                0.1517                   1
 d    1 1.00
                  0.55                   1

29 0
 s    3 1.00
                 13.01   0.033498726389998
                 1.962    0.23480080117413
                0.4446     0.8136829578829
 s    1 1.00
                 0.122                   1
 p    1 1.00
                 0.727                   1

30 0
 s    3 1.00
                 13.01   0.033498726389998
                 1.962    0.23480080117413
                0.4446     0.8136829578829
 s    1 1.00
                 0.122                   1
 p    1 1.00
                 0.727                   1

31 0
 s    8 1.00
                  6665  0.00069158396281299
                  1000  0.0053257961529341
                   228   0.027060721042034
                 64.71    0.10165684614077
                 21.06     0.2745748236174
                 7.495    0.44829431892377
                 2.797    0.28490261071525
                0.5215   0.015194859206082
 s    8 1.00
                  6665  -0.00029326965268655
                  1000  -0.0023180354739745
                   228  -0.011499786038565
                 64.71  -0.046826727009787
                 21.06   -0.12846616875047
                 7.495   -0.30126627246289
                 2.797   -0.25563070233011
                0.5215      1.093793361012
 s    1 1.00
                0.1596                   1
 p    3 1.00
                 9.439   0.056979251590039
                 2.002    0.31320721150073
                0.5456    0.76037674173753
 p    1 1.00
                0.1517                   1
 d    1 1.00
                  0.55                   1

32 0
 s    3 1.00
                 13.01   0.033498726389998
                 1.962    0.23480080117413
                0.4446     0.8136829578829
 s    1 1.00
                 0.122                   1
 p    1 1.00
                 0.727                   1

33 0
 s    3 1.00
                 13.01   0.033498726389998
                 1.962    0.23480080117413
                0.4446     0.8136829578829
 s    1 1.00
                 0.122                   1
 p    1 1.00
                 0.727                   1

34 0
 s    3 1.00
                 13.01   0.033498726389998
                 1.962    0.23480080117413
                0.4446     0.8136829578829
 s    1 1.00
                 0.122                   1
 p    1 1.00
                 0.727                   1

35 0
 s    3 1.00
                 13.01   0.033498726389998
                 1.962    0.23480080117413
                0.4446     0.8136829578829
 s    1 1.00
                 0.122                   1
 p    1 1.00
                 0.727                   1

36 0
 s    3 1.00
                 13.01   0.033498726389998
                 1.962    0.23480080117413
                0.4446     0.8136829578829
 s    1 1.00
                 0.122                   1
 p    1 1.00
                 0.727                   1

37 0
 s    3 1.00
                 13.01   0.033498726389998
                 1.962    0.23480080117413
                0.4446     0.8136829578829
 s    1 1.00
                 0.122                   1
 p    1 1.00
                 0.727                   1

[5d]
[7f]
[9g]

[MO]
 Sym= A
 Ene=               0
 Spin= Alpha
 Occup=    1.00000
   1    -4.407843479481e-05
   2    -2.8221327506345e-05
   3    0.00010121730503187
   4    -7.9701776901497e-08
   5    3.9411996194507e-06
   6    1.4591302064077e-06
   7    5.4156837198067e-07
   8    -2.0628988364899e-05
   9    -7.1828506767421e-05
  10    1.2419418801623e-05
  11    8.8108120155251e-09
  12    -8.1768951265869e-07
  13    5.1584390123781e-07
  14    2.5485862255091e-08
  15    -1.3235693434024e-05
  16    -0.00014652509078896
  17    -8.9679489276713e-08
  18    1.315743075371e-06
  19    -3.5688006767004e-05
  20    -6.2886025888005e-06
  21    5.6774278071245e-05
  22    1.7502594859055e-07
  23    -5.7425575081309e-06
  24    2.2695888908341e-06
  25       1.0013631311278
  26    0.0019541492754545
  27    -0.0068015460578062
  28    -4.4197952205534e-06
  29    7.9797892342077e-06
  30    -0.0016545230500485
  31    6.8028479771985e-07
  32    -2.1646330056349e-06
  33    0.0018358474780172
  34    0.00012561287905368
  35    -2.9919351396019e-06
  36    1.3793497197338e-06
  37    6.7499169803371e-05
  38    -0.00017576131611523
  39    0.00027471732526871
  40    0.00037408302650254
  41    0.0014264478097843
  42    1.5339776224063e-05
  43    -1.0292684658693e-05
  44    -7.1848125594261e-06
  45    7.7873428251604e-05
  46    -6.099396656615e-05
  47     0.003557519507507
  48    -0.000533149965913
  49    -8.2311959820063e-06
  50    2.2767542645611e-06
  51    2.9014696488831e-05
  52    -0.00010803263165157
  53    -8.4999595379232e-05
  54    -0.00016609855518698
  55    0.0013731066536705
  56    7.7713693291782e-05
  57    -7.1730656545791e-06
  58    -3.5616584879967e-05
  59    -0.00042463677452816
  60    0.00047788310373742
  61    -0.0009283742533674
  62    -0.00011744688313224
  63    0.0001499845062295
  64    -0.00014283351488645
  65    5.504908635453e-05
  66    -0.00012981363891006
  67    -3.9749640518654e-05
  68    -9.8167354649436e-05
  69    0.00050387109728386
  70    -5.9577127587589e-05
  71    3.936203183617e-05
  72    -5.9890937955939e-05
  73    0.00099756207542945
  74    -0.00076764526929727
  75    -0.00064087522068175
  76    -0.00014013011245846
  77    -0.00012118509138991
  78    8.9789432629005e-05
  79    5.8607599092616e-05
  80    -0.00015093260784313
  81    -6.452358429327e-05
  82    0.00020752274887808
  83    6.5988775767523e-05
  84    -4.8497775739493e-05
  85    4.8862155308889e-05
  86    2.5040116207378e-05
  87    4.9235869944004e-05
  88    -0.00060554873098944
  89    -1.5721574830158e-05
  90    -1.7378290792167e-05
  91    1.1931397498379e-05
  92    0.00025685705853181
  93    0.00062634888021738
  94    -1.9060588794224e-05
  95    1.8109475623076e-05
  96    1.1229503666739e-05
  97    7.3228568713239e-06
  98    -2.0551670084956e-05
  99    -4.585210078309e-05
 100    -3.7430013280669e-05
 101    -0.00015846910933586
 102    9.0818010246337e-06
 103    -9.8833981879485e-06
 104    7.4592223229019e-05
 105    -1.8732645784239e-05
 106    -0.00019960315592089
 107    -6.4371017565644e-05
 108    1.0683579836668e-05
 109    7.4695439266625e-05
 110    7.7282777737216e-05
 111    -5.8387598298369e-05
 112    -4.5125352835679e-05
 113    1.8675931241738e-05
 114    6.9808082508835e-05
 115    -5.7026015634587e-05
 116    -0.00011453466375873
 117    0.00082951357402541
 118    -1.2376648087847e-05
 119    -2.165162800277e-05
 120    4.4186781231554e-05
 121    0.0003038176934697
 122    2.3715552983395e-05
 123    -0.00013186534277206
 124    -5.8375177355643e-06
 125    1.4663742127357e-05
 126    1.4825692540011e-05
 127    -3.1437955401827e-05
 128    4.9543914321369e-05
 129    -1.904057011689e-05
 130    -0.00032273721916451
 131    7.5650670415056e-06
 132    5.8524105656995e-06
 133    2.9225691695041e-05
 134    2.5842849640016e-05
 135    -0.0001186423913361
 136    -1.3492822619352e-05
 137    -2.4164746796874e-05
 138    -2.6643750329877e-05
 139    -2.1384309424606e-05
 140    -3.9010701316342e-05
 141    0.00028739883790094
 142    7.5524692306372e-06
 143    -2.9267299104457e-06
 144    -5.8252240684852e-06
 145    -0.00023036780070275
 146    5.2045916567929e-05
 147    6.4695058327933e-05
 148    -2.4590347395043e-06
 149    2.9012662982811e-06
 150    -3.459118973163e-06
 151    1.2116086339258e-05
 152    -4.8735351436927e-06
 153    -9.4037032836002e-05
 154    -0.00010415157514071
 155    -2.5489614122233e-05
 156    2.9232966340043e-05
 157    2.0804704576471e-05
 158    -2.4488556135649e-05
 159    -8.6540712206504e-05
 160    -5.8673077796049e-05
 161    -7.4905992847207e-06
 162    6.9068950726516e-06
 163    0.00010454504087655
 164    9.9857211323211e-05
 165    -0.00017987062389805
 166    -7.0038750172031e-05
 167    3.0179286705851e-05
 168    -5.6311303514373e-05
 169    0.00021043126331842
 170    -0.00020369545620083
 171    -0.0001634190263244
 172    -1.7063573535906e-06
 173    6.8468222128082e-06
 174    -9.8083278192281e-06
 175    2.8677456381444e-06
 176    -1.5168663264489e-05
 177    -1.6411778503823e-05
 178    8.3028605784087e-05
 179    -8.1515611816779e-07
 180    1.9268831722661e-06
 181    -4.9251568257342e-06
 182    1.9652629767002e-05
 183    3.0492127693126e-05
 184    -6.3541947843009e-05
 185    9.186083515307e-07
 186    2.1616075380873e-06
 187    4.9778107909598e-06
 188    0.00012967605816124
 189    -0.00010322618746512
 190    -8.5308580066419e-05
 191    1.1288222494588e-06
 192    1.734108768081e-06
 193    -7.2972646891051e-06
 194    -3.1106903645532e-06
 195    -5.3574691314657e-06
 196    -1.3604511287707e-05
 197    -1.8275412672611e-05
 198    5.6328300963728e-06
 199    1.9584356949699e-06
 200    -3.5423432830505e-06
 201    8.9911886742645e-05
 202    3.2616050901189e-05
 203    -9.915757583511e-06
 204    1.6929333791365e-05
 205    1.8470305460041e-05
 206    7.5950302877058e-05
 207    8.2225466519004e-05
 208    -2.0961474764645e-05
 209    -2.4846629426109e-06
 210     1.72275946616e-05
 211    -7.0506241184182e-06
 212    -3.8231976190692e-06
 213    0.00027390125019698
 214    3.938580777465e-05
 215    -2.8040737106655e-05
 216    -2.3808089334471e-05
 217    0.00021080317943206
 218    -6.5435631597508e-05
 219    -8.386060552097e-05
 220    -1.2712538775094e-07
 221    -2.3737758956653e-05
 222    8.8140812986757e-06
 223    1.0469422989069e-05
 224    -2.7884250616312e-06
 225    2.7975375907387e-05
 226    5.514089848892e-05
 227    -1.2234248249379e-05
 228    -2.1529008635362e-06
 229    -1.1242352748668e-06
 230    7.9085831854483e-06
 231    5.3038101650175e-05
 232    -3.8777242884715e-06
 233    6.333878164548e-06
 234    1.1926236746939e-05
 235    6.2420040967034e-07
 236    4.1017258533613e-06
 237    -7.6234349091384e-05
 238    -2.6854779802463e-06
 239    2.9041886514088e-06
 240    -1.4160690083946e-06
 241    3.3075558627556e-05
 242    -6.2373683117642e-05
 243    1.8816967009988e-05
 244    1.8362836373344e-06
 245    1.5729824105426e-06
 246    -1.534907501938e-06
 247    1.7025937237007e-07
 248    6.6723486133689e-07
 249    -1.5217359477865e-05
 250    1.4442452389203e-05
 251    -4.074642779606e-06
 252    -2.0144493337606e-06
 253    -8.0980218531105e-07
 254    -3.2049069917276e-06
 255    5.8894603807148e-05
 256    1.3847037236471e-06
 257    5.295148333349e-06
 258    -1.7627929914618e-06
 259    -9.382279874007e-06
 260    -2.8694891907556e-05
 261    6.3761487545429e-05
 262    -1.7898947805464e-05