[Molden Format]
made by pyscf v[2.0.1]
[Atoms] (AU)
O   1   8     0.00000000000000     0.00000000000000     9.05202446090250
H   2   1     0.00000000000000     0.00000000000000     7.22862263900153
H   3   1    -0.05031916615174     1.78353065140343     9.42789615736916
O   4   8     0.00000000000000     0.00000000000000     2.31533471513237
C   5   6     0.00000000000000     0.00000000000000     0.00000000000000
C   6   6     2.01118073026938    -1.40227222164369    -1.50774939176400
C   7   6    -2.01249334291722     1.41331050329955    -1.50315905028694
H   8   1     3.32037363730244    -2.26721897153159    -0.13599698591495
C   9   6     3.45899267434009     0.28739631745591    -3.37437943254505
H   10   1     1.07662969841332    -2.94725144642667    -2.56541439481080
H   11   1    -2.67503415753480     0.18421555839588    -3.06194479365997
H   12   1    -1.07974048864772     3.03851734677796    -2.43674295017013
C   13   6    -4.21607110578555     2.32938802552922     0.11994162256091
H   14   1     4.24440173074564     1.93368664142019    -2.34976285512790
H   15   1     2.15020713235517     1.04714335134846    -4.81494497423699
C   16   6     5.60746363007797    -1.12419643481196    -4.70268606082550
H   17   1    -3.46838323670267     3.50951302338067     1.66946842715333
H   18   1    -5.11873485366228     0.68575958301209     1.04047743976495
C   19   6    -6.18314754751344     3.80909592987882    -1.39656589068747
H   20   1     6.93011263717176    -1.87550812453645    -3.26656317360070
C   21   6     7.06356622236532     0.52877932406334    -6.57829775293605
H   22   1     4.82318879258361    -2.78573437948532    -5.70504560381835
H   23   1    -6.91582688743803     2.61304780074712    -2.95074552451969
H   24   1    -5.26532430573853     5.45420349051338    -2.31005832200284
C   25   6    -8.39941882261433     4.73263980500213     0.21800571437956
H   26   1     7.83338371486801     2.19084139882824    -5.57093109900697
H   27   1     5.73544244039420     1.27376866537418    -8.01071492370229
C   28   6     9.21124858443101    -0.89699110072176    -7.88926949186242
H   29   1    -7.66272760055236     5.92277078003992     1.77035591474408
H   30   1    -9.31497248082589     3.08753015622020     1.12614408368786
C   31   6   -10.35481709231879     6.21833079391143    -1.30905206253246
H   32   1    10.58815905329501    -1.61074586756696    -6.49512691622620
H   33   1    10.23506248045667     0.32468009384095    -9.23072870921204
H   34   1     8.47665842847139    -2.53598436989925    -8.94921964622535
H   35   1    -9.48948872868064     7.90013588951020    -2.18823918416067
H   36   1   -11.93332513000955     6.86460487874102    -0.11255798845995
H   37   1   -11.15126291841033     5.04495968327630    -2.83849898862534
[GTO]
1 0
 s    8 1.00
                 11720  0.00070964594651845
                  1759  0.0054672722921914
                 400.8   0.027823118610189
                 113.7    0.10474773971146
                 37.03    0.28292084635691
                 13.27    0.44849523869833
                 5.025    0.27081688521277
                 1.013    0.01545029160744
 s    8 1.00
                 11720  -0.00031444341168873
                  1759  -0.0024821376810179
                 400.8  -0.012316355381583
                 113.7  -0.050538917343672
                 37.03   -0.13938490331632
                 13.27   -0.32507749481778
                 5.025   -0.22984830758785
                 1.013     1.0953793467883
 s    1 1.00
                0.3023                   1
 p    3 1.00
                  17.7   0.062679166281506
                 3.854    0.33353656587936
                 1.046    0.74123964163973
 p    1 1.00
                0.2753                   1
 d    1 1.00
                 1.185                   1

2 0
 s    3 1.00
                 13.01   0.033498726389998
                 1.962    0.23480080117413
                0.4446     0.8136829578829
 s    1 1.00
                 0.122                   1
 p    1 1.00
                 0.727                   1

3 0
 s    3 1.00
                 13.01   0.033498726389998
                 1.962    0.23480080117413
                0.4446     0.8136829578829
 s    1 1.00
                 0.122                   1
 p    1 1.00
                 0.727                   1

4 0
 s    8 1.00
                 11720  0.00070964594651845
                  1759  0.0054672722921914
                 400.8   0.027823118610189
                 113.7    0.10474773971146
                 37.03    0.28292084635691
                 13.27    0.44849523869833
                 5.025    0.27081688521277
                 1.013    0.01545029160744
 s    8 1.00
                 11720  -0.00031444341168873
                  1759  -0.0024821376810179
                 400.8  -0.012316355381583
                 113.7  -0.050538917343672
                 37.03   -0.13938490331632
                 13.27   -0.32507749481778
                 5.025   -0.22984830758785
                 1.013     1.0953793467883
 s    1 1.00
                0.3023                   1
 p    3 1.00
                  17.7   0.062679166281506
                 3.854    0.33353656587936
                 1.046    0.74123964163973
 p    1 1.00
                0.2753                   1
 d    1 1.00
                 1.185                   1

5 0
 s    8 1.00
                  6665  0.00069158396281299
                  1000  0.0053257961529341
                   228   0.027060721042034
                 64.71    0.10165684614077
                 21.06     0.2745748236174
                 7.495    0.44829431892377
                 2.797    0.28490261071525
                0.5215   0.015194859206082
 s    8 1.00
                  6665  -0.00029326965268655
                  1000  -0.0023180354739745
                   228  -0.011499786038565
                 64.71  -0.046826727009787
                 21.06   -0.12846616875047
                 7.495   -0.30126627246289
                 2.797   -0.25563070233011
                0.5215      1.093793361012
 s    1 1.00
                0.1596                   1
 p    3 1.00
                 9.439   0.056979251590039
                 2.002    0.31320721150073
                0.5456    0.76037674173753
 p    1 1.00
                0.1517                   1
 d    1 1.00
                  0.55                   1

6 0
 s    8 1.00
                  6665  0.00069158396281299
                  1000  0.0053257961529341
                   228   0.027060721042034
                 64.71    0.10165684614077
                 21.06     0.2745748236174
                 7.495    0.44829431892377
                 2.797    0.28490261071525
                0.5215   0.015194859206082
 s    8 1.00
                  6665  -0.00029326965268655
                  1000  -0.0023180354739745
                   228  -0.011499786038565
                 64.71  -0.046826727009787
                 21.06   -0.12846616875047
                 7.495   -0.30126627246289
                 2.797   -0.25563070233011
                0.5215      1.093793361012
 s    1 1.00
                0.1596                   1
 p    3 1.00
                 9.439   0.056979251590039
                 2.002    0.31320721150073
                0.5456    0.76037674173753
 p    1 1.00
                0.1517                   1
 d    1 1.00
                  0.55                   1

7 0
 s    8 1.00
                  6665  0.00069158396281299
                  1000  0.0053257961529341
                   228   0.027060721042034
                 64.71    0.10165684614077
                 21.06     0.2745748236174
                 7.495    0.44829431892377
                 2.797    0.28490261071525
                0.5215   0.015194859206082
 s    8 1.00
                  6665  -0.00029326965268655
                  1000  -0.0023180354739745
                   228  -0.011499786038565
                 64.71  -0.046826727009787
                 21.06   -0.12846616875047
                 7.495   -0.30126627246289
                 2.797   -0.25563070233011
                0.5215      1.093793361012
 s    1 1.00
                0.1596                   1
 p    3 1.00
                 9.439   0.056979251590039
                 2.002    0.31320721150073
                0.5456    0.76037674173753
 p    1 1.00
                0.1517                   1
 d    1 1.00
                  0.55                   1

8 0
 s    3 1.00
                 13.01   0.033498726389998
                 1.962    0.23480080117413
                0.4446     0.8136829578829
 s    1 1.00
                 0.122                   1
 p    1 1.00
                 0.727                   1

9 0
 s    8 1.00
                  6665  0.00069158396281299
                  1000  0.0053257961529341
                   228   0.027060721042034
                 64.71    0.10165684614077
                 21.06     0.2745748236174
                 7.495    0.44829431892377
                 2.797    0.28490261071525
                0.5215   0.015194859206082
 s    8 1.00
                  6665  -0.00029326965268655
                  1000  -0.0023180354739745
                   228  -0.011499786038565
                 64.71  -0.046826727009787
                 21.06   -0.12846616875047
                 7.495   -0.30126627246289
                 2.797   -0.25563070233011
                0.5215      1.093793361012
 s    1 1.00
                0.1596                   1
 p    3 1.00
                 9.439   0.056979251590039
                 2.002    0.31320721150073
                0.5456    0.76037674173753
 p    1 1.00
                0.1517                   1
 d    1 1.00
                  0.55                   1

10 0
 s    3 1.00
                 13.01   0.033498726389998
                 1.962    0.23480080117413
                0.4446     0.8136829578829
 s    1 1.00
                 0.122                   1
 p    1 1.00
                 0.727                   1

11 0
 s    3 1.00
                 13.01   0.033498726389998
                 1.962    0.23480080117413
                0.4446     0.8136829578829
 s    1 1.00
                 0.122                   1
 p    1 1.00
                 0.727                   1

12 0
 s    3 1.00
                 13.01   0.033498726389998
                 1.962    0.23480080117413
                0.4446     0.8136829578829
 s    1 1.00
                 0.122                   1
 p    1 1.00
                 0.727                   1

13 0
 s    8 1.00
                  6665  0.00069158396281299
                  1000  0.0053257961529341
                   228   0.027060721042034
                 64.71    0.10165684614077
                 21.06     0.2745748236174
                 7.495    0.44829431892377
                 2.797    0.28490261071525
                0.5215   0.015194859206082
 s    8 1.00
                  6665  -0.00029326965268655
                  1000  -0.0023180354739745
                   228  -0.011499786038565
                 64.71  -0.046826727009787
                 21.06   -0.12846616875047
                 7.495   -0.30126627246289
                 2.797   -0.25563070233011
                0.5215      1.093793361012
 s    1 1.00
                0.1596                   1
 p    3 1.00
                 9.439   0.056979251590039
                 2.002    0.31320721150073
                0.5456    0.76037674173753
 p    1 1.00
                0.1517                   1
 d    1 1.00
                  0.55                   1

14 0
 s    3 1.00
                 13.01   0.033498726389998
                 1.962    0.23480080117413
                0.4446     0.8136829578829
 s    1 1.00
                 0.122                   1
 p    1 1.00
                 0.727                   1

15 0
 s    3 1.00
                 13.01   0.033498726389998
                 1.962    0.23480080117413
                0.4446     0.8136829578829
 s    1 1.00
                 0.122                   1
 p    1 1.00
                 0.727                   1

16 0
 s    8 1.00
                  6665  0.00069158396281299
                  1000  0.0053257961529341
                   228   0.027060721042034
                 64.71    0.10165684614077
                 21.06     0.2745748236174
                 7.495    0.44829431892377
                 2.797    0.28490261071525
                0.5215   0.015194859206082
 s    8 1.00
                  6665  -0.00029326965268655
                  1000  -0.0023180354739745
                   228  -0.011499786038565
                 64.71  -0.046826727009787
                 21.06   -0.12846616875047
                 7.495   -0.30126627246289
                 2.797   -0.25563070233011
                0.5215      1.093793361012
 s    1 1.00
                0.1596                   1
 p    3 1.00
                 9.439   0.056979251590039
                 2.002    0.31320721150073
                0.5456    0.76037674173753
 p    1 1.00
                0.1517                   1
 d    1 1.00
                  0.55                   1

17 0
 s    3 1.00
                 13.01   0.033498726389998
                 1.962    0.23480080117413
                0.4446     0.8136829578829
 s    1 1.00
                 0.122                   1
 p    1 1.00
                 0.727                   1

18 0
 s    3 1.00
                 13.01   0.033498726389998
                 1.962    0.23480080117413
                0.4446     0.8136829578829
 s    1 1.00
                 0.122                   1
 p    1 1.00
                 0.727                   1

19 0
 s    8 1.00
                  6665  0.00069158396281299
                  1000  0.0053257961529341
                   228   0.027060721042034
                 64.71    0.10165684614077
                 21.06     0.2745748236174
                 7.495    0.44829431892377
                 2.797    0.28490261071525
                0.5215   0.015194859206082
 s    8 1.00
                  6665  -0.00029326965268655
                  1000  -0.0023180354739745
                   228  -0.011499786038565
                 64.71  -0.046826727009787
                 21.06   -0.12846616875047
                 7.495   -0.30126627246289
                 2.797   -0.25563070233011
                0.5215      1.093793361012
 s    1 1.00
                0.1596                   1
 p    3 1.00
                 9.439   0.056979251590039
                 2.002    0.31320721150073
                0.5456    0.76037674173753
 p    1 1.00
                0.1517                   1
 d    1 1.00
                  0.55                   1

20 0
 s    3 1.00
                 13.01   0.033498726389998
                 1.962    0.23480080117413
                0.4446     0.8136829578829
 s    1 1.00
                 0.122                   1
 p    1 1.00
                 0.727                   1

21 0
 s    8 1.00
                  6665  0.00069158396281299
                  1000  0.0053257961529341
                   228   0.027060721042034
                 64.71    0.10165684614077
                 21.06     0.2745748236174
                 7.495    0.44829431892377
                 2.797    0.28490261071525
                0.5215   0.015194859206082
 s    8 1.00
                  6665  -0.00029326965268655
                  1000  -0.0023180354739745
                   228  -0.011499786038565
                 64.71  -0.046826727009787
                 21.06   -0.12846616875047
                 7.495   -0.30126627246289
                 2.797   -0.25563070233011
                0.5215      1.093793361012
 s    1 1.00
                0.1596                   1
 p    3 1.00
                 9.439   0.056979251590039
                 2.002    0.31320721150073
                0.5456    0.76037674173753
 p    1 1.00
                0.1517                   1
 d    1 1.00
                  0.55                   1

22 0
 s    3 1.00
                 13.01   0.033498726389998
                 1.962    0.23480080117413
                0.4446     0.8136829578829
 s    1 1.00
                 0.122                   1
 p    1 1.00
                 0.727                   1

23 0
 s    3 1.00
                 13.01   0.033498726389998
                 1.962    0.23480080117413
                0.4446     0.8136829578829
 s    1 1.00
                 0.122                   1
 p    1 1.00
                 0.727                   1

24 0
 s    3 1.00
                 13.01   0.033498726389998
                 1.962    0.23480080117413
                0.4446     0.8136829578829
 s    1 1.00
                 0.122                   1
 p    1 1.00
                 0.727                   1

25 0
 s    8 1.00
                  6665  0.00069158396281299
                  1000  0.0053257961529341
                   228   0.027060721042034
                 64.71    0.10165684614077
                 21.06     0.2745748236174
                 7.495    0.44829431892377
                 2.797    0.28490261071525
                0.5215   0.015194859206082
 s    8 1.00
                  6665  -0.00029326965268655
                  1000  -0.0023180354739745
                   228  -0.011499786038565
                 64.71  -0.046826727009787
                 21.06   -0.12846616875047
                 7.495   -0.30126627246289
                 2.797   -0.25563070233011
                0.5215      1.093793361012
 s    1 1.00
                0.1596                   1
 p    3 1.00
                 9.439   0.056979251590039
                 2.002    0.31320721150073
                0.5456    0.76037674173753
 p    1 1.00
                0.1517                   1
 d    1 1.00
                  0.55                   1

26 0
 s    3 1.00
                 13.01   0.033498726389998
                 1.962    0.23480080117413
                0.4446     0.8136829578829
 s    1 1.00
                 0.122                   1
 p    1 1.00
                 0.727                   1

27 0
 s    3 1.00
                 13.01   0.033498726389998
                 1.962    0.23480080117413
                0.4446     0.8136829578829
 s    1 1.00
                 0.122                   1
 p    1 1.00
                 0.727                   1

28 0
 s    8 1.00
                  6665  0.00069158396281299
                  1000  0.0053257961529341
                   228   0.027060721042034
                 64.71    0.10165684614077
                 21.06     0.2745748236174
                 7.495    0.44829431892377
                 2.797    0.28490261071525
                0.5215   0.015194859206082
 s    8 1.00
                  6665  -0.00029326965268655
                  1000  -0.0023180354739745
                   228  -0.011499786038565
                 64.71  -0.046826727009787
                 21.06   -0.12846616875047
                 7.495   -0.30126627246289
                 2.797   -0.25563070233011
                0.5215      1.093793361012
 s    1 1.00
                0.1596                   1
 p    3 1.00
                 9.439   0.056979251590039
                 2.002    0.31320721150073
                0.5456    0.76037674173753
 p    1 1.00
                0.1517                   1
 d    1 1.00
                  0.55                   1

29 0
 s    3 1.00
                 13.01   0.033498726389998
                 1.962    0.23480080117413
                0.4446     0.8136829578829
 s    1 1.00
                 0.122                   1
 p    1 1.00
                 0.727                   1

30 0
 s    3 1.00
                 13.01   0.033498726389998
                 1.962    0.23480080117413
                0.4446     0.8136829578829
 s    1 1.00
                 0.122                   1
 p    1 1.00
                 0.727                   1

31 0
 s    8 1.00
                  6665  0.00069158396281299
                  1000  0.0053257961529341
                   228   0.027060721042034
                 64.71    0.10165684614077
                 21.06     0.2745748236174
                 7.495    0.44829431892377
                 2.797    0.28490261071525
                0.5215   0.015194859206082
 s    8 1.00
                  6665  -0.00029326965268655
                  1000  -0.0023180354739745
                   228  -0.011499786038565
                 64.71  -0.046826727009787
                 21.06   -0.12846616875047
                 7.495   -0.30126627246289
                 2.797   -0.25563070233011
                0.5215      1.093793361012
 s    1 1.00
                0.1596                   1
 p    3 1.00
                 9.439   0.056979251590039
                 2.002    0.31320721150073
                0.5456    0.76037674173753
 p    1 1.00
                0.1517                   1
 d    1 1.00
                  0.55                   1

32 0
 s    3 1.00
                 13.01   0.033498726389998
                 1.962    0.23480080117413
                0.4446     0.8136829578829
 s    1 1.00
                 0.122                   1
 p    1 1.00
                 0.727                   1

33 0
 s    3 1.00
                 13.01   0.033498726389998
                 1.962    0.23480080117413
                0.4446     0.8136829578829
 s    1 1.00
                 0.122                   1
 p    1 1.00
                 0.727                   1

34 0
 s    3 1.00
                 13.01   0.033498726389998
                 1.962    0.23480080117413
                0.4446     0.8136829578829
 s    1 1.00
                 0.122                   1
 p    1 1.00
                 0.727                   1

35 0
 s    3 1.00
                 13.01   0.033498726389998
                 1.962    0.23480080117413
                0.4446     0.8136829578829
 s    1 1.00
                 0.122                   1
 p    1 1.00
                 0.727                   1

36 0
 s    3 1.00
                 13.01   0.033498726389998
                 1.962    0.23480080117413
                0.4446     0.8136829578829
 s    1 1.00
                 0.122                   1
 p    1 1.00
                 0.727                   1

37 0
 s    3 1.00
                 13.01   0.033498726389998
                 1.962    0.23480080117413
                0.4446     0.8136829578829
 s    1 1.00
                 0.122                   1
 p    1 1.00
                 0.727                   1

[5d]
[7f]
[9g]

[MO]
 Sym= A
 Ene=               0
 Spin= Alpha
 Occup=    1.00000
   1    6.7787287052056e-05
   2    4.9369122280188e-05
   3    -0.0001341531695842
   4    3.0470965242447e-08
   5    -5.8629678229347e-06
   6    -1.2794966645032e-05
   7    -5.4277370690962e-07
   8    2.6037032306663e-05
   9    8.2430915260936e-05
  10    -7.7790856880138e-06
  11    5.3041151561595e-08
  12    2.1835367925846e-07
  13    -3.7722672265869e-07
  14    -6.2603341998257e-09
  15    1.7429487340075e-05
  16    0.00020827198842828
  17    2.8791778674662e-07
  18    -1.9908877710017e-06
  19    4.158637567677e-06
  20    7.4747489259962e-06
  21    -7.0209028092987e-05
  22    -1.6670023429829e-07
  23    4.0327057189209e-06
  24    -1.4631933349728e-06
  25      -1.0013730230072
  26    -0.0019759319423267
  27    0.0068895338259073
  28    4.7046407290546e-06
  29    -9.4738829992509e-06
  30    0.0016453457072107
  31    -6.5470574969612e-07
  32    2.9677249043399e-06
  33    -0.0019049770906694
  34    -0.00011604386195888
  35    2.8925911456677e-06
  36    -1.4750667359319e-06
  37    -6.6967759750763e-05
  38    0.00017430246646162
  39    -0.00028337540113405
  40    -0.00039264615938404
  41    -0.0014932496139451
  42    -1.5890810617467e-05
  43    1.0324282070367e-05
  44    -1.1355671322999e-05
  45    -7.859977873216e-05
  46    6.2639279083189e-05
  47    -0.0036264716687947
  48    0.00051672206656283
  49     8.07299516913e-06
  50    -2.3767099926631e-06
  51    -2.9767643514943e-05
  52    0.00010993901887046
  53    8.4680214509592e-05
  54    0.00016550333667745
  55    -0.0013834360086521
  56    -7.7985397235942e-05
  57    7.0485682140883e-06
  58    3.4636543383903e-05
  59    0.00042699676297914
  60    -0.00048124378919088
  61    0.00095449887788337
  62    0.00011652345048369
  63    -0.00014974713133957
  64    0.00014307295270094
  65    -5.4535907986837e-05
  66    0.00012806652415876
  67    3.8815209664612e-05
  68    9.6493116733935e-05
  69    -0.00050949800118577
  70    6.0247791493822e-05
  71    -4.0057766707973e-05
  72    5.9406466469664e-05
  73    -0.0010068101803615
  74    0.0007737065749973
  75    0.00065422454092916
  76    0.00013913458330041
  77    0.00012155095724759
  78    -8.9875431408638e-05
  79    -5.8182220339833e-05
  80    0.00014969109104635
  81    6.1589097712607e-05
  82    -0.00021282005322023
  83    -6.65160146825e-05
  84    4.8892462365979e-05
  85    -4.7912154148769e-05
  86    -2.5103032151288e-05
  87    -4.9312498891309e-05
  88    0.00061585137824109
  89    1.5584638520287e-05
  90    1.7465363333562e-05
  91    -1.1443812789912e-05
  92    -0.00026008759667775
  93    -0.00063964929496134
  94    1.5166925166491e-05
  95    -1.8603758759618e-05
  96    -1.1447662402883e-05
  97    -7.7756341671848e-06
  98    1.9929444055923e-05
  99    4.7310786276186e-05
 100    3.9486432218193e-05
 101    0.00016230192978327
 102    -7.6434836274057e-06
 103    1.0376396143407e-05
 104    -7.6081511729708e-05
 105    1.9653306295064e-05
 106    0.00020295334429952
 107    6.4086130199878e-05
 108    -9.1033327529157e-06
 109    -7.5587472798669e-05
 110    -7.76652667235e-05
 111    6.2361402113001e-05
 112    4.4414332236458e-05
 113    -1.9551737756522e-05
 114    -7.0750296205453e-05
 115    5.6034240817794e-05
 116    0.00011268964808333
 117    -0.00083464581487102
 118    1.1527887087169e-05
 119    2.2281286610726e-05
 120    -4.3872517033262e-05
 121    -0.00029693299832006
 122    -2.7400265194491e-05
 123    0.00014255447335828
 124    5.7102052736821e-06
 125    -1.3839297386468e-05
 126    -1.4282568942652e-05
 127    3.146134006091e-05
 128    -5.0041562976217e-05
 129    1.9608980317263e-05
 130    0.00033056009949017
 131    -7.8688080861912e-06
 132    -5.9320578296484e-06
 133    -2.9473970732506e-05
 134    -2.5791658803128e-05
 135    0.00011784608330613
 136    1.3661919932328e-05
 137    2.4792977769413e-05
 138    2.7096691187824e-05
 139    2.1829800802578e-05
 140    3.9806220024523e-05
 141    -0.00029683347528004
 142    -7.4618732167098e-06
 143    3.1441924911674e-06
 144    5.7559304632102e-06
 145    0.00023167473407565
 146    -5.5846516431216e-05
 147    -6.2460932780713e-05
 148    2.5662320419733e-06
 149    -3.0131211636712e-06
 150    3.9728036844052e-06
 151    -1.2506784598981e-05
 152    4.8047654178021e-06
 153    9.4287216941571e-05
 154    9.5068154323304e-05
 155    2.600701262563e-05
 156    -2.8182505700544e-05
 157    -2.0010684417306e-05
 158    2.4606223956509e-05
 159    8.4854774065754e-05
 160    5.8467297013482e-05
 161    7.5546420207574e-06
 162    -7.2175496631529e-06
 163    -0.00010467417125328
 164    -0.00010081334195038
 165    0.00019185716048062
 166    7.0200078768859e-05
 167    -3.024158295833e-05
 168    5.5465463915424e-05
 169    -0.00020829928969673
 170    0.00020153816936699
 171    0.00016728217432678
 172    1.4502867634367e-06
 173    -6.830236909674e-06
 174    9.7689286939792e-06
 175    -2.8050090671078e-06
 176    1.4983104747799e-05
 177    1.6668872773258e-05
 178    -8.4567780477457e-05
 179    1.0200443652756e-06
 180    -1.7617043548819e-06
 181    4.794305954198e-06
 182    -2.0105944384128e-05
 183    -3.1297152102484e-05
 184    6.9783020718048e-05
 185    -9.8998795764123e-07
 186    -2.2613736721469e-06
 187    -4.8844527273064e-06
 188    -0.00013202563903081
 189    0.00010315106319015
 190    8.8482678734172e-05
 191    -1.1011340655633e-06
 192    -1.8968552566741e-06
 193    7.2639369605126e-06
 194    3.0853749597434e-06
 195    5.6278996676891e-06
 196    1.3364663405453e-05
 197    1.8770075744797e-05
 198    -5.6480987401079e-06
 199    -1.937762215688e-06
 200    3.3647117680326e-06
 201    -8.9447826859613e-05
 202    -3.1374122554251e-05
 203    1.0154568206647e-05
 204    -1.6769105608315e-05
 205    -1.8412296749485e-05
 206    -7.5727420681031e-05
 207    -8.2102269216761e-05
 208    2.0845000171882e-05
 209    2.4686708774949e-06
 210    -1.7387800353722e-05
 211    7.5590875915398e-06
 212    4.3166440477378e-06
 213    -0.0002805424551288
 214    -4.0101259245863e-05
 215    2.8054953285509e-05
 216    2.3586630501828e-05
 217    -0.00021002266844922
 218    6.4503757323743e-05
 219    8.507294464375e-05
 220    1.7007787081848e-07
 221    2.3627221042364e-05
 222    -8.823551548964e-06
 223    -1.0540063740478e-05
 224    2.8403566088059e-06
 225    -2.8492850690127e-05
 226    -5.6309434557249e-05
 227    1.2405171562286e-05
 228    2.2692490043522e-06
 229    1.1095640691803e-06
 230    -8.1447899578299e-06
 231    -5.3063088784204e-05
 232    3.9554013077064e-06
 233    -6.4326363680488e-06
 234    -1.2027400111045e-05
 235    -6.6245318175325e-07
 236    -4.168986962308e-06
 237    7.6815575709286e-05
 238    2.6968023550144e-06
 239    -2.9597902169624e-06
 240    1.4253075703355e-06
 241    -3.36775359972e-05
 242    6.3019626058636e-05
 243    -1.9073648302467e-05
 244    -1.8831462126585e-06
 245    -1.6209907303855e-06
 246    1.5255337856097e-06
 247    -1.638912455369e-07
 248    -6.7329231471294e-07
 249    1.4781323146849e-05
 250    -1.2761118414793e-05
 251    3.9791769734649e-06
 252    1.9396119799218e-06
 253    6.4033274428686e-07
 254    3.5701925669914e-06
 255    -5.8680079431208e-05
 256    -1.5542059712956e-06
 257    -5.204209243278e-06
 258    1.6916143311773e-06
 259    9.0740462686614e-06
 260    2.8272095339571e-05
 261    -5.985696351344e-05
 262    1.8134363869225e-05
 263    -1.3799207118286e-05