[Molden Format]
made by pyscf v[2.0.1]
[Atoms] (AU)
O   1   8     0.00000000000000     0.00000000000000    10.18586013564153
H   2   1     0.00000000000000     0.00000000000000     8.36245831374057
H   3   1    -0.05031916615174     1.78353065140343    10.56173183210820
O   4   8     0.00000000000000     0.00000000000000     2.31533471513237
C   5   6     0.00000000000000     0.00000000000000     0.00000000000000
C   6   6     2.01118073026938    -1.40227222164369    -1.50774939176400
C   7   6    -2.01249334291722     1.41331050329955    -1.50315905028694
H   8   1     3.32037363730244    -2.26721897153159    -0.13599698591495
C   9   6     3.45899267434009     0.28739631745591    -3.37437943254505
H   10   1     1.07662969841332    -2.94725144642667    -2.56541439481080
H   11   1    -2.67503415753480     0.18421555839588    -3.06194479365997
H   12   1    -1.07974048864772     3.03851734677796    -2.43674295017013
C   13   6    -4.21607110578555     2.32938802552922     0.11994162256091
H   14   1     4.24440173074564     1.93368664142019    -2.34976285512790
H   15   1     2.15020713235517     1.04714335134846    -4.81494497423699
C   16   6     5.60746363007797    -1.12419643481196    -4.70268606082550
H   17   1    -3.46838323670267     3.50951302338067     1.66946842715333
H   18   1    -5.11873485366228     0.68575958301209     1.04047743976495
C   19   6    -6.18314754751344     3.80909592987882    -1.39656589068747
H   20   1     6.93011263717176    -1.87550812453645    -3.26656317360070
C   21   6     7.06356622236532     0.52877932406334    -6.57829775293605
H   22   1     4.82318879258361    -2.78573437948532    -5.70504560381835
H   23   1    -6.91582688743803     2.61304780074712    -2.95074552451969
H   24   1    -5.26532430573853     5.45420349051338    -2.31005832200284
C   25   6    -8.39941882261433     4.73263980500213     0.21800571437956
H   26   1     7.83338371486801     2.19084139882824    -5.57093109900697
H   27   1     5.73544244039420     1.27376866537418    -8.01071492370229
C   28   6     9.21124858443101    -0.89699110072176    -7.88926949186242
H   29   1    -7.66272760055236     5.92277078003992     1.77035591474408
H   30   1    -9.31497248082589     3.08753015622020     1.12614408368786
C   31   6   -10.35481709231879     6.21833079391143    -1.30905206253246
H   32   1    10.58815905329501    -1.61074586756696    -6.49512691622620
H   33   1    10.23506248045667     0.32468009384095    -9.23072870921204
H   34   1     8.47665842847139    -2.53598436989925    -8.94921964622535
H   35   1    -9.48948872868064     7.90013588951020    -2.18823918416067
H   36   1   -11.93332513000955     6.86460487874102    -0.11255798845995
H   37   1   -11.15126291841033     5.04495968327630    -2.83849898862534
[GTO]
1 0
 s    8 1.00
                 11720  0.00070964594651845
                  1759  0.0054672722921914
                 400.8   0.027823118610189
                 113.7    0.10474773971146
                 37.03    0.28292084635691
                 13.27    0.44849523869833
                 5.025    0.27081688521277
                 1.013    0.01545029160744
 s    8 1.00
                 11720  -0.00031444341168873
                  1759  -0.0024821376810179
                 400.8  -0.012316355381583
                 113.7  -0.050538917343672
                 37.03   -0.13938490331632
                 13.27   -0.32507749481778
                 5.025   -0.22984830758785
                 1.013     1.0953793467883
 s    1 1.00
                0.3023                   1
 p    3 1.00
                  17.7   0.062679166281506
                 3.854    0.33353656587936
                 1.046    0.74123964163973
 p    1 1.00
                0.2753                   1
 d    1 1.00
                 1.185                   1

2 0
 s    3 1.00
                 13.01   0.033498726389998
                 1.962    0.23480080117413
                0.4446     0.8136829578829
 s    1 1.00
                 0.122                   1
 p    1 1.00
                 0.727                   1

3 0
 s    3 1.00
                 13.01   0.033498726389998
                 1.962    0.23480080117413
                0.4446     0.8136829578829
 s    1 1.00
                 0.122                   1
 p    1 1.00
                 0.727                   1

4 0
 s    8 1.00
                 11720  0.00070964594651845
                  1759  0.0054672722921914
                 400.8   0.027823118610189
                 113.7    0.10474773971146
                 37.03    0.28292084635691
                 13.27    0.44849523869833
                 5.025    0.27081688521277
                 1.013    0.01545029160744
 s    8 1.00
                 11720  -0.00031444341168873
                  1759  -0.0024821376810179
                 400.8  -0.012316355381583
                 113.7  -0.050538917343672
                 37.03   -0.13938490331632
                 13.27   -0.32507749481778
                 5.025   -0.22984830758785
                 1.013     1.0953793467883
 s    1 1.00
                0.3023                   1
 p    3 1.00
                  17.7   0.062679166281506
                 3.854    0.33353656587936
                 1.046    0.74123964163973
 p    1 1.00
                0.2753                   1
 d    1 1.00
                 1.185                   1

5 0
 s    8 1.00
                  6665  0.00069158396281299
                  1000  0.0053257961529341
                   228   0.027060721042034
                 64.71    0.10165684614077
                 21.06     0.2745748236174
                 7.495    0.44829431892377
                 2.797    0.28490261071525
                0.5215   0.015194859206082
 s    8 1.00
                  6665  -0.00029326965268655
                  1000  -0.0023180354739745
                   228  -0.011499786038565
                 64.71  -0.046826727009787
                 21.06   -0.12846616875047
                 7.495   -0.30126627246289
                 2.797   -0.25563070233011
                0.5215      1.093793361012
 s    1 1.00
                0.1596                   1
 p    3 1.00
                 9.439   0.056979251590039
                 2.002    0.31320721150073
                0.5456    0.76037674173753
 p    1 1.00
                0.1517                   1
 d    1 1.00
                  0.55                   1

6 0
 s    8 1.00
                  6665  0.00069158396281299
                  1000  0.0053257961529341
                   228   0.027060721042034
                 64.71    0.10165684614077
                 21.06     0.2745748236174
                 7.495    0.44829431892377
                 2.797    0.28490261071525
                0.5215   0.015194859206082
 s    8 1.00
                  6665  -0.00029326965268655
                  1000  -0.0023180354739745
                   228  -0.011499786038565
                 64.71  -0.046826727009787
                 21.06   -0.12846616875047
                 7.495   -0.30126627246289
                 2.797   -0.25563070233011
                0.5215      1.093793361012
 s    1 1.00
                0.1596                   1
 p    3 1.00
                 9.439   0.056979251590039
                 2.002    0.31320721150073
                0.5456    0.76037674173753
 p    1 1.00
                0.1517                   1
 d    1 1.00
                  0.55                   1

7 0
 s    8 1.00
                  6665  0.00069158396281299
                  1000  0.0053257961529341
                   228   0.027060721042034
                 64.71    0.10165684614077
                 21.06     0.2745748236174
                 7.495    0.44829431892377
                 2.797    0.28490261071525
                0.5215   0.015194859206082
 s    8 1.00
                  6665  -0.00029326965268655
                  1000  -0.0023180354739745
                   228  -0.011499786038565
                 64.71  -0.046826727009787
                 21.06   -0.12846616875047
                 7.495   -0.30126627246289
                 2.797   -0.25563070233011
                0.5215      1.093793361012
 s    1 1.00
                0.1596                   1
 p    3 1.00
                 9.439   0.056979251590039
                 2.002    0.31320721150073
                0.5456    0.76037674173753
 p    1 1.00
                0.1517                   1
 d    1 1.00
                  0.55                   1

8 0
 s    3 1.00
                 13.01   0.033498726389998
                 1.962    0.23480080117413
                0.4446     0.8136829578829
 s    1 1.00
                 0.122                   1
 p    1 1.00
                 0.727                   1

9 0
 s    8 1.00
                  6665  0.00069158396281299
                  1000  0.0053257961529341
                   228   0.027060721042034
                 64.71    0.10165684614077
                 21.06     0.2745748236174
                 7.495    0.44829431892377
                 2.797    0.28490261071525
                0.5215   0.015194859206082
 s    8 1.00
                  6665  -0.00029326965268655
                  1000  -0.0023180354739745
                   228  -0.011499786038565
                 64.71  -0.046826727009787
                 21.06   -0.12846616875047
                 7.495   -0.30126627246289
                 2.797   -0.25563070233011
                0.5215      1.093793361012
 s    1 1.00
                0.1596                   1
 p    3 1.00
                 9.439   0.056979251590039
                 2.002    0.31320721150073
                0.5456    0.76037674173753
 p    1 1.00
                0.1517                   1
 d    1 1.00
                  0.55                   1

10 0
 s    3 1.00
                 13.01   0.033498726389998
                 1.962    0.23480080117413
                0.4446     0.8136829578829
 s    1 1.00
                 0.122                   1
 p    1 1.00
                 0.727                   1

11 0
 s    3 1.00
                 13.01   0.033498726389998
                 1.962    0.23480080117413
                0.4446     0.8136829578829
 s    1 1.00
                 0.122                   1
 p    1 1.00
                 0.727                   1

12 0
 s    3 1.00
                 13.01   0.033498726389998
                 1.962    0.23480080117413
                0.4446     0.8136829578829
 s    1 1.00
                 0.122                   1
 p    1 1.00
                 0.727                   1

13 0
 s    8 1.00
                  6665  0.00069158396281299
                  1000  0.0053257961529341
                   228   0.027060721042034
                 64.71    0.10165684614077
                 21.06     0.2745748236174
                 7.495    0.44829431892377
                 2.797    0.28490261071525
                0.5215   0.015194859206082
 s    8 1.00
                  6665  -0.00029326965268655
                  1000  -0.0023180354739745
                   228  -0.011499786038565
                 64.71  -0.046826727009787
                 21.06   -0.12846616875047
                 7.495   -0.30126627246289
                 2.797   -0.25563070233011
                0.5215      1.093793361012
 s    1 1.00
                0.1596                   1
 p    3 1.00
                 9.439   0.056979251590039
                 2.002    0.31320721150073
                0.5456    0.76037674173753
 p    1 1.00
                0.1517                   1
 d    1 1.00
                  0.55                   1

14 0
 s    3 1.00
                 13.01   0.033498726389998
                 1.962    0.23480080117413
                0.4446     0.8136829578829
 s    1 1.00
                 0.122                   1
 p    1 1.00
                 0.727                   1

15 0
 s    3 1.00
                 13.01   0.033498726389998
                 1.962    0.23480080117413
                0.4446     0.8136829578829
 s    1 1.00
                 0.122                   1
 p    1 1.00
                 0.727                   1

16 0
 s    8 1.00
                  6665  0.00069158396281299
                  1000  0.0053257961529341
                   228   0.027060721042034
                 64.71    0.10165684614077
                 21.06     0.2745748236174
                 7.495    0.44829431892377
                 2.797    0.28490261071525
                0.5215   0.015194859206082
 s    8 1.00
                  6665  -0.00029326965268655
                  1000  -0.0023180354739745
                   228  -0.011499786038565
                 64.71  -0.046826727009787
                 21.06   -0.12846616875047
                 7.495   -0.30126627246289
                 2.797   -0.25563070233011
                0.5215      1.093793361012
 s    1 1.00
                0.1596                   1
 p    3 1.00
                 9.439   0.056979251590039
                 2.002    0.31320721150073
                0.5456    0.76037674173753
 p    1 1.00
                0.1517                   1
 d    1 1.00
                  0.55                   1

17 0
 s    3 1.00
                 13.01   0.033498726389998
                 1.962    0.23480080117413
                0.4446     0.8136829578829
 s    1 1.00
                 0.122                   1
 p    1 1.00
                 0.727                   1

18 0
 s    3 1.00
                 13.01   0.033498726389998
                 1.962    0.23480080117413
                0.4446     0.8136829578829
 s    1 1.00
                 0.122                   1
 p    1 1.00
                 0.727                   1

19 0
 s    8 1.00
                  6665  0.00069158396281299
                  1000  0.0053257961529341
                   228   0.027060721042034
                 64.71    0.10165684614077
                 21.06     0.2745748236174
                 7.495    0.44829431892377
                 2.797    0.28490261071525
                0.5215   0.015194859206082
 s    8 1.00
                  6665  -0.00029326965268655
                  1000  -0.0023180354739745
                   228  -0.011499786038565
                 64.71  -0.046826727009787
                 21.06   -0.12846616875047
                 7.495   -0.30126627246289
                 2.797   -0.25563070233011
                0.5215      1.093793361012
 s    1 1.00
                0.1596                   1
 p    3 1.00
                 9.439   0.056979251590039
                 2.002    0.31320721150073
                0.5456    0.76037674173753
 p    1 1.00
                0.1517                   1
 d    1 1.00
                  0.55                   1

20 0
 s    3 1.00
                 13.01   0.033498726389998
                 1.962    0.23480080117413
                0.4446     0.8136829578829
 s    1 1.00
                 0.122                   1
 p    1 1.00
                 0.727                   1

21 0
 s    8 1.00
                  6665  0.00069158396281299
                  1000  0.0053257961529341
                   228   0.027060721042034
                 64.71    0.10165684614077
                 21.06     0.2745748236174
                 7.495    0.44829431892377
                 2.797    0.28490261071525
                0.5215   0.015194859206082
 s    8 1.00
                  6665  -0.00029326965268655
                  1000  -0.0023180354739745
                   228  -0.011499786038565
                 64.71  -0.046826727009787
                 21.06   -0.12846616875047
                 7.495   -0.30126627246289
                 2.797   -0.25563070233011
                0.5215      1.093793361012
 s    1 1.00
                0.1596                   1
 p    3 1.00
                 9.439   0.056979251590039
                 2.002    0.31320721150073
                0.5456    0.76037674173753
 p    1 1.00
                0.1517                   1
 d    1 1.00
                  0.55                   1

22 0
 s    3 1.00
                 13.01   0.033498726389998
                 1.962    0.23480080117413
                0.4446     0.8136829578829
 s    1 1.00
                 0.122                   1
 p    1 1.00
                 0.727                   1

23 0
 s    3 1.00
                 13.01   0.033498726389998
                 1.962    0.23480080117413
                0.4446     0.8136829578829
 s    1 1.00
                 0.122                   1
 p    1 1.00
                 0.727                   1

24 0
 s    3 1.00
                 13.01   0.033498726389998
                 1.962    0.23480080117413
                0.4446     0.8136829578829
 s    1 1.00
                 0.122                   1
 p    1 1.00
                 0.727                   1

25 0
 s    8 1.00
                  6665  0.00069158396281299
                  1000  0.0053257961529341
                   228   0.027060721042034
                 64.71    0.10165684614077
                 21.06     0.2745748236174
                 7.495    0.44829431892377
                 2.797    0.28490261071525
                0.5215   0.015194859206082
 s    8 1.00
                  6665  -0.00029326965268655
                  1000  -0.0023180354739745
                   228  -0.011499786038565
                 64.71  -0.046826727009787
                 21.06   -0.12846616875047
                 7.495   -0.30126627246289
                 2.797   -0.25563070233011
                0.5215      1.093793361012
 s    1 1.00
                0.1596                   1
 p    3 1.00
                 9.439   0.056979251590039
                 2.002    0.31320721150073
                0.5456    0.76037674173753
 p    1 1.00
                0.1517                   1
 d    1 1.00
                  0.55                   1

26 0
 s    3 1.00
                 13.01   0.033498726389998
                 1.962    0.23480080117413
                0.4446     0.8136829578829
 s    1 1.00
                 0.122                   1
 p    1 1.00
                 0.727                   1

27 0
 s    3 1.00
                 13.01   0.033498726389998
                 1.962    0.23480080117413
                0.4446     0.8136829578829
 s    1 1.00
                 0.122                   1
 p    1 1.00
                 0.727                   1

28 0
 s    8 1.00
                  6665  0.00069158396281299
                  1000  0.0053257961529341
                   228   0.027060721042034
                 64.71    0.10165684614077
                 21.06     0.2745748236174
                 7.495    0.44829431892377
                 2.797    0.28490261071525
                0.5215   0.015194859206082
 s    8 1.00
                  6665  -0.00029326965268655
                  1000  -0.0023180354739745
                   228  -0.011499786038565
                 64.71  -0.046826727009787
                 21.06   -0.12846616875047
                 7.495   -0.30126627246289
                 2.797   -0.25563070233011
                0.5215      1.093793361012
 s    1 1.00
                0.1596                   1
 p    3 1.00
                 9.439   0.056979251590039
                 2.002    0.31320721150073
                0.5456    0.76037674173753
 p    1 1.00
                0.1517                   1
 d    1 1.00
                  0.55                   1

29 0
 s    3 1.00
                 13.01   0.033498726389998
                 1.962    0.23480080117413
                0.4446     0.8136829578829
 s    1 1.00
                 0.122                   1
 p    1 1.00
                 0.727                   1

30 0
 s    3 1.00
                 13.01   0.033498726389998
                 1.962    0.23480080117413
                0.4446     0.8136829578829
 s    1 1.00
                 0.122                   1
 p    1 1.00
                 0.727                   1

31 0
 s    8 1.00
                  6665  0.00069158396281299
                  1000  0.0053257961529341
                   228   0.027060721042034
                 64.71    0.10165684614077
                 21.06     0.2745748236174
                 7.495    0.44829431892377
                 2.797    0.28490261071525
                0.5215   0.015194859206082
 s    8 1.00
                  6665  -0.00029326965268655
                  1000  -0.0023180354739745
                   228  -0.011499786038565
                 64.71  -0.046826727009787
                 21.06   -0.12846616875047
                 7.495   -0.30126627246289
                 2.797   -0.25563070233011
                0.5215      1.093793361012
 s    1 1.00
                0.1596                   1
 p    3 1.00
                 9.439   0.056979251590039
                 2.002    0.31320721150073
                0.5456    0.76037674173753
 p    1 1.00
                0.1517                   1
 d    1 1.00
                  0.55                   1

32 0
 s    3 1.00
                 13.01   0.033498726389998
                 1.962    0.23480080117413
                0.4446     0.8136829578829
 s    1 1.00
                 0.122                   1
 p    1 1.00
                 0.727                   1

33 0
 s    3 1.00
                 13.01   0.033498726389998
                 1.962    0.23480080117413
                0.4446     0.8136829578829
 s    1 1.00
                 0.122                   1
 p    1 1.00
                 0.727                   1

34 0
 s    3 1.00
                 13.01   0.033498726389998
                 1.962    0.23480080117413
                0.4446     0.8136829578829
 s    1 1.00
                 0.122                   1
 p    1 1.00
                 0.727                   1

35 0
 s    3 1.00
                 13.01   0.033498726389998
                 1.962    0.23480080117413
                0.4446     0.8136829578829
 s    1 1.00
                 0.122                   1
 p    1 1.00
                 0.727                   1

36 0
 s    3 1.00
                 13.01   0.033498726389998
                 1.962    0.23480080117413
                0.4446     0.8136829578829
 s    1 1.00
                 0.122                   1
 p    1 1.00
                 0.727                   1

37 0
 s    3 1.00
                 13.01   0.033498726389998
                 1.962    0.23480080117413
                0.4446     0.8136829578829
 s    1 1.00
                 0.122                   1
 p    1 1.00
                 0.727                   1

[5d]
[7f]
[9g]

[MO]
 Sym= A
 Ene=               0
 Spin= Alpha
 Occup=    1.00000
   1    -3.3060304557988e-07
   2    -4.8345042292949e-07
   3    2.9455050711111e-06
   4    -1.0506811477789e-08
   5    1.4481791654522e-07
   6    -5.1728067369525e-07
   7    1.1776223816011e-08
   8    -4.2461953072069e-07
   9    -2.1891677293462e-06
  10    2.278553621054e-07
  11    2.0380673825353e-09
  12    -2.8375177840246e-08
  13    3.0519404303317e-09
  14    3.0734689158389e-10
  15    4.563662158103e-08
  16    -5.2512280714427e-06
  17    7.4056530213902e-09
  18    -1.4408521525983e-08
  19    -7.1605224120669e-07
  20    -1.0975796478536e-07
  21    1.4491131081792e-06
  22    8.0409244862981e-10
  23    -5.6042051872084e-08
  24    3.8781501647826e-08
  25    -8.9003759424947e-07
  26    1.5731151967934e-05
  27    1.9300027206159e-05
  28    -1.4207111345337e-06
  29    -7.836862681922e-05
  30    -3.2182843651796e-05
  31    -5.7530183830145e-05
  32    -3.9977891996638e-05
  33    3.5252673852197e-06
  34    -4.527920092064e-07
  35    1.9739092398868e-06
  36    -4.6892977991508e-07
  37    -4.7361309141011e-07
  38    -3.9589735820569e-07
  39    -5.8400860479331e-05
  40    -0.00014809742671917
  41    0.00068274073563534
  42    -4.4299059315777e-05
  43    5.6521852669771e-05
  44    5.9626843163073e-05
  45    0.0004047262775356
  46    -0.00027388120802594
  47    -0.00023953487788419
  48    1.3318894628448e-05
  49    -4.1522698379201e-05
  50    2.2627901033505e-07
  51    2.1228665979893e-05
  52    -2.1559615582515e-05
  53    1.2977954543531e-05
  54    0.00018799838756143
  55    -0.00042885928978369
  56    0.00017750419596455
  57    0.00023541915926123
  58    -0.00024492545139271
  59    0.00059296205680153
  60    -7.061643912789e-05
  61    -0.00054715631466091
  62    -2.5395402541712e-06
  63    1.9493131583066e-05
  64    -4.2678509872098e-05
  65    -3.223572491948e-05
  66    2.8278618427061e-05
  67    -1.1211996997689e-06
  68    8.1353695594833e-07
  69    -0.00011081935370481
  70    -1.5584291886929e-05
  71    -4.7526911947036e-06
  72    1.3350225951156e-06
  73    0.00015353722300512
  74    -3.1833122543765e-05
  75    -3.5856230871889e-05
  76    8.5966031080651e-06
  77    1.1782204876576e-05
  78    -7.6441066970234e-06
  79    -8.2350749891903e-06
  80    8.3031114952908e-06
  81    -4.3479216551597e-05
  82    4.3069711814032e-05
  83    -9.9262182480954e-06
  84    1.6055631630041e-05
  85    9.3713882506676e-06
  86    -0.00010233603770611
  87    -0.00078858189046169
  88    0.00098975951625493
  89    -0.00066560695867309
  90    -9.3499410239067e-05
  91    0.00061271095073902
  92    0.00038360728658368
  93    -0.0003071063555612
  94    -0.00021382075413364
  95    6.6957073610271e-07
  96    -1.668249725159e-05
  97    -7.3805675857523e-06
  98    5.0382307837324e-06
  99    6.1794528348459e-07
 100    -3.1826980570837e-05
 101    4.7008193895895e-06
 102    -1.7350592067079e-05
 103    1.6216839149323e-05
 104    7.5153336339541e-06
 105    9.9928552617192e-06
 106    4.8920422203182e-06
 107     -1.2486935358e-05
 108    1.8775401448226e-06
 109    -1.9085616243824e-07
 110    -2.2487184500713e-05
 111     2.08976325796e-05
 112    1.5729494191244e-06
 113    -5.673748611377e-07
 114    -1.8694550209166e-06
 115    -1.8061420035162e-05
 116    -2.8177522257695e-05
 117    0.00017371949690897
 118    6.9661148687223e-07
 119    6.0670853925885e-06
 120    -5.0557158392501e-06
 121    0.00017260024080839
 122    -0.00013660820193428
 123    -2.5439311311127e-05
 124    -1.4385355465602e-06
 125    -1.1176141659015e-05
 126    6.4396943859886e-06
 127    6.2664651618359e-06
 128    -9.7283270788962e-06
 129    -0.00035458828411174
 130    -6.6277041310232e-06
 131    -2.1875030506709e-05
 132    3.3102480925176e-05
 133    5.1034557057328e-05
 134    -0.00036978500716745
 135    -2.5136064063654e-05
 136    -6.1230942338229e-05
 137    1.6878096676977e-05
 138    -2.2611008185238e-06
 139    -0.00063042007958621
 140    -0.00027263095850275
 141    -0.0003774806888653
 142    0.00053349458567757
 143    -0.00070885685249338
 144    -0.00019094646374851
 145    0.0015594092436819
 146    -0.00082192294905175
 147    -0.0010365685065327
 148    2.2577092470752e-05
 149    2.0890132967584e-06
 150    -6.5473877765335e-05
 151    -1.7372437337701e-05
 152    7.3830036345183e-05
 153    -3.1691441726388e-06
 154    7.2369202234625e-06
 155    -5.7920393302755e-06
 156    5.0729360492519e-06
 157    -2.985537038184e-06
 158    -1.9267710668171e-05
 159    -1.2186681754484e-05
 160    -5.7303644367063e-06
 161    4.8662359048273e-06
 162    -2.4657003345535e-07
 163    -5.8052183045519e-05
 164    -9.2399330337089e-06
 165    7.8101137007279e-05
 166    1.9457984233272e-06
 167    -1.16284796534e-06
 168    5.0233795528515e-07
 169    4.9416254976533e-05
 170    -5.8217623294019e-06
 171    1.8440900532553e-05
 172    -1.3613057214604e-07
 173    3.8086458978564e-06
 174    -1.7814934805791e-06
 175    1.2661554967302e-06
 176    -3.6122914193062e-07
 177    0.00029821351999559
 178    -5.7944556271585e-05
 179    -8.2193026601491e-05
 180    2.8350483583741e-05
 181    5.5145966491446e-05
 182    -0.036893146281997
 183    -0.00015560179650035
 184    0.0021572525624284
 185    9.7251739660268e-05
 186    -7.1423184663712e-05
 187    -5.6216466411067e-05
 188    0.0010440443327892
 189    -0.00038788096935407
 190    -0.00075152880407973
 191    3.5142944136839e-05
 192    0.00015343298037602
 193    -3.7994834223111e-05
 194    -4.5203097232861e-05
 195    0.00010180566230292
 196    0.00029443994345589
 197    -5.7973211386682e-05
 198    -7.7500617178116e-05
 199    2.9705025878307e-05
 200    6.0548031527874e-05
 201    -1.9155816136416e-06
 202    1.3660664097845e-05
 203    -1.0211627722068e-06
 204    5.7836293070052e-07
 205    1.4688043355201e-07
 206    -4.1233229610524e-06
 207    -1.9197446154103e-05
 208    -1.3116700044399e-06
 209    2.4768563239601e-06
 210    -1.6014708976337e-06
 211    -0.00013092291962521
 212    -6.7523558384777e-06
 213    -7.4699571350891e-06
 214    -3.8742020604564e-06
 215    2.0435665724601e-06
 216    -1.2435985954334e-06
 217    5.4801595797726e-05
 218    -4.1370791217953e-05
 219    2.5314872896916e-05
 220    -6.249314369604e-07
 221    -1.726957953206e-06
 222    1.9443129485341e-06
 223    7.6653385320854e-07
 224    -1.5555300547511e-06
 225    -8.911889745604e-05
 226    0.00011977081006963
 227    2.0813389817225e-05
 228    -5.5036011072616e-05
 229    -2.3250271300393e-05
 230    -9.0567036336585e-05
 231    0.00012619514708255
 232    4.4566913422746e-05
 233    -4.4929547897272e-05
 234    5.4586037002777e-06
 235       1.0017395868233
 236    0.0048487638402984
 237    -0.009937825308819
 238    0.00016581516708197
 239    -0.00014871053898833
 240    -9.1286501211176e-05
 241    0.0010219965035521
 242    -0.00019389333846532
 243    -0.00080355161559908
 244    4.4985323742401e-05
 245    0.00012281787817562
 246    -9.4784308758648e-05
 247    -6.0712842161048e-05
 248    0.00014910254592128
 249    -5.6361913716571e-06
 250    1.3753559428043e-06
 251    -2.2723134272904e-06
 252    2.6532320257806e-06
 253    -1.4079608056746e-06
 254    -3.8141356500169e-06
 255    -3.0135796947805e-06
 256    -2.8564442368497e-06
 257    1.3322507974983e-06
 258    -2.1237648618678e-06
 259    -4.2779612244778e-05
 260    -7.6730143376828e-06
 261    6.2078463202382e-05
 262    1.017912362681e-06