[Molden Format]
made by pyscf v[2.0.1]
[Atoms] (AU)
O   1   8     0.00000000000000     0.00000000000000     7.91818878616346
H   2   1     0.00000000000000     0.00000000000000     6.09478696426249
H   3   1    -0.05031916615174     1.78353065140343     8.29406048263013
O   4   8     0.00000000000000     0.00000000000000     2.31533471513237
C   5   6     0.00000000000000     0.00000000000000     0.00000000000000
C   6   6     2.01118073026938    -1.40227222164369    -1.50774939176400
C   7   6    -2.01249334291722     1.41331050329955    -1.50315905028694
H   8   1     3.32037363730244    -2.26721897153159    -0.13599698591495
C   9   6     3.45899267434009     0.28739631745591    -3.37437943254505
H   10   1     1.07662969841332    -2.94725144642667    -2.56541439481080
H   11   1    -2.67503415753480     0.18421555839588    -3.06194479365997
H   12   1    -1.07974048864772     3.03851734677796    -2.43674295017013
C   13   6    -4.21607110578555     2.32938802552922     0.11994162256091
H   14   1     4.24440173074564     1.93368664142019    -2.34976285512790
H   15   1     2.15020713235517     1.04714335134846    -4.81494497423699
C   16   6     5.60746363007797    -1.12419643481196    -4.70268606082550
H   17   1    -3.46838323670267     3.50951302338067     1.66946842715333
H   18   1    -5.11873485366228     0.68575958301209     1.04047743976495
C   19   6    -6.18314754751344     3.80909592987882    -1.39656589068747
H   20   1     6.93011263717176    -1.87550812453645    -3.26656317360070
C   21   6     7.06356622236532     0.52877932406334    -6.57829775293605
H   22   1     4.82318879258361    -2.78573437948532    -5.70504560381835
H   23   1    -6.91582688743803     2.61304780074712    -2.95074552451969
H   24   1    -5.26532430573853     5.45420349051338    -2.31005832200284
C   25   6    -8.39941882261433     4.73263980500213     0.21800571437956
H   26   1     7.83338371486801     2.19084139882824    -5.57093109900697
H   27   1     5.73544244039420     1.27376866537418    -8.01071492370229
C   28   6     9.21124858443101    -0.89699110072176    -7.88926949186242
H   29   1    -7.66272760055236     5.92277078003992     1.77035591474408
H   30   1    -9.31497248082589     3.08753015622020     1.12614408368786
C   31   6   -10.35481709231879     6.21833079391143    -1.30905206253246
H   32   1    10.58815905329501    -1.61074586756696    -6.49512691622620
H   33   1    10.23506248045667     0.32468009384095    -9.23072870921204
H   34   1     8.47665842847139    -2.53598436989925    -8.94921964622535
H   35   1    -9.48948872868064     7.90013588951020    -2.18823918416067
H   36   1   -11.93332513000955     6.86460487874102    -0.11255798845995
H   37   1   -11.15126291841033     5.04495968327630    -2.83849898862534
[GTO]
1 0
 s    8 1.00
                 11720  0.00070964594651845
                  1759  0.0054672722921914
                 400.8   0.027823118610189
                 113.7    0.10474773971146
                 37.03    0.28292084635691
                 13.27    0.44849523869833
                 5.025    0.27081688521277
                 1.013    0.01545029160744
 s    8 1.00
                 11720  -0.00031444341168873
                  1759  -0.0024821376810179
                 400.8  -0.012316355381583
                 113.7  -0.050538917343672
                 37.03   -0.13938490331632
                 13.27   -0.32507749481778
                 5.025   -0.22984830758785
                 1.013     1.0953793467883
 s    1 1.00
                0.3023                   1
 p    3 1.00
                  17.7   0.062679166281506
                 3.854    0.33353656587936
                 1.046    0.74123964163973
 p    1 1.00
                0.2753                   1
 d    1 1.00
                 1.185                   1

2 0
 s    3 1.00
                 13.01   0.033498726389998
                 1.962    0.23480080117413
                0.4446     0.8136829578829
 s    1 1.00
                 0.122                   1
 p    1 1.00
                 0.727                   1

3 0
 s    3 1.00
                 13.01   0.033498726389998
                 1.962    0.23480080117413
                0.4446     0.8136829578829
 s    1 1.00
                 0.122                   1
 p    1 1.00
                 0.727                   1

4 0
 s    8 1.00
                 11720  0.00070964594651845
                  1759  0.0054672722921914
                 400.8   0.027823118610189
                 113.7    0.10474773971146
                 37.03    0.28292084635691
                 13.27    0.44849523869833
                 5.025    0.27081688521277
                 1.013    0.01545029160744
 s    8 1.00
                 11720  -0.00031444341168873
                  1759  -0.0024821376810179
                 400.8  -0.012316355381583
                 113.7  -0.050538917343672
                 37.03   -0.13938490331632
                 13.27   -0.32507749481778
                 5.025   -0.22984830758785
                 1.013     1.0953793467883
 s    1 1.00
                0.3023                   1
 p    3 1.00
                  17.7   0.062679166281506
                 3.854    0.33353656587936
                 1.046    0.74123964163973
 p    1 1.00
                0.2753                   1
 d    1 1.00
                 1.185                   1

5 0
 s    8 1.00
                  6665  0.00069158396281299
                  1000  0.0053257961529341
                   228   0.027060721042034
                 64.71    0.10165684614077
                 21.06     0.2745748236174
                 7.495    0.44829431892377
                 2.797    0.28490261071525
                0.5215   0.015194859206082
 s    8 1.00
                  6665  -0.00029326965268655
                  1000  -0.0023180354739745
                   228  -0.011499786038565
                 64.71  -0.046826727009787
                 21.06   -0.12846616875047
                 7.495   -0.30126627246289
                 2.797   -0.25563070233011
                0.5215      1.093793361012
 s    1 1.00
                0.1596                   1
 p    3 1.00
                 9.439   0.056979251590039
                 2.002    0.31320721150073
                0.5456    0.76037674173753
 p    1 1.00
                0.1517                   1
 d    1 1.00
                  0.55                   1

6 0
 s    8 1.00
                  6665  0.00069158396281299
                  1000  0.0053257961529341
                   228   0.027060721042034
                 64.71    0.10165684614077
                 21.06     0.2745748236174
                 7.495    0.44829431892377
                 2.797    0.28490261071525
                0.5215   0.015194859206082
 s    8 1.00
                  6665  -0.00029326965268655
                  1000  -0.0023180354739745
                   228  -0.011499786038565
                 64.71  -0.046826727009787
                 21.06   -0.12846616875047
                 7.495   -0.30126627246289
                 2.797   -0.25563070233011
                0.5215      1.093793361012
 s    1 1.00
                0.1596                   1
 p    3 1.00
                 9.439   0.056979251590039
                 2.002    0.31320721150073
                0.5456    0.76037674173753
 p    1 1.00
                0.1517                   1
 d    1 1.00
                  0.55                   1

7 0
 s    8 1.00
                  6665  0.00069158396281299
                  1000  0.0053257961529341
                   228   0.027060721042034
                 64.71    0.10165684614077
                 21.06     0.2745748236174
                 7.495    0.44829431892377
                 2.797    0.28490261071525
                0.5215   0.015194859206082
 s    8 1.00
                  6665  -0.00029326965268655
                  1000  -0.0023180354739745
                   228  -0.011499786038565
                 64.71  -0.046826727009787
                 21.06   -0.12846616875047
                 7.495   -0.30126627246289
                 2.797   -0.25563070233011
                0.5215      1.093793361012
 s    1 1.00
                0.1596                   1
 p    3 1.00
                 9.439   0.056979251590039
                 2.002    0.31320721150073
                0.5456    0.76037674173753
 p    1 1.00
                0.1517                   1
 d    1 1.00
                  0.55                   1

8 0
 s    3 1.00
                 13.01   0.033498726389998
                 1.962    0.23480080117413
                0.4446     0.8136829578829
 s    1 1.00
                 0.122                   1
 p    1 1.00
                 0.727                   1

9 0
 s    8 1.00
                  6665  0.00069158396281299
                  1000  0.0053257961529341
                   228   0.027060721042034
                 64.71    0.10165684614077
                 21.06     0.2745748236174
                 7.495    0.44829431892377
                 2.797    0.28490261071525
                0.5215   0.015194859206082
 s    8 1.00
                  6665  -0.00029326965268655
                  1000  -0.0023180354739745
                   228  -0.011499786038565
                 64.71  -0.046826727009787
                 21.06   -0.12846616875047
                 7.495   -0.30126627246289
                 2.797   -0.25563070233011
                0.5215      1.093793361012
 s    1 1.00
                0.1596                   1
 p    3 1.00
                 9.439   0.056979251590039
                 2.002    0.31320721150073
                0.5456    0.76037674173753
 p    1 1.00
                0.1517                   1
 d    1 1.00
                  0.55                   1

10 0
 s    3 1.00
                 13.01   0.033498726389998
                 1.962    0.23480080117413
                0.4446     0.8136829578829
 s    1 1.00
                 0.122                   1
 p    1 1.00
                 0.727                   1

11 0
 s    3 1.00
                 13.01   0.033498726389998
                 1.962    0.23480080117413
                0.4446     0.8136829578829
 s    1 1.00
                 0.122                   1
 p    1 1.00
                 0.727                   1

12 0
 s    3 1.00
                 13.01   0.033498726389998
                 1.962    0.23480080117413
                0.4446     0.8136829578829
 s    1 1.00
                 0.122                   1
 p    1 1.00
                 0.727                   1

13 0
 s    8 1.00
                  6665  0.00069158396281299
                  1000  0.0053257961529341
                   228   0.027060721042034
                 64.71    0.10165684614077
                 21.06     0.2745748236174
                 7.495    0.44829431892377
                 2.797    0.28490261071525
                0.5215   0.015194859206082
 s    8 1.00
                  6665  -0.00029326965268655
                  1000  -0.0023180354739745
                   228  -0.011499786038565
                 64.71  -0.046826727009787
                 21.06   -0.12846616875047
                 7.495   -0.30126627246289
                 2.797   -0.25563070233011
                0.5215      1.093793361012
 s    1 1.00
                0.1596                   1
 p    3 1.00
                 9.439   0.056979251590039
                 2.002    0.31320721150073
                0.5456    0.76037674173753
 p    1 1.00
                0.1517                   1
 d    1 1.00
                  0.55                   1

14 0
 s    3 1.00
                 13.01   0.033498726389998
                 1.962    0.23480080117413
                0.4446     0.8136829578829
 s    1 1.00
                 0.122                   1
 p    1 1.00
                 0.727                   1

15 0
 s    3 1.00
                 13.01   0.033498726389998
                 1.962    0.23480080117413
                0.4446     0.8136829578829
 s    1 1.00
                 0.122                   1
 p    1 1.00
                 0.727                   1

16 0
 s    8 1.00
                  6665  0.00069158396281299
                  1000  0.0053257961529341
                   228   0.027060721042034
                 64.71    0.10165684614077
                 21.06     0.2745748236174
                 7.495    0.44829431892377
                 2.797    0.28490261071525
                0.5215   0.015194859206082
 s    8 1.00
                  6665  -0.00029326965268655
                  1000  -0.0023180354739745
                   228  -0.011499786038565
                 64.71  -0.046826727009787
                 21.06   -0.12846616875047
                 7.495   -0.30126627246289
                 2.797   -0.25563070233011
                0.5215      1.093793361012
 s    1 1.00
                0.1596                   1
 p    3 1.00
                 9.439   0.056979251590039
                 2.002    0.31320721150073
                0.5456    0.76037674173753
 p    1 1.00
                0.1517                   1
 d    1 1.00
                  0.55                   1

17 0
 s    3 1.00
                 13.01   0.033498726389998
                 1.962    0.23480080117413
                0.4446     0.8136829578829
 s    1 1.00
                 0.122                   1
 p    1 1.00
                 0.727                   1

18 0
 s    3 1.00
                 13.01   0.033498726389998
                 1.962    0.23480080117413
                0.4446     0.8136829578829
 s    1 1.00
                 0.122                   1
 p    1 1.00
                 0.727                   1

19 0
 s    8 1.00
                  6665  0.00069158396281299
                  1000  0.0053257961529341
                   228   0.027060721042034
                 64.71    0.10165684614077
                 21.06     0.2745748236174
                 7.495    0.44829431892377
                 2.797    0.28490261071525
                0.5215   0.015194859206082
 s    8 1.00
                  6665  -0.00029326965268655
                  1000  -0.0023180354739745
                   228  -0.011499786038565
                 64.71  -0.046826727009787
                 21.06   -0.12846616875047
                 7.495   -0.30126627246289
                 2.797   -0.25563070233011
                0.5215      1.093793361012
 s    1 1.00
                0.1596                   1
 p    3 1.00
                 9.439   0.056979251590039
                 2.002    0.31320721150073
                0.5456    0.76037674173753
 p    1 1.00
                0.1517                   1
 d    1 1.00
                  0.55                   1

20 0
 s    3 1.00
                 13.01   0.033498726389998
                 1.962    0.23480080117413
                0.4446     0.8136829578829
 s    1 1.00
                 0.122                   1
 p    1 1.00
                 0.727                   1

21 0
 s    8 1.00
                  6665  0.00069158396281299
                  1000  0.0053257961529341
                   228   0.027060721042034
                 64.71    0.10165684614077
                 21.06     0.2745748236174
                 7.495    0.44829431892377
                 2.797    0.28490261071525
                0.5215   0.015194859206082
 s    8 1.00
                  6665  -0.00029326965268655
                  1000  -0.0023180354739745
                   228  -0.011499786038565
                 64.71  -0.046826727009787
                 21.06   -0.12846616875047
                 7.495   -0.30126627246289
                 2.797   -0.25563070233011
                0.5215      1.093793361012
 s    1 1.00
                0.1596                   1
 p    3 1.00
                 9.439   0.056979251590039
                 2.002    0.31320721150073
                0.5456    0.76037674173753
 p    1 1.00
                0.1517                   1
 d    1 1.00
                  0.55                   1

22 0
 s    3 1.00
                 13.01   0.033498726389998
                 1.962    0.23480080117413
                0.4446     0.8136829578829
 s    1 1.00
                 0.122                   1
 p    1 1.00
                 0.727                   1

23 0
 s    3 1.00
                 13.01   0.033498726389998
                 1.962    0.23480080117413
                0.4446     0.8136829578829
 s    1 1.00
                 0.122                   1
 p    1 1.00
                 0.727                   1

24 0
 s    3 1.00
                 13.01   0.033498726389998
                 1.962    0.23480080117413
                0.4446     0.8136829578829
 s    1 1.00
                 0.122                   1
 p    1 1.00
                 0.727                   1

25 0
 s    8 1.00
                  6665  0.00069158396281299
                  1000  0.0053257961529341
                   228   0.027060721042034
                 64.71    0.10165684614077
                 21.06     0.2745748236174
                 7.495    0.44829431892377
                 2.797    0.28490261071525
                0.5215   0.015194859206082
 s    8 1.00
                  6665  -0.00029326965268655
                  1000  -0.0023180354739745
                   228  -0.011499786038565
                 64.71  -0.046826727009787
                 21.06   -0.12846616875047
                 7.495   -0.30126627246289
                 2.797   -0.25563070233011
                0.5215      1.093793361012
 s    1 1.00
                0.1596                   1
 p    3 1.00
                 9.439   0.056979251590039
                 2.002    0.31320721150073
                0.5456    0.76037674173753
 p    1 1.00
                0.1517                   1
 d    1 1.00
                  0.55                   1

26 0
 s    3 1.00
                 13.01   0.033498726389998
                 1.962    0.23480080117413
                0.4446     0.8136829578829
 s    1 1.00
                 0.122                   1
 p    1 1.00
                 0.727                   1

27 0
 s    3 1.00
                 13.01   0.033498726389998
                 1.962    0.23480080117413
                0.4446     0.8136829578829
 s    1 1.00
                 0.122                   1
 p    1 1.00
                 0.727                   1

28 0
 s    8 1.00
                  6665  0.00069158396281299
                  1000  0.0053257961529341
                   228   0.027060721042034
                 64.71    0.10165684614077
                 21.06     0.2745748236174
                 7.495    0.44829431892377
                 2.797    0.28490261071525
                0.5215   0.015194859206082
 s    8 1.00
                  6665  -0.00029326965268655
                  1000  -0.0023180354739745
                   228  -0.011499786038565
                 64.71  -0.046826727009787
                 21.06   -0.12846616875047
                 7.495   -0.30126627246289
                 2.797   -0.25563070233011
                0.5215      1.093793361012
 s    1 1.00
                0.1596                   1
 p    3 1.00
                 9.439   0.056979251590039
                 2.002    0.31320721150073
                0.5456    0.76037674173753
 p    1 1.00
                0.1517                   1
 d    1 1.00
                  0.55                   1

29 0
 s    3 1.00
                 13.01   0.033498726389998
                 1.962    0.23480080117413
                0.4446     0.8136829578829
 s    1 1.00
                 0.122                   1
 p    1 1.00
                 0.727                   1

30 0
 s    3 1.00
                 13.01   0.033498726389998
                 1.962    0.23480080117413
                0.4446     0.8136829578829
 s    1 1.00
                 0.122                   1
 p    1 1.00
                 0.727                   1

31 0
 s    8 1.00
                  6665  0.00069158396281299
                  1000  0.0053257961529341
                   228   0.027060721042034
                 64.71    0.10165684614077
                 21.06     0.2745748236174
                 7.495    0.44829431892377
                 2.797    0.28490261071525
                0.5215   0.015194859206082
 s    8 1.00
                  6665  -0.00029326965268655
                  1000  -0.0023180354739745
                   228  -0.011499786038565
                 64.71  -0.046826727009787
                 21.06   -0.12846616875047
                 7.495   -0.30126627246289
                 2.797   -0.25563070233011
                0.5215      1.093793361012
 s    1 1.00
                0.1596                   1
 p    3 1.00
                 9.439   0.056979251590039
                 2.002    0.31320721150073
                0.5456    0.76037674173753
 p    1 1.00
                0.1517                   1
 d    1 1.00
                  0.55                   1

32 0
 s    3 1.00
                 13.01   0.033498726389998
                 1.962    0.23480080117413
                0.4446     0.8136829578829
 s    1 1.00
                 0.122                   1
 p    1 1.00
                 0.727                   1

33 0
 s    3 1.00
                 13.01   0.033498726389998
                 1.962    0.23480080117413
                0.4446     0.8136829578829
 s    1 1.00
                 0.122                   1
 p    1 1.00
                 0.727                   1

34 0
 s    3 1.00
                 13.01   0.033498726389998
                 1.962    0.23480080117413
                0.4446     0.8136829578829
 s    1 1.00
                 0.122                   1
 p    1 1.00
                 0.727                   1

35 0
 s    3 1.00
                 13.01   0.033498726389998
                 1.962    0.23480080117413
                0.4446     0.8136829578829
 s    1 1.00
                 0.122                   1
 p    1 1.00
                 0.727                   1

36 0
 s    3 1.00
                 13.01   0.033498726389998
                 1.962    0.23480080117413
                0.4446     0.8136829578829
 s    1 1.00
                 0.122                   1
 p    1 1.00
                 0.727                   1

37 0
 s    3 1.00
                 13.01   0.033498726389998
                 1.962    0.23480080117413
                0.4446     0.8136829578829
 s    1 1.00
                 0.122                   1
 p    1 1.00
                 0.727                   1

[5d]
[7f]
[9g]

[MO]
 Sym= A
 Ene=               0
 Spin= Alpha
 Occup=    1.00000
   1    -8.1233342918793e-07
   2    -1.1952307257775e-06
   3    4.6292613600332e-06
   4    -1.4593621830408e-07
   5    1.507018932668e-06
   6    -2.3081271002814e-06
   7    -1.0147327328843e-07
   8    2.946182093282e-07
   9    -3.7023749951986e-06
  10    -3.1453892419844e-07
  11    3.1124461179763e-07
  12    -2.0932875548577e-07
  13    -4.0277381481929e-08
  14    -1.123477342802e-09
  15    -5.2176157599545e-07
  16    -7.7949513391731e-06
  17    1.2895617681565e-06
  18    -1.0804550741256e-06
  19    2.7178745932522e-06
  20    9.897735752072e-07
  21    -6.7276093023922e-07
  22    1.5617023794627e-08
  23    1.2948576080014e-07
  24    -7.5956658486627e-08
  25    -4.5309050389971e-07
  26    1.6695271087514e-05
  27    1.5597501405769e-05
  28    -1.5003186997974e-06
  29    -7.7913467481385e-05
  30    -3.2539534396727e-05
  31    -5.7784004385892e-05
  32    -4.0342691550731e-05
  33    8.3721638769294e-06
  34    -8.8190819191118e-07
  35    1.9513224426625e-06
  36    -7.1093460216632e-07
  37    -4.4964933971696e-07
  38    -3.9826985183864e-07
  39    -5.8263157670983e-05
  40    -0.00014822606578157
  41    0.00068687284334492
  42    -4.3516766545641e-05
  43    5.9070134847536e-05
  44    6.0539355831044e-05
  45    0.00040523439542115
  46    -0.00027102407210488
  47    -0.00023586603721427
  48    1.4164154407134e-05
  49    -4.167781731457e-05
  50    4.5235124177505e-07
  51    2.1436852263576e-05
  52    -2.165546228657e-05
  53    1.3171774977565e-05
  54    0.00018920613437287
  55    -0.00042618351360791
  56    0.00017736866470251
  57    0.00023610823780688
  58    -0.00024511676108601
  59    0.00059311343519456
  60    -6.9749239882522e-05
  61    -0.00054912602654469
  62    -2.611658858511e-06
  63    1.9958660470352e-05
  64    -4.2634581575278e-05
  65    -3.2569059739817e-05
  66    2.8264848004182e-05
  67    -1.0432430684113e-06
  68    8.1515025994469e-07
  69    -0.00011174773721057
  70    -1.5935294035999e-05
  71    -4.9112129560643e-06
  72    1.2308732122378e-06
  73    0.00015328383380061
  74    -3.23323418578e-05
  75    -3.7124077999456e-05
  76    8.6616283253027e-06
  77    1.1758316855704e-05
  78    -7.5094761450839e-06
  79    -8.1463900222111e-06
  80    8.3701481584856e-06
  81    -4.2873477607331e-05
  82    4.4087327275149e-05
  83    -9.9251078059341e-06
  84    1.6065617927134e-05
  85    9.357290908563e-06
  86    -0.00010265732053221
  87    -0.00079050430378011
  88    0.0009839019620543
  89    -0.0006656554876603
  90    -9.1875703138162e-05
  91    0.00061206110533373
  92    0.00038236331338542
  93    -0.0003051710244505
  94    -0.00021290905478351
  95    9.5124989752085e-07
  96    -1.7159823849887e-05
  97    -7.4847328398692e-06
  98    5.4619786032719e-06
  99    8.5900392099668e-07
 100    -3.1144102374888e-05
 101    5.383099880967e-06
 102    -1.7431207495657e-05
 103    1.6265485957506e-05
 104    7.5877620391846e-06
 105    1.0394491180582e-05
 106    4.999752369885e-06
 107    -1.2447758204069e-05
 108    1.8156627404828e-06
 109    -1.4883671128262e-07
 110    -2.2964621966996e-05
 111    2.0109467785537e-05
 112    1.5942425533174e-06
 113    -5.1140690209049e-07
 114    -1.8431144174162e-06
 115    -1.8048567328804e-05
 116    -2.8105574445729e-05
 117    0.00017442722225129
 118    7.7089001652865e-07
 119    6.005698318511e-06
 120    -5.1779364389769e-06
 121    0.00017243604827202
 122    -0.00013631153074477
 123    -2.6253603083785e-05
 124    -1.426000836982e-06
 125    -1.1173041377646e-05
 126    6.4169272941219e-06
 127    6.2737167945975e-06
 128    -9.7335128407752e-06
 129    -0.00035525956636092
 130    -7.3575384299834e-06
 131    -2.1784248074109e-05
 132    3.3227677699775e-05
 133    5.0986687624607e-05
 134    -0.00037039376419773
 135    -2.535312585909e-05
 136    -6.1205307351076e-05
 137    1.6952836282027e-05
 138    -2.3652450532273e-06
 139    -0.00063030265642337
 140    -0.00026907120783726
 141    -0.00037068304352531
 142    0.00053769241961927
 143    -0.00069860808378208
 144    -0.00019817799075213
 145    0.0015607442216916
 146    -0.00081548392309635
 147    -0.0010398766890395
 148    2.2637578507061e-05
 149    1.3219931509563e-06
 150    -6.6356050716827e-05
 151    -1.7591203099958e-05
 152    7.4343800677623e-05
 153    -3.1798623462994e-06
 154    7.8507017801111e-06
 155    -5.7893229016244e-06
 156    5.0298608976927e-06
 157    -3.0030600748786e-06
 158    -1.9290588418244e-05
 159    -1.2091548181136e-05
 160    -5.7182729779208e-06
 161    4.8570847008779e-06
 162    -2.3043778190381e-07
 163    -6.218635892381e-05
 164    -9.1529992100013e-06
 165    7.7299074721337e-05
 166    1.9711816694991e-06
 167    -1.1544142521109e-06
 168    5.1670421147553e-07
 169    4.9026128920098e-05
 170    -5.644632818767e-06
 171    1.8227354767655e-05
 172    -1.2498234493891e-07
 173    3.7887506342933e-06
 174    -1.7695649503431e-06
 175    1.2548380283643e-06
 176    -3.4766268052918e-07
 177    0.00029456476812553
 178    -6.0504008488019e-05
 179    -8.205885662231e-05
 180    2.8495144370879e-05
 181    5.5261145943603e-05
 182    -0.037527668313898
 183    -0.00015135006027214
 184    0.0021651114456145
 185    9.1333456267532e-05
 186    -7.735963316028e-05
 187    -4.8851053648828e-05
 188     0.001040246129639
 189    -0.00039005163740501
 190    -0.00074761991003897
 191    3.5470017291522e-05
 192    0.00015336106600373
 193    -3.8937826714599e-05
 194    -4.5413453125794e-05
 195    0.00010283916229169
 196    0.0002907111960184
 197    -6.0373688523685e-05
 198    -7.7636713082856e-05
 199    2.9725363768173e-05
 200     6.03483993703e-05
 201    -1.9205026619219e-06
 202    1.3533459386086e-05
 203    -1.0127819542706e-06
 204    5.6743282737398e-07
 205    1.4343683608296e-07
 206    -4.0903743832569e-06
 207    -1.9139214611087e-05
 208    -1.3033302138025e-06
 209    2.4679704288589e-06
 210    -1.5929722561632e-06
 211    -0.00013409015714287
 212    -6.775208041874e-06
 213    -7.1955010910256e-06
 214    -3.8545203783042e-06
 215    2.036615924125e-06
 216    -1.2538977629913e-06
 217    5.4804263919905e-05
 218    -4.1309188525751e-05
 219    2.5294480012961e-05
 220    -6.2746461941028e-07
 221    -1.7266108315173e-06
 222    1.9426420078888e-06
 223    7.7182661323277e-07
 224    -1.5559589028022e-06
 225    -8.9554466858814e-05
 226    0.00011762263809607
 227    2.0636484322893e-05
 228    -5.5464086247827e-05
 229    -2.327534758137e-05
 230    -9.1040859404538e-05
 231    0.00012400421508134
 232    4.4707424910508e-05
 233    -4.5219151477989e-05
 234    5.7844806828117e-06
 235       1.0017158812287
 236    0.0048484214991245
 237    -0.0099372388788551
 238    0.00016293295415001
 239    -0.00014736586723965
 240    -9.0027048878273e-05
 241    0.0010230900388657
 242    -0.00019343750102816
 243    -0.00080451259938098
 244    4.4978764130784e-05
 245    0.0001221896040669
 246    -9.4504349843748e-05
 247    -6.0388866256551e-05
 248    0.00014891089895645
 249    -5.6353841603597e-06
 250    1.2304564035919e-06
 251    -2.2687387383467e-06
 252    2.6542087458067e-06
 253    -1.404080153796e-06
 254    -3.8172824792784e-06
 255    -2.9940042383801e-06
 256    -2.8515181024989e-06
 257    1.3323406981994e-06
 258    -2.1245881660172e-06
 259    -3.9964032108486e-05
 260    -7.6294498450342e-06
 261    6.1889069559902e-05
 262    1.0159685635701e-06