[Molden Format]
made by pyscf v[2.0.1]
[Atoms] (AU)
O   1   8     0.00000000000000     0.00000000000000    10.94175058546756
H   2   1     0.00000000000000     0.00000000000000     9.11834876356659
H   3   1    -0.05031916615174     1.78353065140343    11.31762228193423
O   4   8     0.00000000000000     0.00000000000000     2.31533471513237
C   5   6     0.00000000000000     0.00000000000000     0.00000000000000
C   6   6     2.01118073026938    -1.40227222164369    -1.50774939176400
C   7   6    -2.01249334291722     1.41331050329955    -1.50315905028694
H   8   1     3.32037363730244    -2.26721897153159    -0.13599698591495
C   9   6     3.45899267434009     0.28739631745591    -3.37437943254505
H   10   1     1.07662969841332    -2.94725144642667    -2.56541439481080
H   11   1    -2.67503415753480     0.18421555839588    -3.06194479365997
H   12   1    -1.07974048864772     3.03851734677796    -2.43674295017013
C   13   6    -4.21607110578555     2.32938802552922     0.11994162256091
H   14   1     4.24440173074564     1.93368664142019    -2.34976285512790
H   15   1     2.15020713235517     1.04714335134846    -4.81494497423699
C   16   6     5.60746363007797    -1.12419643481196    -4.70268606082550
H   17   1    -3.46838323670267     3.50951302338067     1.66946842715333
H   18   1    -5.11873485366228     0.68575958301209     1.04047743976495
C   19   6    -6.18314754751344     3.80909592987882    -1.39656589068747
H   20   1     6.93011263717176    -1.87550812453645    -3.26656317360070
C   21   6     7.06356622236532     0.52877932406334    -6.57829775293605
H   22   1     4.82318879258361    -2.78573437948532    -5.70504560381835
H   23   1    -6.91582688743803     2.61304780074712    -2.95074552451969
H   24   1    -5.26532430573853     5.45420349051338    -2.31005832200284
C   25   6    -8.39941882261433     4.73263980500213     0.21800571437956
H   26   1     7.83338371486801     2.19084139882824    -5.57093109900697
H   27   1     5.73544244039420     1.27376866537418    -8.01071492370229
C   28   6     9.21124858443101    -0.89699110072176    -7.88926949186242
H   29   1    -7.66272760055236     5.92277078003992     1.77035591474408
H   30   1    -9.31497248082589     3.08753015622020     1.12614408368786
C   31   6   -10.35481709231879     6.21833079391143    -1.30905206253246
H   32   1    10.58815905329501    -1.61074586756696    -6.49512691622620
H   33   1    10.23506248045667     0.32468009384095    -9.23072870921204
H   34   1     8.47665842847139    -2.53598436989925    -8.94921964622535
H   35   1    -9.48948872868064     7.90013588951020    -2.18823918416067
H   36   1   -11.93332513000955     6.86460487874102    -0.11255798845995
H   37   1   -11.15126291841033     5.04495968327630    -2.83849898862534
[GTO]
1 0
 s    8 1.00
                 11720  0.00070964594651845
                  1759  0.0054672722921914
                 400.8   0.027823118610189
                 113.7    0.10474773971146
                 37.03    0.28292084635691
                 13.27    0.44849523869833
                 5.025    0.27081688521277
                 1.013    0.01545029160744
 s    8 1.00
                 11720  -0.00031444341168873
                  1759  -0.0024821376810179
                 400.8  -0.012316355381583
                 113.7  -0.050538917343672
                 37.03   -0.13938490331632
                 13.27   -0.32507749481778
                 5.025   -0.22984830758785
                 1.013     1.0953793467883
 s    1 1.00
                0.3023                   1
 p    3 1.00
                  17.7   0.062679166281506
                 3.854    0.33353656587936
                 1.046    0.74123964163973
 p    1 1.00
                0.2753                   1
 d    1 1.00
                 1.185                   1

2 0
 s    3 1.00
                 13.01   0.033498726389998
                 1.962    0.23480080117413
                0.4446     0.8136829578829
 s    1 1.00
                 0.122                   1
 p    1 1.00
                 0.727                   1

3 0
 s    3 1.00
                 13.01   0.033498726389998
                 1.962    0.23480080117413
                0.4446     0.8136829578829
 s    1 1.00
                 0.122                   1
 p    1 1.00
                 0.727                   1

4 0
 s    8 1.00
                 11720  0.00070964594651845
                  1759  0.0054672722921914
                 400.8   0.027823118610189
                 113.7    0.10474773971146
                 37.03    0.28292084635691
                 13.27    0.44849523869833
                 5.025    0.27081688521277
                 1.013    0.01545029160744
 s    8 1.00
                 11720  -0.00031444341168873
                  1759  -0.0024821376810179
                 400.8  -0.012316355381583
                 113.7  -0.050538917343672
                 37.03   -0.13938490331632
                 13.27   -0.32507749481778
                 5.025   -0.22984830758785
                 1.013     1.0953793467883
 s    1 1.00
                0.3023                   1
 p    3 1.00
                  17.7   0.062679166281506
                 3.854    0.33353656587936
                 1.046    0.74123964163973
 p    1 1.00
                0.2753                   1
 d    1 1.00
                 1.185                   1

5 0
 s    8 1.00
                  6665  0.00069158396281299
                  1000  0.0053257961529341
                   228   0.027060721042034
                 64.71    0.10165684614077
                 21.06     0.2745748236174
                 7.495    0.44829431892377
                 2.797    0.28490261071525
                0.5215   0.015194859206082
 s    8 1.00
                  6665  -0.00029326965268655
                  1000  -0.0023180354739745
                   228  -0.011499786038565
                 64.71  -0.046826727009787
                 21.06   -0.12846616875047
                 7.495   -0.30126627246289
                 2.797   -0.25563070233011
                0.5215      1.093793361012
 s    1 1.00
                0.1596                   1
 p    3 1.00
                 9.439   0.056979251590039
                 2.002    0.31320721150073
                0.5456    0.76037674173753
 p    1 1.00
                0.1517                   1
 d    1 1.00
                  0.55                   1

6 0
 s    8 1.00
                  6665  0.00069158396281299
                  1000  0.0053257961529341
                   228   0.027060721042034
                 64.71    0.10165684614077
                 21.06     0.2745748236174
                 7.495    0.44829431892377
                 2.797    0.28490261071525
                0.5215   0.015194859206082
 s    8 1.00
                  6665  -0.00029326965268655
                  1000  -0.0023180354739745
                   228  -0.011499786038565
                 64.71  -0.046826727009787
                 21.06   -0.12846616875047
                 7.495   -0.30126627246289
                 2.797   -0.25563070233011
                0.5215      1.093793361012
 s    1 1.00
                0.1596                   1
 p    3 1.00
                 9.439   0.056979251590039
                 2.002    0.31320721150073
                0.5456    0.76037674173753
 p    1 1.00
                0.1517                   1
 d    1 1.00
                  0.55                   1

7 0
 s    8 1.00
                  6665  0.00069158396281299
                  1000  0.0053257961529341
                   228   0.027060721042034
                 64.71    0.10165684614077
                 21.06     0.2745748236174
                 7.495    0.44829431892377
                 2.797    0.28490261071525
                0.5215   0.015194859206082
 s    8 1.00
                  6665  -0.00029326965268655
                  1000  -0.0023180354739745
                   228  -0.011499786038565
                 64.71  -0.046826727009787
                 21.06   -0.12846616875047
                 7.495   -0.30126627246289
                 2.797   -0.25563070233011
                0.5215      1.093793361012
 s    1 1.00
                0.1596                   1
 p    3 1.00
                 9.439   0.056979251590039
                 2.002    0.31320721150073
                0.5456    0.76037674173753
 p    1 1.00
                0.1517                   1
 d    1 1.00
                  0.55                   1

8 0
 s    3 1.00
                 13.01   0.033498726389998
                 1.962    0.23480080117413
                0.4446     0.8136829578829
 s    1 1.00
                 0.122                   1
 p    1 1.00
                 0.727                   1

9 0
 s    8 1.00
                  6665  0.00069158396281299
                  1000  0.0053257961529341
                   228   0.027060721042034
                 64.71    0.10165684614077
                 21.06     0.2745748236174
                 7.495    0.44829431892377
                 2.797    0.28490261071525
                0.5215   0.015194859206082
 s    8 1.00
                  6665  -0.00029326965268655
                  1000  -0.0023180354739745
                   228  -0.011499786038565
                 64.71  -0.046826727009787
                 21.06   -0.12846616875047
                 7.495   -0.30126627246289
                 2.797   -0.25563070233011
                0.5215      1.093793361012
 s    1 1.00
                0.1596                   1
 p    3 1.00
                 9.439   0.056979251590039
                 2.002    0.31320721150073
                0.5456    0.76037674173753
 p    1 1.00
                0.1517                   1
 d    1 1.00
                  0.55                   1

10 0
 s    3 1.00
                 13.01   0.033498726389998
                 1.962    0.23480080117413
                0.4446     0.8136829578829
 s    1 1.00
                 0.122                   1
 p    1 1.00
                 0.727                   1

11 0
 s    3 1.00
                 13.01   0.033498726389998
                 1.962    0.23480080117413
                0.4446     0.8136829578829
 s    1 1.00
                 0.122                   1
 p    1 1.00
                 0.727                   1

12 0
 s    3 1.00
                 13.01   0.033498726389998
                 1.962    0.23480080117413
                0.4446     0.8136829578829
 s    1 1.00
                 0.122                   1
 p    1 1.00
                 0.727                   1

13 0
 s    8 1.00
                  6665  0.00069158396281299
                  1000  0.0053257961529341
                   228   0.027060721042034
                 64.71    0.10165684614077
                 21.06     0.2745748236174
                 7.495    0.44829431892377
                 2.797    0.28490261071525
                0.5215   0.015194859206082
 s    8 1.00
                  6665  -0.00029326965268655
                  1000  -0.0023180354739745
                   228  -0.011499786038565
                 64.71  -0.046826727009787
                 21.06   -0.12846616875047
                 7.495   -0.30126627246289
                 2.797   -0.25563070233011
                0.5215      1.093793361012
 s    1 1.00
                0.1596                   1
 p    3 1.00
                 9.439   0.056979251590039
                 2.002    0.31320721150073
                0.5456    0.76037674173753
 p    1 1.00
                0.1517                   1
 d    1 1.00
                  0.55                   1

14 0
 s    3 1.00
                 13.01   0.033498726389998
                 1.962    0.23480080117413
                0.4446     0.8136829578829
 s    1 1.00
                 0.122                   1
 p    1 1.00
                 0.727                   1

15 0
 s    3 1.00
                 13.01   0.033498726389998
                 1.962    0.23480080117413
                0.4446     0.8136829578829
 s    1 1.00
                 0.122                   1
 p    1 1.00
                 0.727                   1

16 0
 s    8 1.00
                  6665  0.00069158396281299
                  1000  0.0053257961529341
                   228   0.027060721042034
                 64.71    0.10165684614077
                 21.06     0.2745748236174
                 7.495    0.44829431892377
                 2.797    0.28490261071525
                0.5215   0.015194859206082
 s    8 1.00
                  6665  -0.00029326965268655
                  1000  -0.0023180354739745
                   228  -0.011499786038565
                 64.71  -0.046826727009787
                 21.06   -0.12846616875047
                 7.495   -0.30126627246289
                 2.797   -0.25563070233011
                0.5215      1.093793361012
 s    1 1.00
                0.1596                   1
 p    3 1.00
                 9.439   0.056979251590039
                 2.002    0.31320721150073
                0.5456    0.76037674173753
 p    1 1.00
                0.1517                   1
 d    1 1.00
                  0.55                   1

17 0
 s    3 1.00
                 13.01   0.033498726389998
                 1.962    0.23480080117413
                0.4446     0.8136829578829
 s    1 1.00
                 0.122                   1
 p    1 1.00
                 0.727                   1

18 0
 s    3 1.00
                 13.01   0.033498726389998
                 1.962    0.23480080117413
                0.4446     0.8136829578829
 s    1 1.00
                 0.122                   1
 p    1 1.00
                 0.727                   1

19 0
 s    8 1.00
                  6665  0.00069158396281299
                  1000  0.0053257961529341
                   228   0.027060721042034
                 64.71    0.10165684614077
                 21.06     0.2745748236174
                 7.495    0.44829431892377
                 2.797    0.28490261071525
                0.5215   0.015194859206082
 s    8 1.00
                  6665  -0.00029326965268655
                  1000  -0.0023180354739745
                   228  -0.011499786038565
                 64.71  -0.046826727009787
                 21.06   -0.12846616875047
                 7.495   -0.30126627246289
                 2.797   -0.25563070233011
                0.5215      1.093793361012
 s    1 1.00
                0.1596                   1
 p    3 1.00
                 9.439   0.056979251590039
                 2.002    0.31320721150073
                0.5456    0.76037674173753
 p    1 1.00
                0.1517                   1
 d    1 1.00
                  0.55                   1

20 0
 s    3 1.00
                 13.01   0.033498726389998
                 1.962    0.23480080117413
                0.4446     0.8136829578829
 s    1 1.00
                 0.122                   1
 p    1 1.00
                 0.727                   1

21 0
 s    8 1.00
                  6665  0.00069158396281299
                  1000  0.0053257961529341
                   228   0.027060721042034
                 64.71    0.10165684614077
                 21.06     0.2745748236174
                 7.495    0.44829431892377
                 2.797    0.28490261071525
                0.5215   0.015194859206082
 s    8 1.00
                  6665  -0.00029326965268655
                  1000  -0.0023180354739745
                   228  -0.011499786038565
                 64.71  -0.046826727009787
                 21.06   -0.12846616875047
                 7.495   -0.30126627246289
                 2.797   -0.25563070233011
                0.5215      1.093793361012
 s    1 1.00
                0.1596                   1
 p    3 1.00
                 9.439   0.056979251590039
                 2.002    0.31320721150073
                0.5456    0.76037674173753
 p    1 1.00
                0.1517                   1
 d    1 1.00
                  0.55                   1

22 0
 s    3 1.00
                 13.01   0.033498726389998
                 1.962    0.23480080117413
                0.4446     0.8136829578829
 s    1 1.00
                 0.122                   1
 p    1 1.00
                 0.727                   1

23 0
 s    3 1.00
                 13.01   0.033498726389998
                 1.962    0.23480080117413
                0.4446     0.8136829578829
 s    1 1.00
                 0.122                   1
 p    1 1.00
                 0.727                   1

24 0
 s    3 1.00
                 13.01   0.033498726389998
                 1.962    0.23480080117413
                0.4446     0.8136829578829
 s    1 1.00
                 0.122                   1
 p    1 1.00
                 0.727                   1

25 0
 s    8 1.00
                  6665  0.00069158396281299
                  1000  0.0053257961529341
                   228   0.027060721042034
                 64.71    0.10165684614077
                 21.06     0.2745748236174
                 7.495    0.44829431892377
                 2.797    0.28490261071525
                0.5215   0.015194859206082
 s    8 1.00
                  6665  -0.00029326965268655
                  1000  -0.0023180354739745
                   228  -0.011499786038565
                 64.71  -0.046826727009787
                 21.06   -0.12846616875047
                 7.495   -0.30126627246289
                 2.797   -0.25563070233011
                0.5215      1.093793361012
 s    1 1.00
                0.1596                   1
 p    3 1.00
                 9.439   0.056979251590039
                 2.002    0.31320721150073
                0.5456    0.76037674173753
 p    1 1.00
                0.1517                   1
 d    1 1.00
                  0.55                   1

26 0
 s    3 1.00
                 13.01   0.033498726389998
                 1.962    0.23480080117413
                0.4446     0.8136829578829
 s    1 1.00
                 0.122                   1
 p    1 1.00
                 0.727                   1

27 0
 s    3 1.00
                 13.01   0.033498726389998
                 1.962    0.23480080117413
                0.4446     0.8136829578829
 s    1 1.00
                 0.122                   1
 p    1 1.00
                 0.727                   1

28 0
 s    8 1.00
                  6665  0.00069158396281299
                  1000  0.0053257961529341
                   228   0.027060721042034
                 64.71    0.10165684614077
                 21.06     0.2745748236174
                 7.495    0.44829431892377
                 2.797    0.28490261071525
                0.5215   0.015194859206082
 s    8 1.00
                  6665  -0.00029326965268655
                  1000  -0.0023180354739745
                   228  -0.011499786038565
                 64.71  -0.046826727009787
                 21.06   -0.12846616875047
                 7.495   -0.30126627246289
                 2.797   -0.25563070233011
                0.5215      1.093793361012
 s    1 1.00
                0.1596                   1
 p    3 1.00
                 9.439   0.056979251590039
                 2.002    0.31320721150073
                0.5456    0.76037674173753
 p    1 1.00
                0.1517                   1
 d    1 1.00
                  0.55                   1

29 0
 s    3 1.00
                 13.01   0.033498726389998
                 1.962    0.23480080117413
                0.4446     0.8136829578829
 s    1 1.00
                 0.122                   1
 p    1 1.00
                 0.727                   1

30 0
 s    3 1.00
                 13.01   0.033498726389998
                 1.962    0.23480080117413
                0.4446     0.8136829578829
 s    1 1.00
                 0.122                   1
 p    1 1.00
                 0.727                   1

31 0
 s    8 1.00
                  6665  0.00069158396281299
                  1000  0.0053257961529341
                   228   0.027060721042034
                 64.71    0.10165684614077
                 21.06     0.2745748236174
                 7.495    0.44829431892377
                 2.797    0.28490261071525
                0.5215   0.015194859206082
 s    8 1.00
                  6665  -0.00029326965268655
                  1000  -0.0023180354739745
                   228  -0.011499786038565
                 64.71  -0.046826727009787
                 21.06   -0.12846616875047
                 7.495   -0.30126627246289
                 2.797   -0.25563070233011
                0.5215      1.093793361012
 s    1 1.00
                0.1596                   1
 p    3 1.00
                 9.439   0.056979251590039
                 2.002    0.31320721150073
                0.5456    0.76037674173753
 p    1 1.00
                0.1517                   1
 d    1 1.00
                  0.55                   1

32 0
 s    3 1.00
                 13.01   0.033498726389998
                 1.962    0.23480080117413
                0.4446     0.8136829578829
 s    1 1.00
                 0.122                   1
 p    1 1.00
                 0.727                   1

33 0
 s    3 1.00
                 13.01   0.033498726389998
                 1.962    0.23480080117413
                0.4446     0.8136829578829
 s    1 1.00
                 0.122                   1
 p    1 1.00
                 0.727                   1

34 0
 s    3 1.00
                 13.01   0.033498726389998
                 1.962    0.23480080117413
                0.4446     0.8136829578829
 s    1 1.00
                 0.122                   1
 p    1 1.00
                 0.727                   1

35 0
 s    3 1.00
                 13.01   0.033498726389998
                 1.962    0.23480080117413
                0.4446     0.8136829578829
 s    1 1.00
                 0.122                   1
 p    1 1.00
                 0.727                   1

36 0
 s    3 1.00
                 13.01   0.033498726389998
                 1.962    0.23480080117413
                0.4446     0.8136829578829
 s    1 1.00
                 0.122                   1
 p    1 1.00
                 0.727                   1

37 0
 s    3 1.00
                 13.01   0.033498726389998
                 1.962    0.23480080117413
                0.4446     0.8136829578829
 s    1 1.00
                 0.122                   1
 p    1 1.00
                 0.727                   1

[5d]
[7f]
[9g]

[MO]
 Sym= A
 Ene=               0
 Spin= Alpha
 Occup=    1.00000
   1    -1.8519416886847e-07
   2    -2.634594856309e-07
   3    1.7189754165294e-06
   4    -3.066957665902e-09
   5    5.1127438173766e-08
   6    -2.6429374048251e-07
   7    9.2004459615055e-09
   8    -3.1902783454655e-07
   9    -1.3281489636427e-06
  10    1.4216715529624e-07
  11    3.8260712289969e-10
  12    -1.4805093872413e-08
  13    6.6635859671146e-09
  14    4.1572532486983e-10
  15    7.1383006987905e-08
  16    -3.2839128220019e-06
  17    3.2376412158042e-10
  18    9.4108740011255e-09
  19    -4.9005123037232e-07
  20    -8.4322739706412e-08
  21    1.0605157751251e-06
  22    1.2205639527557e-09
  23    -5.2372997954955e-08
  24    2.5768224268855e-08
  25    -9.4119710096055e-07
  26    1.5575593491118e-05
  27    1.9580117262468e-05
  28    -1.4093654351548e-06
  29    -7.8409940635494e-05
  30    -3.2206433104583e-05
  31    -5.751807541863e-05
  32    -3.9912834203192e-05
  33    3.1787189250988e-06
  34    -4.1055470089208e-07
  35    1.9780957599272e-06
  36    -4.4345909227374e-07
  37    -4.7740834986054e-07
  38    -3.9571433556857e-07
  39    -5.839683644432e-05
  40    -0.00014800682831217
  41    0.00068250870728128
  42    -4.4397062295182e-05
  43    5.6167169759995e-05
  44    5.9573863542326e-05
  45    0.00040469093331251
  46    -0.00027427343110773
  47    -0.00023980851715397
  48    1.3237967437102e-05
  49    -4.1496776974378e-05
  50    1.9835857714721e-07
  51    2.1202161769919e-05
  52    -2.1556142174668e-05
  53    1.2951336714076e-05
  54    0.00018781374779492
  55    -0.00042927924197971
  56    0.00017751278453094
  57    0.00023530580450765
  58    -0.00024488543221941
  59    0.00059290019028434
  60    -7.0750011812858e-05
  61    -0.00054694037960725
  62    -2.5258541268345e-06
  63    1.942826385833e-05
  64    -4.2688653689749e-05
  65    -3.2188244783477e-05
  66    2.8282208103175e-05
  67    -1.1303008617841e-06
  68    8.0658747750522e-07
  69    -0.00011071303957435
  70    -1.5541722257027e-05
  71    -4.7281069554357e-06
  72    1.3441545970004e-06
  73    0.0001535944714194
  74    -3.1784923512312e-05
  75    -3.5745416217487e-05
  76    8.5908378686435e-06
  77    1.1782552049768e-05
  78    -7.6614320410643e-06
  79    -8.2494751895051e-06
  80    8.2982725726353e-06
  81    -4.3566668484927e-05
  82    4.2952817815538e-05
  83    -9.9241544445066e-06
  84    1.6052138123151e-05
  85    9.374459962108e-06
  86    -0.00010228659346045
  87    -0.00078828016336337
  88    0.00099072022328556
  89    -0.00066557423520985
  90    -9.3747363714285e-05
  91    0.00061279071752986
  92    0.00038387135180444
  93    -0.00030737722051126
  94    -0.00021400768244987
  95    6.2412075199443e-07
  96    -1.660650097631e-05
  97    -7.3626568195209e-06
  98    4.9724707334358e-06
  99    5.7283465309788e-07
 100    -3.1927224860964e-05
 101    4.5770368415681e-06
 102    -1.7342339076091e-05
 103    1.6209098289082e-05
 104    7.5070814958932e-06
 105    9.9347730314209e-06
 106    4.8669485897901e-06
 107    -1.2491388666377e-05
 108    1.8827572324045e-06
 109    -1.9454175862368e-07
 110    -2.2424865778154e-05
 111    2.0999821831646e-05
 112    1.5717775816649e-06
 113    -5.7285352828659e-07
 114    -1.8716229726153e-06
 115    -1.8069315953431e-05
 116    -2.8194373448898e-05
 117    0.00017365401236146
 118    6.8316729500555e-07
 119    6.0706061101335e-06
 120    -5.0355447068341e-06
 121    0.00017261675731033
 122    -0.00013664570950784
 123    -2.53610568251e-05
 124    -1.4388016455911e-06
 125    -1.1177879457109e-05
 126    6.4420890207769e-06
 127    6.2653674855996e-06
 128    -9.7267037702515e-06
 129    -0.00035446450936365
 130    -6.5281200853733e-06
 131    -2.1888659018062e-05
 132    3.3082234423389e-05
 133    5.1043363523036e-05
 134    -0.0003696845737778
 135    -2.5094737573013e-05
 136    -6.1236457760676e-05
 137    1.686539921635e-05
 138    -2.2428529569102e-06
 139    -0.00063043711832504
 140    -0.00027322061765338
 141    -0.00037863229379322
 142    0.0005327754903862
 143    -0.0007105823695824
 144    -0.00018971330897617
 145    0.0015592023344898
 146    -0.00082300431204492
 147    -0.0010360131297527
 148    2.2566318512444e-05
 149    2.2230347180709e-06
 150    -6.5325734842522e-05
 151    -1.7337519546731e-05
 152    7.3743259670688e-05
 153    -3.1725701137576e-06
 154    7.2000540173901e-06
 155    -5.7905738266103e-06
 156    5.0777399575618e-06
 157    -2.9815940561717e-06
 158    -1.9259389364395e-05
 159    -1.218858401621e-05
 160    -5.7309939458384e-06
 161    4.8657420292577e-06
 162    -2.4815133963546e-07
 163    -5.7619764837725e-05
 164    -9.2511480663963e-06
 165    7.8206863693473e-05
 166    1.9398702714518e-06
 167    -1.1625311891084e-06
 168    5.0024848119608e-07
 169    4.9442688222684e-05
 170    -5.8348175044943e-06
 171    1.8466932494547e-05
 172    -1.3694034602419e-07
 173    3.8116670604607e-06
 174    -1.7832652045914e-06
 175    1.2662927992981e-06
 176    -3.6143379163233e-07
 177    0.00029883348500719
 178    -5.7511538003359e-05
 179    -8.2217624207094e-05
 180    2.8324535808156e-05
 181    5.5127441734264e-05
 182    -0.036786510362528
 183    -0.0001563289637158
 184    0.0021559105221275
 185    9.8258954478595e-05
 186    -7.041308074665e-05
 187    -5.7468391739494e-05
 188    0.0010446970495427
 189    -0.00038751549716112
 190    -0.00075221042023249
 191    3.5086621411352e-05
 192    0.0001534424261219
 193    -3.7833540888422e-05
 194    -4.5166193095612e-05
 195    0.00010162804307899
 196    0.00029507649424737
 197    -5.7561018784867e-05
 198    -7.7479188078437e-05
 199    2.9701109046501e-05
 200    6.0583145327418e-05
 201    -1.9154721986089e-06
 202    1.3672863833053e-05
 203    -1.0223238190434e-06
 204    5.7955562458236e-07
 205    1.4763706480289e-07
 206    -4.127398202238e-06
 207    -1.9203315472973e-05
 208    -1.3127332413081e-06
 209    2.4779280811852e-06
 210    -1.601882623772e-06
 211    -0.00012114099697219
 212    -6.7021325736398e-06
 213    -7.6052108965469e-06
 214    -3.8769361369119e-06
 215    2.0446631140879e-06
 216    -1.2407501143585e-06
 217    5.4797861009137e-05
 218    -4.1376738735398e-05
 219    2.5327180775688e-05
 220    -6.2423155757769e-07
 221    -1.7268557046589e-06
 222    1.9448507924457e-06
 223    7.6453787790719e-07
 224    -1.5529791439738e-06
 225    -8.9045623978787e-05
 226    0.00012013779565967
 227    2.0842950119952e-05
 228    -5.4963591788456e-05
 229    -2.3245544531212e-05
 230    -9.048807791985e-05
 231    0.00012656150909722
 232    4.4542878945147e-05
 233    -4.4880089977623e-05
 234    5.4038484289722e-06
 235       1.0017435342602
 236    0.0048488253825759
 237    -0.0099379334645111
 238    0.00016630301232722
 239    -0.00014895642573123
 240    -9.1493731174196e-05
 241    0.0010218181021441
 242    -0.00019396592552159
 243    -0.00080339336886872
 244    4.4986350936342e-05
 245    0.0001229286325965
 246    -9.4829621543586e-05
 247    -6.0769004623783e-05
 248    0.00014913437007315
 249    -5.6340567870768e-06
 250    1.4010938854915e-06
 251    -2.2708207527799e-06
 252    2.6555059005122e-06
 253    -1.4060608573407e-06
 254    -3.8122916636097e-06
 255    -3.003710706738e-06
 256    -2.8587523724718e-06
 257    1.3288247859449e-06
 258    -2.122567518004e-06
 259    -4.2211732638255e-05
 260    -7.6732625613241e-06
 261    6.2113205377064e-05
 262    1.0192121768059e-06