[Molden Format]
made by pyscf v[2.0.1]
[Atoms] (AU)
O   1   8     0.00000000000000     0.00000000000000     9.80791491072852
H   2   1     0.00000000000000     0.00000000000000     7.98451308882755
H   3   1    -0.05031916615174     1.78353065140343    10.18378660719519
O   4   8     0.00000000000000     0.00000000000000     2.31533471513237
C   5   6     0.00000000000000     0.00000000000000     0.00000000000000
C   6   6     2.01118073026938    -1.40227222164369    -1.50774939176400
C   7   6    -2.01249334291722     1.41331050329955    -1.50315905028694
H   8   1     3.32037363730244    -2.26721897153159    -0.13599698591495
C   9   6     3.45899267434009     0.28739631745591    -3.37437943254505
H   10   1     1.07662969841332    -2.94725144642667    -2.56541439481080
H   11   1    -2.67503415753480     0.18421555839588    -3.06194479365997
H   12   1    -1.07974048864772     3.03851734677796    -2.43674295017013
C   13   6    -4.21607110578555     2.32938802552922     0.11994162256091
H   14   1     4.24440173074564     1.93368664142019    -2.34976285512790
H   15   1     2.15020713235517     1.04714335134846    -4.81494497423699
C   16   6     5.60746363007797    -1.12419643481196    -4.70268606082550
H   17   1    -3.46838323670267     3.50951302338067     1.66946842715333
H   18   1    -5.11873485366228     0.68575958301209     1.04047743976495
C   19   6    -6.18314754751344     3.80909592987882    -1.39656589068747
H   20   1     6.93011263717176    -1.87550812453645    -3.26656317360070
C   21   6     7.06356622236532     0.52877932406334    -6.57829775293605
H   22   1     4.82318879258361    -2.78573437948532    -5.70504560381835
H   23   1    -6.91582688743803     2.61304780074712    -2.95074552451969
H   24   1    -5.26532430573853     5.45420349051338    -2.31005832200284
C   25   6    -8.39941882261433     4.73263980500213     0.21800571437956
H   26   1     7.83338371486801     2.19084139882824    -5.57093109900697
H   27   1     5.73544244039420     1.27376866537418    -8.01071492370229
C   28   6     9.21124858443101    -0.89699110072176    -7.88926949186242
H   29   1    -7.66272760055236     5.92277078003992     1.77035591474408
H   30   1    -9.31497248082589     3.08753015622020     1.12614408368786
C   31   6   -10.35481709231879     6.21833079391143    -1.30905206253246
H   32   1    10.58815905329501    -1.61074586756696    -6.49512691622620
H   33   1    10.23506248045667     0.32468009384095    -9.23072870921204
H   34   1     8.47665842847139    -2.53598436989925    -8.94921964622535
H   35   1    -9.48948872868064     7.90013588951020    -2.18823918416067
H   36   1   -11.93332513000955     6.86460487874102    -0.11255798845995
H   37   1   -11.15126291841033     5.04495968327630    -2.83849898862534
[GTO]
1 0
 s    8 1.00
                 11720  0.00070964594651845
                  1759  0.0054672722921914
                 400.8   0.027823118610189
                 113.7    0.10474773971146
                 37.03    0.28292084635691
                 13.27    0.44849523869833
                 5.025    0.27081688521277
                 1.013    0.01545029160744
 s    8 1.00
                 11720  -0.00031444341168873
                  1759  -0.0024821376810179
                 400.8  -0.012316355381583
                 113.7  -0.050538917343672
                 37.03   -0.13938490331632
                 13.27   -0.32507749481778
                 5.025   -0.22984830758785
                 1.013     1.0953793467883
 s    1 1.00
                0.3023                   1
 p    3 1.00
                  17.7   0.062679166281506
                 3.854    0.33353656587936
                 1.046    0.74123964163973
 p    1 1.00
                0.2753                   1
 d    1 1.00
                 1.185                   1

2 0
 s    3 1.00
                 13.01   0.033498726389998
                 1.962    0.23480080117413
                0.4446     0.8136829578829
 s    1 1.00
                 0.122                   1
 p    1 1.00
                 0.727                   1

3 0
 s    3 1.00
                 13.01   0.033498726389998
                 1.962    0.23480080117413
                0.4446     0.8136829578829
 s    1 1.00
                 0.122                   1
 p    1 1.00
                 0.727                   1

4 0
 s    8 1.00
                 11720  0.00070964594651845
                  1759  0.0054672722921914
                 400.8   0.027823118610189
                 113.7    0.10474773971146
                 37.03    0.28292084635691
                 13.27    0.44849523869833
                 5.025    0.27081688521277
                 1.013    0.01545029160744
 s    8 1.00
                 11720  -0.00031444341168873
                  1759  -0.0024821376810179
                 400.8  -0.012316355381583
                 113.7  -0.050538917343672
                 37.03   -0.13938490331632
                 13.27   -0.32507749481778
                 5.025   -0.22984830758785
                 1.013     1.0953793467883
 s    1 1.00
                0.3023                   1
 p    3 1.00
                  17.7   0.062679166281506
                 3.854    0.33353656587936
                 1.046    0.74123964163973
 p    1 1.00
                0.2753                   1
 d    1 1.00
                 1.185                   1

5 0
 s    8 1.00
                  6665  0.00069158396281299
                  1000  0.0053257961529341
                   228   0.027060721042034
                 64.71    0.10165684614077
                 21.06     0.2745748236174
                 7.495    0.44829431892377
                 2.797    0.28490261071525
                0.5215   0.015194859206082
 s    8 1.00
                  6665  -0.00029326965268655
                  1000  -0.0023180354739745
                   228  -0.011499786038565
                 64.71  -0.046826727009787
                 21.06   -0.12846616875047
                 7.495   -0.30126627246289
                 2.797   -0.25563070233011
                0.5215      1.093793361012
 s    1 1.00
                0.1596                   1
 p    3 1.00
                 9.439   0.056979251590039
                 2.002    0.31320721150073
                0.5456    0.76037674173753
 p    1 1.00
                0.1517                   1
 d    1 1.00
                  0.55                   1

6 0
 s    8 1.00
                  6665  0.00069158396281299
                  1000  0.0053257961529341
                   228   0.027060721042034
                 64.71    0.10165684614077
                 21.06     0.2745748236174
                 7.495    0.44829431892377
                 2.797    0.28490261071525
                0.5215   0.015194859206082
 s    8 1.00
                  6665  -0.00029326965268655
                  1000  -0.0023180354739745
                   228  -0.011499786038565
                 64.71  -0.046826727009787
                 21.06   -0.12846616875047
                 7.495   -0.30126627246289
                 2.797   -0.25563070233011
                0.5215      1.093793361012
 s    1 1.00
                0.1596                   1
 p    3 1.00
                 9.439   0.056979251590039
                 2.002    0.31320721150073
                0.5456    0.76037674173753
 p    1 1.00
                0.1517                   1
 d    1 1.00
                  0.55                   1

7 0
 s    8 1.00
                  6665  0.00069158396281299
                  1000  0.0053257961529341
                   228   0.027060721042034
                 64.71    0.10165684614077
                 21.06     0.2745748236174
                 7.495    0.44829431892377
                 2.797    0.28490261071525
                0.5215   0.015194859206082
 s    8 1.00
                  6665  -0.00029326965268655
                  1000  -0.0023180354739745
                   228  -0.011499786038565
                 64.71  -0.046826727009787
                 21.06   -0.12846616875047
                 7.495   -0.30126627246289
                 2.797   -0.25563070233011
                0.5215      1.093793361012
 s    1 1.00
                0.1596                   1
 p    3 1.00
                 9.439   0.056979251590039
                 2.002    0.31320721150073
                0.5456    0.76037674173753
 p    1 1.00
                0.1517                   1
 d    1 1.00
                  0.55                   1

8 0
 s    3 1.00
                 13.01   0.033498726389998
                 1.962    0.23480080117413
                0.4446     0.8136829578829
 s    1 1.00
                 0.122                   1
 p    1 1.00
                 0.727                   1

9 0
 s    8 1.00
                  6665  0.00069158396281299
                  1000  0.0053257961529341
                   228   0.027060721042034
                 64.71    0.10165684614077
                 21.06     0.2745748236174
                 7.495    0.44829431892377
                 2.797    0.28490261071525
                0.5215   0.015194859206082
 s    8 1.00
                  6665  -0.00029326965268655
                  1000  -0.0023180354739745
                   228  -0.011499786038565
                 64.71  -0.046826727009787
                 21.06   -0.12846616875047
                 7.495   -0.30126627246289
                 2.797   -0.25563070233011
                0.5215      1.093793361012
 s    1 1.00
                0.1596                   1
 p    3 1.00
                 9.439   0.056979251590039
                 2.002    0.31320721150073
                0.5456    0.76037674173753
 p    1 1.00
                0.1517                   1
 d    1 1.00
                  0.55                   1

10 0
 s    3 1.00
                 13.01   0.033498726389998
                 1.962    0.23480080117413
                0.4446     0.8136829578829
 s    1 1.00
                 0.122                   1
 p    1 1.00
                 0.727                   1

11 0
 s    3 1.00
                 13.01   0.033498726389998
                 1.962    0.23480080117413
                0.4446     0.8136829578829
 s    1 1.00
                 0.122                   1
 p    1 1.00
                 0.727                   1

12 0
 s    3 1.00
                 13.01   0.033498726389998
                 1.962    0.23480080117413
                0.4446     0.8136829578829
 s    1 1.00
                 0.122                   1
 p    1 1.00
                 0.727                   1

13 0
 s    8 1.00
                  6665  0.00069158396281299
                  1000  0.0053257961529341
                   228   0.027060721042034
                 64.71    0.10165684614077
                 21.06     0.2745748236174
                 7.495    0.44829431892377
                 2.797    0.28490261071525
                0.5215   0.015194859206082
 s    8 1.00
                  6665  -0.00029326965268655
                  1000  -0.0023180354739745
                   228  -0.011499786038565
                 64.71  -0.046826727009787
                 21.06   -0.12846616875047
                 7.495   -0.30126627246289
                 2.797   -0.25563070233011
                0.5215      1.093793361012
 s    1 1.00
                0.1596                   1
 p    3 1.00
                 9.439   0.056979251590039
                 2.002    0.31320721150073
                0.5456    0.76037674173753
 p    1 1.00
                0.1517                   1
 d    1 1.00
                  0.55                   1

14 0
 s    3 1.00
                 13.01   0.033498726389998
                 1.962    0.23480080117413
                0.4446     0.8136829578829
 s    1 1.00
                 0.122                   1
 p    1 1.00
                 0.727                   1

15 0
 s    3 1.00
                 13.01   0.033498726389998
                 1.962    0.23480080117413
                0.4446     0.8136829578829
 s    1 1.00
                 0.122                   1
 p    1 1.00
                 0.727                   1

16 0
 s    8 1.00
                  6665  0.00069158396281299
                  1000  0.0053257961529341
                   228   0.027060721042034
                 64.71    0.10165684614077
                 21.06     0.2745748236174
                 7.495    0.44829431892377
                 2.797    0.28490261071525
                0.5215   0.015194859206082
 s    8 1.00
                  6665  -0.00029326965268655
                  1000  -0.0023180354739745
                   228  -0.011499786038565
                 64.71  -0.046826727009787
                 21.06   -0.12846616875047
                 7.495   -0.30126627246289
                 2.797   -0.25563070233011
                0.5215      1.093793361012
 s    1 1.00
                0.1596                   1
 p    3 1.00
                 9.439   0.056979251590039
                 2.002    0.31320721150073
                0.5456    0.76037674173753
 p    1 1.00
                0.1517                   1
 d    1 1.00
                  0.55                   1

17 0
 s    3 1.00
                 13.01   0.033498726389998
                 1.962    0.23480080117413
                0.4446     0.8136829578829
 s    1 1.00
                 0.122                   1
 p    1 1.00
                 0.727                   1

18 0
 s    3 1.00
                 13.01   0.033498726389998
                 1.962    0.23480080117413
                0.4446     0.8136829578829
 s    1 1.00
                 0.122                   1
 p    1 1.00
                 0.727                   1

19 0
 s    8 1.00
                  6665  0.00069158396281299
                  1000  0.0053257961529341
                   228   0.027060721042034
                 64.71    0.10165684614077
                 21.06     0.2745748236174
                 7.495    0.44829431892377
                 2.797    0.28490261071525
                0.5215   0.015194859206082
 s    8 1.00
                  6665  -0.00029326965268655
                  1000  -0.0023180354739745
                   228  -0.011499786038565
                 64.71  -0.046826727009787
                 21.06   -0.12846616875047
                 7.495   -0.30126627246289
                 2.797   -0.25563070233011
                0.5215      1.093793361012
 s    1 1.00
                0.1596                   1
 p    3 1.00
                 9.439   0.056979251590039
                 2.002    0.31320721150073
                0.5456    0.76037674173753
 p    1 1.00
                0.1517                   1
 d    1 1.00
                  0.55                   1

20 0
 s    3 1.00
                 13.01   0.033498726389998
                 1.962    0.23480080117413
                0.4446     0.8136829578829
 s    1 1.00
                 0.122                   1
 p    1 1.00
                 0.727                   1

21 0
 s    8 1.00
                  6665  0.00069158396281299
                  1000  0.0053257961529341
                   228   0.027060721042034
                 64.71    0.10165684614077
                 21.06     0.2745748236174
                 7.495    0.44829431892377
                 2.797    0.28490261071525
                0.5215   0.015194859206082
 s    8 1.00
                  6665  -0.00029326965268655
                  1000  -0.0023180354739745
                   228  -0.011499786038565
                 64.71  -0.046826727009787
                 21.06   -0.12846616875047
                 7.495   -0.30126627246289
                 2.797   -0.25563070233011
                0.5215      1.093793361012
 s    1 1.00
                0.1596                   1
 p    3 1.00
                 9.439   0.056979251590039
                 2.002    0.31320721150073
                0.5456    0.76037674173753
 p    1 1.00
                0.1517                   1
 d    1 1.00
                  0.55                   1

22 0
 s    3 1.00
                 13.01   0.033498726389998
                 1.962    0.23480080117413
                0.4446     0.8136829578829
 s    1 1.00
                 0.122                   1
 p    1 1.00
                 0.727                   1

23 0
 s    3 1.00
                 13.01   0.033498726389998
                 1.962    0.23480080117413
                0.4446     0.8136829578829
 s    1 1.00
                 0.122                   1
 p    1 1.00
                 0.727                   1

24 0
 s    3 1.00
                 13.01   0.033498726389998
                 1.962    0.23480080117413
                0.4446     0.8136829578829
 s    1 1.00
                 0.122                   1
 p    1 1.00
                 0.727                   1

25 0
 s    8 1.00
                  6665  0.00069158396281299
                  1000  0.0053257961529341
                   228   0.027060721042034
                 64.71    0.10165684614077
                 21.06     0.2745748236174
                 7.495    0.44829431892377
                 2.797    0.28490261071525
                0.5215   0.015194859206082
 s    8 1.00
                  6665  -0.00029326965268655
                  1000  -0.0023180354739745
                   228  -0.011499786038565
                 64.71  -0.046826727009787
                 21.06   -0.12846616875047
                 7.495   -0.30126627246289
                 2.797   -0.25563070233011
                0.5215      1.093793361012
 s    1 1.00
                0.1596                   1
 p    3 1.00
                 9.439   0.056979251590039
                 2.002    0.31320721150073
                0.5456    0.76037674173753
 p    1 1.00
                0.1517                   1
 d    1 1.00
                  0.55                   1

26 0
 s    3 1.00
                 13.01   0.033498726389998
                 1.962    0.23480080117413
                0.4446     0.8136829578829
 s    1 1.00
                 0.122                   1
 p    1 1.00
                 0.727                   1

27 0
 s    3 1.00
                 13.01   0.033498726389998
                 1.962    0.23480080117413
                0.4446     0.8136829578829
 s    1 1.00
                 0.122                   1
 p    1 1.00
                 0.727                   1

28 0
 s    8 1.00
                  6665  0.00069158396281299
                  1000  0.0053257961529341
                   228   0.027060721042034
                 64.71    0.10165684614077
                 21.06     0.2745748236174
                 7.495    0.44829431892377
                 2.797    0.28490261071525
                0.5215   0.015194859206082
 s    8 1.00
                  6665  -0.00029326965268655
                  1000  -0.0023180354739745
                   228  -0.011499786038565
                 64.71  -0.046826727009787
                 21.06   -0.12846616875047
                 7.495   -0.30126627246289
                 2.797   -0.25563070233011
                0.5215      1.093793361012
 s    1 1.00
                0.1596                   1
 p    3 1.00
                 9.439   0.056979251590039
                 2.002    0.31320721150073
                0.5456    0.76037674173753
 p    1 1.00
                0.1517                   1
 d    1 1.00
                  0.55                   1

29 0
 s    3 1.00
                 13.01   0.033498726389998
                 1.962    0.23480080117413
                0.4446     0.8136829578829
 s    1 1.00
                 0.122                   1
 p    1 1.00
                 0.727                   1

30 0
 s    3 1.00
                 13.01   0.033498726389998
                 1.962    0.23480080117413
                0.4446     0.8136829578829
 s    1 1.00
                 0.122                   1
 p    1 1.00
                 0.727                   1

31 0
 s    8 1.00
                  6665  0.00069158396281299
                  1000  0.0053257961529341
                   228   0.027060721042034
                 64.71    0.10165684614077
                 21.06     0.2745748236174
                 7.495    0.44829431892377
                 2.797    0.28490261071525
                0.5215   0.015194859206082
 s    8 1.00
                  6665  -0.00029326965268655
                  1000  -0.0023180354739745
                   228  -0.011499786038565
                 64.71  -0.046826727009787
                 21.06   -0.12846616875047
                 7.495   -0.30126627246289
                 2.797   -0.25563070233011
                0.5215      1.093793361012
 s    1 1.00
                0.1596                   1
 p    3 1.00
                 9.439   0.056979251590039
                 2.002    0.31320721150073
                0.5456    0.76037674173753
 p    1 1.00
                0.1517                   1
 d    1 1.00
                  0.55                   1

32 0
 s    3 1.00
                 13.01   0.033498726389998
                 1.962    0.23480080117413
                0.4446     0.8136829578829
 s    1 1.00
                 0.122                   1
 p    1 1.00
                 0.727                   1

33 0
 s    3 1.00
                 13.01   0.033498726389998
                 1.962    0.23480080117413
                0.4446     0.8136829578829
 s    1 1.00
                 0.122                   1
 p    1 1.00
                 0.727                   1

34 0
 s    3 1.00
                 13.01   0.033498726389998
                 1.962    0.23480080117413
                0.4446     0.8136829578829
 s    1 1.00
                 0.122                   1
 p    1 1.00
                 0.727                   1

35 0
 s    3 1.00
                 13.01   0.033498726389998
                 1.962    0.23480080117413
                0.4446     0.8136829578829
 s    1 1.00
                 0.122                   1
 p    1 1.00
                 0.727                   1

36 0
 s    3 1.00
                 13.01   0.033498726389998
                 1.962    0.23480080117413
                0.4446     0.8136829578829
 s    1 1.00
                 0.122                   1
 p    1 1.00
                 0.727                   1

37 0
 s    3 1.00
                 13.01   0.033498726389998
                 1.962    0.23480080117413
                0.4446     0.8136829578829
 s    1 1.00
                 0.122                   1
 p    1 1.00
                 0.727                   1

[5d]
[7f]
[9g]

[MO]
 Sym= A
 Ene=               0
 Spin= Alpha
 Occup=    1.00000
   1    4.2300287228048e-07
   2    6.2743963746891e-07
   3    -3.6527512602011e-06
   4    1.8702497076279e-08
   5    -2.2975030485499e-07
   6    7.031713793798e-07
   7    -1.0563540884952e-08
   8    4.419036588854e-07
   9    2.6668472549011e-06
  10    -2.635361401602e-07
  11    -5.7234336032316e-09
  12    3.9685101622944e-08
  13    2.2671112749417e-09
  14    -8.4464508156555e-11
  15    -7.9251311362823e-09
  16    6.2887210030466e-06
  17    -2.3032693929027e-08
  18    5.3915332086892e-08
  19    7.5391684512787e-07
  20    1.0251873730343e-07
  21    -1.5418885901921e-06
  22    -1.4481984703956e-10
  23    4.558547512758e-08
  24    -4.2399250887825e-08
  25    8.4659868942231e-07
  26    -1.584629030086e-05
  27    -1.8982575814596e-05
  28    1.4284302764072e-06
  29    7.8337741275048e-05
  30    3.2184973970299e-05
  31    5.7538183260817e-05
  32    4.0019282511902e-05
  33    -3.8979085876255e-06
  34    4.8884408912881e-07
  35    -1.9710064717801e-06
  36    4.8639904350813e-07
  37    4.7114945357841e-07
  38    3.9609238178772e-07
  39    5.8390733532865e-05
  40    0.00014812804194837
  41    -0.00068302344210723
  42    4.4231411257741e-05
  43    -5.6756067065001e-05
  44    -5.9687236377802e-05
  45    -0.00040475148749043
  46    0.00027362026629021
  47    0.00023922412510566
  48    -1.3391187248451e-05
  49    4.1539623926417e-05
  50    -2.4544648571645e-07
  51    -2.124728998447e-05
  52    2.1565083619516e-05
  53    -1.299528100683e-05
  54    -0.00018811615555071
  55    0.00042856877966561
  56    -0.00017749583124462
  57    -0.00023549053413418
  58    0.00024494676602708
  59    -0.00059298541440844
  60    7.0523449253359e-05
  61    0.00054734081765968
  62    2.5480673451232e-06
  63    -1.9536074610404e-05
  64    4.2673017949532e-05
  65    3.2267320134696e-05
  66    -2.8277578375355e-05
  67    1.1139749678165e-06
  68    -8.1845803046395e-07
  69    0.0001108842062132
  70    1.5613739789468e-05
  71    4.7685101658942e-06
  72    -1.3290007647415e-06
  73    -0.00015351773194346
  74    3.187668662009e-05
  75    3.5959469807034e-05
  76    -8.6006283299408e-06
  77    -1.1780531623835e-05
  78    7.6316893382749e-06
  79    8.2262457679611e-06
  80    -8.3074796741593e-06
  81    4.3418086529584e-05
  82    -4.3159728324939e-05
  83    9.9268868673357e-06
  84    -1.6057212962618e-05
  85    -9.3688858929681e-06
  86    0.00010236722051828
  87    0.00078877310646195
  88    -0.00098913723835027
  89    0.00066562158448473
  90    9.333996677861e-05
  91    -0.00061265386033443
  92    -0.00038345688338857
  93    0.00030690788918368
  94    0.00021370302584574
  95    -6.9861240412668e-07
  96    1.6730224211285e-05
  97    7.3910835375846e-06
  98    -5.0802990104181e-06
  99    -6.4410156881464e-07
 100    3.176510435397e-05
 101    -4.7713847604361e-06
 102    1.7357518420573e-05
 103    -1.6220930439702e-05
 104    -7.5227226228844e-06
 105    -1.0029462499285e-05
 106    -4.9006980686543e-06
 107    1.2484048014793e-05
 108    -1.8721712460728e-06
 109    1.8719070638088e-07
 110    2.2529456672143e-05
 111    -2.082238364898e-05
 112    -1.5745153342115e-06
 113    5.6245962044393e-07
 114    1.866658747366e-06
 115    1.8055048048194e-05
 116    2.8163365258765e-05
 117    -0.00017376388430987
 118    -7.0628052822572e-07
 119    -6.0628821524212e-06
 120    5.0681774984648e-06
 121    -0.00017257822778505
 122    0.00013658083962639
 123    2.5516289359549e-05
 124    1.4385197015222e-06
 125    1.1176275187959e-05
 126    -6.4371947589053e-06
 127    -6.2673102525411e-06
 128    9.7291230447612e-06
 129    0.00035466436321457
 130    6.7028629416785e-06
 131    2.1865885548595e-05
 132    -3.3115308048519e-05
 133    -5.1029409875958e-05
 134    0.00036984652565917
 135    2.5159196436501e-05
 136    6.1227436953132e-05
 137    -1.6885205124377e-05
 138    2.2732340892866e-06
 139    0.00063041013340479
 140    0.00027226557803137
 141    0.00037674872955159
 142    -0.00053393623449696
 143    0.00070778804346753
 144    0.00019170531347424
 145    -0.0015595323606318
 146    0.00082124745873683
 147    0.0010369132807036
 148    -2.2583435640292e-05
 149    -2.0068366839727e-06
 150    6.5565886971151e-05
 151    1.7393967272327e-05
 152    -7.3883516116075e-05
 153    3.1671274976844e-06
 154    -7.2912351674166e-06
 155    5.7937374167548e-06
 156    -5.0676787249927e-06
 157    2.9898994231613e-06
 158    1.9271882360892e-05
 159     1.21781782543e-05
 160    5.7291744624204e-06
 161    -4.8668149515383e-06
 162    2.4517622478747e-07
 163    5.8371003067698e-05
 164    9.2316227915347e-06
 165    -7.8019679449787e-05
 166    -1.9487971725942e-06
 167    1.1626226986851e-06
 168    -5.0378576519135e-07
 169    -4.9390252385503e-05
 170    5.8063310973189e-06
 171    -1.8418241408596e-05
 172    1.3525232153839e-07
 173    -3.8067674151846e-06
 174    1.780270522238e-06
 175    -1.2658644523981e-06
 176    3.6055531087799e-07
 177    -0.00029783063736013
 178    5.8210705229399e-05
 179    8.2178169840243e-05
 180    -2.8366247858381e-05
 181    -5.5157586539835e-05
 182     0.036959216533902
 183    0.00015515329865239
 184    -0.0021580716502889
 185    -9.6630606456232e-05
 186    7.2045796944798e-05
 187    5.5444198598504e-05
 188    -0.0010436458639836
 189    0.00038810544990612
 190    0.00075111318137861
 191    -3.5177701401551e-05
 192    -0.000153427003246
 193    3.8094234884303e-05
 194    4.5225754053855e-05
 195    -0.00010191472837774
 196    -0.00029404653817312
 197    5.8228195894405e-05
 198    7.7514136330867e-05
 199    -2.9707276539186e-05
 200    -6.0526778945337e-05
 201    1.915647056036e-06
 202    -1.3650309243874e-05
 203    1.0207174863334e-06
 204    -5.7742539931409e-07
 205    -1.4636764791558e-07
 206    4.1206311520969e-06
 207    1.9194268676435e-05
 208    1.3109046214843e-06
 209    -2.4761465030605e-06
 210    1.6009598265487e-06
 211    0.00013540032975154
 212    6.7764223545804e-06
 213    7.3930842387737e-06
 214    3.8719207695317e-06
 215    -2.0427160208164e-06
 216    1.2451258148125e-06
 217    -5.4801553874886e-05
 218    4.1365604816194e-05
 219    -2.5309097694369e-05
 220    6.2539003849545e-07
 221    1.7266704506645e-06
 222    -1.9440034969618e-06
 223    -7.6759218349324e-07
 224    1.5567651076019e-06
 225    8.9164061010929e-05
 226    -0.00011954479545157
 227    -2.0794947624142e-05
 228    5.5080780035081e-05
 229    2.3253104441343e-05
 230    9.0615736556034e-05
 231    -0.00012596865085508
 232    -4.4581691709613e-05
 233    4.4960016223947e-05
 234    -5.4925548199774e-06
 235      -1.0017371355952
 236    -0.0048487261237221
 237    0.0099377583697777
 238    -0.00016551234992506
 239    0.00014856161382985
 240    9.1157725866687e-05
 241    -0.0010221069933433
 242    0.0001938485969312
 243    0.00080364894606633
 244    -4.4984625078676e-05
 245    -0.0001227500788722
 246    9.4755788155199e-05
 247    6.0678361993002e-05
 248    -0.00014908275717412
 249    5.6369538984961e-06
 250    -1.3554920279067e-06
 251    2.2727581577913e-06
 252    -2.6525785891383e-06
 253    1.4083608077848e-06
 254    3.8153955795209e-06
 255    3.0188575476626e-06
 256    2.8551926187927e-06
 257    -1.3335908578098e-06
 258    2.1242640711375e-06
 259    4.2922048191823e-05
 260    7.6712086629483e-06
 261    -6.2052932705674e-05
 262    -1.0170237000145e-06
 263    8.2237735269549e-07