[Molden Format]
made by pyscf v[2.0.1]
[Atoms] (AU)
O   1   8     0.00000000000000     0.00000000000000    11.69764103529358
H   2   1     0.00000000000000     0.00000000000000     9.87423921339262
H   3   1    -0.05031916615174     1.78353065140343    12.07351273176025
O   4   8     0.00000000000000     0.00000000000000     2.31533471513237
C   5   6     0.00000000000000     0.00000000000000     0.00000000000000
C   6   6     2.01118073026938    -1.40227222164369    -1.50774939176400
C   7   6    -2.01249334291722     1.41331050329955    -1.50315905028694
H   8   1     3.32037363730244    -2.26721897153159    -0.13599698591495
C   9   6     3.45899267434009     0.28739631745591    -3.37437943254505
H   10   1     1.07662969841332    -2.94725144642667    -2.56541439481080
H   11   1    -2.67503415753480     0.18421555839588    -3.06194479365997
H   12   1    -1.07974048864772     3.03851734677796    -2.43674295017013
C   13   6    -4.21607110578555     2.32938802552922     0.11994162256091
H   14   1     4.24440173074564     1.93368664142019    -2.34976285512790
H   15   1     2.15020713235517     1.04714335134846    -4.81494497423699
C   16   6     5.60746363007797    -1.12419643481196    -4.70268606082550
H   17   1    -3.46838323670267     3.50951302338067     1.66946842715333
H   18   1    -5.11873485366228     0.68575958301209     1.04047743976495
C   19   6    -6.18314754751344     3.80909592987882    -1.39656589068747
H   20   1     6.93011263717176    -1.87550812453645    -3.26656317360070
C   21   6     7.06356622236532     0.52877932406334    -6.57829775293605
H   22   1     4.82318879258361    -2.78573437948532    -5.70504560381835
H   23   1    -6.91582688743803     2.61304780074712    -2.95074552451969
H   24   1    -5.26532430573853     5.45420349051338    -2.31005832200284
C   25   6    -8.39941882261433     4.73263980500213     0.21800571437956
H   26   1     7.83338371486801     2.19084139882824    -5.57093109900697
H   27   1     5.73544244039420     1.27376866537418    -8.01071492370229
C   28   6     9.21124858443101    -0.89699110072176    -7.88926949186242
H   29   1    -7.66272760055236     5.92277078003992     1.77035591474408
H   30   1    -9.31497248082589     3.08753015622020     1.12614408368786
C   31   6   -10.35481709231879     6.21833079391143    -1.30905206253246
H   32   1    10.58815905329501    -1.61074586756696    -6.49512691622620
H   33   1    10.23506248045667     0.32468009384095    -9.23072870921204
H   34   1     8.47665842847139    -2.53598436989925    -8.94921964622535
H   35   1    -9.48948872868064     7.90013588951020    -2.18823918416067
H   36   1   -11.93332513000955     6.86460487874102    -0.11255798845995
H   37   1   -11.15126291841033     5.04495968327630    -2.83849898862534
[GTO]
1 0
 s    8 1.00
                 11720  0.00070964594651845
                  1759  0.0054672722921914
                 400.8   0.027823118610189
                 113.7    0.10474773971146
                 37.03    0.28292084635691
                 13.27    0.44849523869833
                 5.025    0.27081688521277
                 1.013    0.01545029160744
 s    8 1.00
                 11720  -0.00031444341168873
                  1759  -0.0024821376810179
                 400.8  -0.012316355381583
                 113.7  -0.050538917343672
                 37.03   -0.13938490331632
                 13.27   -0.32507749481778
                 5.025   -0.22984830758785
                 1.013     1.0953793467883
 s    1 1.00
                0.3023                   1
 p    3 1.00
                  17.7   0.062679166281506
                 3.854    0.33353656587936
                 1.046    0.74123964163973
 p    1 1.00
                0.2753                   1
 d    1 1.00
                 1.185                   1

2 0
 s    3 1.00
                 13.01   0.033498726389998
                 1.962    0.23480080117413
                0.4446     0.8136829578829
 s    1 1.00
                 0.122                   1
 p    1 1.00
                 0.727                   1

3 0
 s    3 1.00
                 13.01   0.033498726389998
                 1.962    0.23480080117413
                0.4446     0.8136829578829
 s    1 1.00
                 0.122                   1
 p    1 1.00
                 0.727                   1

4 0
 s    8 1.00
                 11720  0.00070964594651845
                  1759  0.0054672722921914
                 400.8   0.027823118610189
                 113.7    0.10474773971146
                 37.03    0.28292084635691
                 13.27    0.44849523869833
                 5.025    0.27081688521277
                 1.013    0.01545029160744
 s    8 1.00
                 11720  -0.00031444341168873
                  1759  -0.0024821376810179
                 400.8  -0.012316355381583
                 113.7  -0.050538917343672
                 37.03   -0.13938490331632
                 13.27   -0.32507749481778
                 5.025   -0.22984830758785
                 1.013     1.0953793467883
 s    1 1.00
                0.3023                   1
 p    3 1.00
                  17.7   0.062679166281506
                 3.854    0.33353656587936
                 1.046    0.74123964163973
 p    1 1.00
                0.2753                   1
 d    1 1.00
                 1.185                   1

5 0
 s    8 1.00
                  6665  0.00069158396281299
                  1000  0.0053257961529341
                   228   0.027060721042034
                 64.71    0.10165684614077
                 21.06     0.2745748236174
                 7.495    0.44829431892377
                 2.797    0.28490261071525
                0.5215   0.015194859206082
 s    8 1.00
                  6665  -0.00029326965268655
                  1000  -0.0023180354739745
                   228  -0.011499786038565
                 64.71  -0.046826727009787
                 21.06   -0.12846616875047
                 7.495   -0.30126627246289
                 2.797   -0.25563070233011
                0.5215      1.093793361012
 s    1 1.00
                0.1596                   1
 p    3 1.00
                 9.439   0.056979251590039
                 2.002    0.31320721150073
                0.5456    0.76037674173753
 p    1 1.00
                0.1517                   1
 d    1 1.00
                  0.55                   1

6 0
 s    8 1.00
                  6665  0.00069158396281299
                  1000  0.0053257961529341
                   228   0.027060721042034
                 64.71    0.10165684614077
                 21.06     0.2745748236174
                 7.495    0.44829431892377
                 2.797    0.28490261071525
                0.5215   0.015194859206082
 s    8 1.00
                  6665  -0.00029326965268655
                  1000  -0.0023180354739745
                   228  -0.011499786038565
                 64.71  -0.046826727009787
                 21.06   -0.12846616875047
                 7.495   -0.30126627246289
                 2.797   -0.25563070233011
                0.5215      1.093793361012
 s    1 1.00
                0.1596                   1
 p    3 1.00
                 9.439   0.056979251590039
                 2.002    0.31320721150073
                0.5456    0.76037674173753
 p    1 1.00
                0.1517                   1
 d    1 1.00
                  0.55                   1

7 0
 s    8 1.00
                  6665  0.00069158396281299
                  1000  0.0053257961529341
                   228   0.027060721042034
                 64.71    0.10165684614077
                 21.06     0.2745748236174
                 7.495    0.44829431892377
                 2.797    0.28490261071525
                0.5215   0.015194859206082
 s    8 1.00
                  6665  -0.00029326965268655
                  1000  -0.0023180354739745
                   228  -0.011499786038565
                 64.71  -0.046826727009787
                 21.06   -0.12846616875047
                 7.495   -0.30126627246289
                 2.797   -0.25563070233011
                0.5215      1.093793361012
 s    1 1.00
                0.1596                   1
 p    3 1.00
                 9.439   0.056979251590039
                 2.002    0.31320721150073
                0.5456    0.76037674173753
 p    1 1.00
                0.1517                   1
 d    1 1.00
                  0.55                   1

8 0
 s    3 1.00
                 13.01   0.033498726389998
                 1.962    0.23480080117413
                0.4446     0.8136829578829
 s    1 1.00
                 0.122                   1
 p    1 1.00
                 0.727                   1

9 0
 s    8 1.00
                  6665  0.00069158396281299
                  1000  0.0053257961529341
                   228   0.027060721042034
                 64.71    0.10165684614077
                 21.06     0.2745748236174
                 7.495    0.44829431892377
                 2.797    0.28490261071525
                0.5215   0.015194859206082
 s    8 1.00
                  6665  -0.00029326965268655
                  1000  -0.0023180354739745
                   228  -0.011499786038565
                 64.71  -0.046826727009787
                 21.06   -0.12846616875047
                 7.495   -0.30126627246289
                 2.797   -0.25563070233011
                0.5215      1.093793361012
 s    1 1.00
                0.1596                   1
 p    3 1.00
                 9.439   0.056979251590039
                 2.002    0.31320721150073
                0.5456    0.76037674173753
 p    1 1.00
                0.1517                   1
 d    1 1.00
                  0.55                   1

10 0
 s    3 1.00
                 13.01   0.033498726389998
                 1.962    0.23480080117413
                0.4446     0.8136829578829
 s    1 1.00
                 0.122                   1
 p    1 1.00
                 0.727                   1

11 0
 s    3 1.00
                 13.01   0.033498726389998
                 1.962    0.23480080117413
                0.4446     0.8136829578829
 s    1 1.00
                 0.122                   1
 p    1 1.00
                 0.727                   1

12 0
 s    3 1.00
                 13.01   0.033498726389998
                 1.962    0.23480080117413
                0.4446     0.8136829578829
 s    1 1.00
                 0.122                   1
 p    1 1.00
                 0.727                   1

13 0
 s    8 1.00
                  6665  0.00069158396281299
                  1000  0.0053257961529341
                   228   0.027060721042034
                 64.71    0.10165684614077
                 21.06     0.2745748236174
                 7.495    0.44829431892377
                 2.797    0.28490261071525
                0.5215   0.015194859206082
 s    8 1.00
                  6665  -0.00029326965268655
                  1000  -0.0023180354739745
                   228  -0.011499786038565
                 64.71  -0.046826727009787
                 21.06   -0.12846616875047
                 7.495   -0.30126627246289
                 2.797   -0.25563070233011
                0.5215      1.093793361012
 s    1 1.00
                0.1596                   1
 p    3 1.00
                 9.439   0.056979251590039
                 2.002    0.31320721150073
                0.5456    0.76037674173753
 p    1 1.00
                0.1517                   1
 d    1 1.00
                  0.55                   1

14 0
 s    3 1.00
                 13.01   0.033498726389998
                 1.962    0.23480080117413
                0.4446     0.8136829578829
 s    1 1.00
                 0.122                   1
 p    1 1.00
                 0.727                   1

15 0
 s    3 1.00
                 13.01   0.033498726389998
                 1.962    0.23480080117413
                0.4446     0.8136829578829
 s    1 1.00
                 0.122                   1
 p    1 1.00
                 0.727                   1

16 0
 s    8 1.00
                  6665  0.00069158396281299
                  1000  0.0053257961529341
                   228   0.027060721042034
                 64.71    0.10165684614077
                 21.06     0.2745748236174
                 7.495    0.44829431892377
                 2.797    0.28490261071525
                0.5215   0.015194859206082
 s    8 1.00
                  6665  -0.00029326965268655
                  1000  -0.0023180354739745
                   228  -0.011499786038565
                 64.71  -0.046826727009787
                 21.06   -0.12846616875047
                 7.495   -0.30126627246289
                 2.797   -0.25563070233011
                0.5215      1.093793361012
 s    1 1.00
                0.1596                   1
 p    3 1.00
                 9.439   0.056979251590039
                 2.002    0.31320721150073
                0.5456    0.76037674173753
 p    1 1.00
                0.1517                   1
 d    1 1.00
                  0.55                   1

17 0
 s    3 1.00
                 13.01   0.033498726389998
                 1.962    0.23480080117413
                0.4446     0.8136829578829
 s    1 1.00
                 0.122                   1
 p    1 1.00
                 0.727                   1

18 0
 s    3 1.00
                 13.01   0.033498726389998
                 1.962    0.23480080117413
                0.4446     0.8136829578829
 s    1 1.00
                 0.122                   1
 p    1 1.00
                 0.727                   1

19 0
 s    8 1.00
                  6665  0.00069158396281299
                  1000  0.0053257961529341
                   228   0.027060721042034
                 64.71    0.10165684614077
                 21.06     0.2745748236174
                 7.495    0.44829431892377
                 2.797    0.28490261071525
                0.5215   0.015194859206082
 s    8 1.00
                  6665  -0.00029326965268655
                  1000  -0.0023180354739745
                   228  -0.011499786038565
                 64.71  -0.046826727009787
                 21.06   -0.12846616875047
                 7.495   -0.30126627246289
                 2.797   -0.25563070233011
                0.5215      1.093793361012
 s    1 1.00
                0.1596                   1
 p    3 1.00
                 9.439   0.056979251590039
                 2.002    0.31320721150073
                0.5456    0.76037674173753
 p    1 1.00
                0.1517                   1
 d    1 1.00
                  0.55                   1

20 0
 s    3 1.00
                 13.01   0.033498726389998
                 1.962    0.23480080117413
                0.4446     0.8136829578829
 s    1 1.00
                 0.122                   1
 p    1 1.00
                 0.727                   1

21 0
 s    8 1.00
                  6665  0.00069158396281299
                  1000  0.0053257961529341
                   228   0.027060721042034
                 64.71    0.10165684614077
                 21.06     0.2745748236174
                 7.495    0.44829431892377
                 2.797    0.28490261071525
                0.5215   0.015194859206082
 s    8 1.00
                  6665  -0.00029326965268655
                  1000  -0.0023180354739745
                   228  -0.011499786038565
                 64.71  -0.046826727009787
                 21.06   -0.12846616875047
                 7.495   -0.30126627246289
                 2.797   -0.25563070233011
                0.5215      1.093793361012
 s    1 1.00
                0.1596                   1
 p    3 1.00
                 9.439   0.056979251590039
                 2.002    0.31320721150073
                0.5456    0.76037674173753
 p    1 1.00
                0.1517                   1
 d    1 1.00
                  0.55                   1

22 0
 s    3 1.00
                 13.01   0.033498726389998
                 1.962    0.23480080117413
                0.4446     0.8136829578829
 s    1 1.00
                 0.122                   1
 p    1 1.00
                 0.727                   1

23 0
 s    3 1.00
                 13.01   0.033498726389998
                 1.962    0.23480080117413
                0.4446     0.8136829578829
 s    1 1.00
                 0.122                   1
 p    1 1.00
                 0.727                   1

24 0
 s    3 1.00
                 13.01   0.033498726389998
                 1.962    0.23480080117413
                0.4446     0.8136829578829
 s    1 1.00
                 0.122                   1
 p    1 1.00
                 0.727                   1

25 0
 s    8 1.00
                  6665  0.00069158396281299
                  1000  0.0053257961529341
                   228   0.027060721042034
                 64.71    0.10165684614077
                 21.06     0.2745748236174
                 7.495    0.44829431892377
                 2.797    0.28490261071525
                0.5215   0.015194859206082
 s    8 1.00
                  6665  -0.00029326965268655
                  1000  -0.0023180354739745
                   228  -0.011499786038565
                 64.71  -0.046826727009787
                 21.06   -0.12846616875047
                 7.495   -0.30126627246289
                 2.797   -0.25563070233011
                0.5215      1.093793361012
 s    1 1.00
                0.1596                   1
 p    3 1.00
                 9.439   0.056979251590039
                 2.002    0.31320721150073
                0.5456    0.76037674173753
 p    1 1.00
                0.1517                   1
 d    1 1.00
                  0.55                   1

26 0
 s    3 1.00
                 13.01   0.033498726389998
                 1.962    0.23480080117413
                0.4446     0.8136829578829
 s    1 1.00
                 0.122                   1
 p    1 1.00
                 0.727                   1

27 0
 s    3 1.00
                 13.01   0.033498726389998
                 1.962    0.23480080117413
                0.4446     0.8136829578829
 s    1 1.00
                 0.122                   1
 p    1 1.00
                 0.727                   1

28 0
 s    8 1.00
                  6665  0.00069158396281299
                  1000  0.0053257961529341
                   228   0.027060721042034
                 64.71    0.10165684614077
                 21.06     0.2745748236174
                 7.495    0.44829431892377
                 2.797    0.28490261071525
                0.5215   0.015194859206082
 s    8 1.00
                  6665  -0.00029326965268655
                  1000  -0.0023180354739745
                   228  -0.011499786038565
                 64.71  -0.046826727009787
                 21.06   -0.12846616875047
                 7.495   -0.30126627246289
                 2.797   -0.25563070233011
                0.5215      1.093793361012
 s    1 1.00
                0.1596                   1
 p    3 1.00
                 9.439   0.056979251590039
                 2.002    0.31320721150073
                0.5456    0.76037674173753
 p    1 1.00
                0.1517                   1
 d    1 1.00
                  0.55                   1

29 0
 s    3 1.00
                 13.01   0.033498726389998
                 1.962    0.23480080117413
                0.4446     0.8136829578829
 s    1 1.00
                 0.122                   1
 p    1 1.00
                 0.727                   1

30 0
 s    3 1.00
                 13.01   0.033498726389998
                 1.962    0.23480080117413
                0.4446     0.8136829578829
 s    1 1.00
                 0.122                   1
 p    1 1.00
                 0.727                   1

31 0
 s    8 1.00
                  6665  0.00069158396281299
                  1000  0.0053257961529341
                   228   0.027060721042034
                 64.71    0.10165684614077
                 21.06     0.2745748236174
                 7.495    0.44829431892377
                 2.797    0.28490261071525
                0.5215   0.015194859206082
 s    8 1.00
                  6665  -0.00029326965268655
                  1000  -0.0023180354739745
                   228  -0.011499786038565
                 64.71  -0.046826727009787
                 21.06   -0.12846616875047
                 7.495   -0.30126627246289
                 2.797   -0.25563070233011
                0.5215      1.093793361012
 s    1 1.00
                0.1596                   1
 p    3 1.00
                 9.439   0.056979251590039
                 2.002    0.31320721150073
                0.5456    0.76037674173753
 p    1 1.00
                0.1517                   1
 d    1 1.00
                  0.55                   1

32 0
 s    3 1.00
                 13.01   0.033498726389998
                 1.962    0.23480080117413
                0.4446     0.8136829578829
 s    1 1.00
                 0.122                   1
 p    1 1.00
                 0.727                   1

33 0
 s    3 1.00
                 13.01   0.033498726389998
                 1.962    0.23480080117413
                0.4446     0.8136829578829
 s    1 1.00
                 0.122                   1
 p    1 1.00
                 0.727                   1

34 0
 s    3 1.00
                 13.01   0.033498726389998
                 1.962    0.23480080117413
                0.4446     0.8136829578829
 s    1 1.00
                 0.122                   1
 p    1 1.00
                 0.727                   1

35 0
 s    3 1.00
                 13.01   0.033498726389998
                 1.962    0.23480080117413
                0.4446     0.8136829578829
 s    1 1.00
                 0.122                   1
 p    1 1.00
                 0.727                   1

36 0
 s    3 1.00
                 13.01   0.033498726389998
                 1.962    0.23480080117413
                0.4446     0.8136829578829
 s    1 1.00
                 0.122                   1
 p    1 1.00
                 0.727                   1

37 0
 s    3 1.00
                 13.01   0.033498726389998
                 1.962    0.23480080117413
                0.4446     0.8136829578829
 s    1 1.00
                 0.122                   1
 p    1 1.00
                 0.727                   1

[5d]
[7f]
[9g]

[MO]
 Sym= A
 Ene=               0
 Spin= Alpha
 Occup=    1.00000
   1    -9.2569742600728e-08
   2    -1.2835015983693e-07
   3    8.7928183105022e-07
   4    -8.1158009026254e-10
   5    1.4654139455275e-08
   6    -1.2872597406031e-07
   7    5.4977354868161e-09
   8    -1.9366027604465e-07
   9    -7.0681735667342e-07
  10    7.4423426272825e-08
  11    1.9078817019513e-10
  12    -7.5359329153011e-09
  13    5.322299834648e-09
  14    3.0823415121549e-10
  15    5.7154037415484e-08
  16    -1.7867647535092e-06
  17    -9.6301613929491e-11
  18    8.3654951693875e-09
  19    -2.6534723263166e-07
  20    -5.0341704801094e-08
  21    6.3568243989023e-07
  22    9.1042111577716e-10
  23    -3.4660887357072e-08
  24    1.3669248776216e-08
  25    -9.5753741468144e-07
  26    1.5501052266267e-05
  27    1.9570529439542e-05
  28    -1.4009419098681e-06
  29    -7.8435755880665e-05
  30    -3.2237234827371e-05
  31    -5.7509081285709e-05
  32    -3.9861993463865e-05
  33    3.122113284716e-06
  34    -3.9565003947817e-07
  35    1.9807505554692e-06
  36    -4.2661891994267e-07
  37    -4.8005724843845e-07
  38    -3.9575530989949e-07
  39    -5.8379247922252e-05
  40    -0.00014791151322611
  41    0.00068252907879915
  42    -4.445908194386e-05
  43    5.5926172118162e-05
  44    5.9566823463136e-05
  45    0.00040466389257857
  46    -0.00027453545997939
  47    -0.00023982279685852
  48    1.3210520682671e-05
  49    -4.1478616375115e-05
  50    1.7932016993724e-07
  51    2.1185988319432e-05
  52    -2.1558458650188e-05
  53    1.2932262485842e-05
  54    0.00018768113588723
  55    -0.00042953877222707
  56    0.00017751260684907
  57    0.00023522390129616
  58    -0.00024484870773327
  59    0.00059283617580377
  60    -7.0834726636266e-05
  61    -0.00054684339494331
  62    -2.5159297683465e-06
  63    1.9384668423509e-05
  64    -4.269730115629e-05
  65    -3.2156255616198e-05
  66    2.8285933907575e-05
  67    -1.134619826479e-06
  68    8.0264314058497e-07
  69    -0.000110641770752
  70    -1.5514072054616e-05
  71    -4.7115578426808e-06
  72    1.351155542797e-06
  73    0.0001536597174008
  74    -3.1766441320083e-05
  75    -3.5710261924053e-05
  76    8.5875839253591e-06
  77    1.1780575192109e-05
  78    -7.6717295377877e-06
  79    -8.2604413991641e-06
  80    8.2969788712793e-06
  81    -4.3621296284257e-05
  82    4.2883132399674e-05
  83    -9.9214364840099e-06
  84    1.6048352705204e-05
  85    9.3766054820353e-06
  86    -0.00010225062510302
  87    -0.00078806265320449
  88    0.00099139394901116
  89    -0.00066553894172375
  90    -9.3921303684032e-05
  91    0.0006128360694942
  92    0.00038408794285663
  93    -0.00030753358506558
  94    -0.00021414946436935
  95    5.9122952760591e-07
  96    -1.6551097691467e-05
  97    -7.3484366020508e-06
  98    4.9257072628974e-06
  99    5.3670135708969e-07
 100    -3.2001870828497e-05
 101    4.4781910862467e-06
 102    -1.7338932330691e-05
 103    1.6202518962549e-05
 104    7.5039330710159e-06
 105    9.8926045406906e-06
 106    4.8406853101631e-06
 107    -1.2494409655473e-05
 108    1.8835724213351e-06
 109    -1.9539243248357e-07
 110    -2.238514222708e-05
 111    2.1058500748175e-05
 112    1.5721471802743e-06
 113    -5.747924336667e-07
 114    -1.8713487703946e-06
 115    -1.8074699544457e-05
 116    -2.8204225920572e-05
 117    0.00017363042693465
 118    6.7624903097679e-07
 119    6.0698045854956e-06
 120    -5.0196938605448e-06
 121    0.00017260314120786
 122    -0.00013666407052622
 123    -2.5352749762115e-05
 124    -1.4391959709319e-06
 125    -1.1180368606702e-05
 126    6.4417886342042e-06
 127    6.2650655629894e-06
 128    -9.725910579771e-06
 129    -0.00035437013873213
 130    -6.4704737197689e-06
 131    -2.1897623918395e-05
 132    3.306751652002e-05
 133    5.1050245973203e-05
 134    -0.00036960811544267
 135    -2.5060369959871e-05
 136    -6.1240261144921e-05
 137    1.6854918859967e-05
 138    -2.2303458471666e-06
 139    -0.00063045075937286
 140    -0.00027366101973992
 141    -0.0003794651617738
 142    0.00053222970942732
 143    -0.00071187310485232
 144    -0.00018878081369567
 145    0.0015590392520436
 146    -0.00082380390334148
 147    -0.0010355959678609
 148    2.2557740381164e-05
 149    2.3247434324532e-06
 150    -6.5214978672253e-05
 151    -1.7311514405063e-05
 152    7.3677800829265e-05
 153    -3.1735542543353e-06
 154    7.2157347391381e-06
 155    -5.7902484902024e-06
 156    5.0777091655974e-06
 157    -2.9812431361867e-06
 158    -1.9251256691019e-05
 159    -1.2184720411458e-05
 160    -5.7299138019762e-06
 161    4.8653478196862e-06
 162    -2.4801752312705e-07
 163    -5.7370614082155e-05
 164    -9.2562605393657e-06
 165    7.8244640039727e-05
 166    1.9337294110165e-06
 167    -1.1611103596862e-06
 168    4.9802978958338e-07
 169    4.9441646836098e-05
 170    -5.8270077149316e-06
 171    1.8471910915684e-05
 172    -1.3681008566563e-07
 173    3.813370375627e-06
 174    -1.7839530432534e-06
 175    1.2659353170999e-06
 176    -3.6004710590744e-07
 177    0.00029929917041052
 178    -5.7184418496956e-05
 179    -8.2236868040331e-05
 180    2.8304661330163e-05
 181    5.5113759764893e-05
 182     -0.03670676695816
 183    -0.00015687718674748
 184    0.0021548868676749
 185    9.9017738577861e-05
 186    -6.9651372483559e-05
 187    -5.8411117960569e-05
 188    0.0010451936966864
 189    -0.00038723824888899
 190    -0.00075273106410442
 191    3.5044267836265e-05
 192    0.00015344940468108
 193    -3.7712023126069e-05
 194    -4.5138286370069e-05
 195    0.00010149368970587
 196    0.00029555437831386
 197    -5.7251020132584e-05
 198    -7.7463632258648e-05
 199    2.9697890662892e-05
 200    6.0610248533362e-05
 201    -1.9146242807145e-06
 202    1.3678304523451e-05
 203    -1.0234362312332e-06
 204    5.7997315088727e-07
 205    1.4820899460242e-07
 206    -4.1297727216276e-06
 207    -1.920881023728e-05
 208    -1.3131528249946e-06
 209    2.4785322751806e-06
 210    -1.6017912770426e-06
 211    -0.00011147131162796
 212    -6.6540915228997e-06
 213    -7.7160399227412e-06
 214    -3.8781415434483e-06
 215     2.04525360998e-06
 216    -1.2383267390764e-06
 217    5.4793101531033e-05
 218    -4.1380402796223e-05
 219    2.5338420005352e-05
 220    -6.2372374845145e-07
 221    -1.7263673359575e-06
 222    1.9453675540884e-06
 223    7.627894266687e-07
 224    -1.5505997082898e-06
 225    -8.8990678264899e-05
 226    0.00012041405091037
 227    2.0864982430688e-05
 228    -5.4909160225893e-05
 229    -2.3241819712165e-05
 230    -9.0428918971997e-05
 231    0.00012683596796275
 232    4.4524739846606e-05
 233    -4.4842812475234e-05
 234    5.3628196763657e-06
 235       1.0017464790203
 236    0.0048488720648751
 237    -0.0099380128820071
 238    0.00016666537381763
 239    -0.00014914630640099
 240    -9.1648186076334e-05
 241     0.001021684374588
 242    -0.00019402000183407
 243    -0.00080327339090953
 244    4.4986936478338e-05
 245    0.00012301280149261
 246    -9.4862515363038e-05
 247    -6.0811681789671e-05
 248    0.00014915808064851
 249    -5.6316915308493e-06
 250    1.415593317822e-06
 251    -2.2690450400356e-06
 252    2.6583237524135e-06
 253    -1.4035728748654e-06
 254    -3.8112225874407e-06
 255    -2.9942133923088e-06
 256    -2.8607150227168e-06
 257    1.3251893587275e-06
 258    -2.1213677211525e-06
 259    -4.1452527541178e-05
 260    -7.6705669244563e-06
 261    6.2132869769766e-05
 262    1.0201523463086e-06