[Molden Format]
made by pyscf v[2.0.1]
[Atoms] (AU)
C   1   6    -0.00491185910195    -0.00302299034612    -6.30478139015019
O   2   8    -0.00302499062123    -0.00226824280266    -4.17507277885027
[GTO]
1 0
 s    5 1.00
          1238.4016938  0.0055173650481097
          186.29004992   0.041088828555946
          42.251176346     0.1822538212649
          11.676557932    0.46828459437429
          3.5930506482    0.44575817336002
 s    1 1.00
         0.40245147363                   1
 s    1 1.00
         0.13090182668                   1
 p    3 1.00
          9.4680970621   0.056888332011037
          2.0103545142    0.31294059336471
         0.54771004707    0.76065016509135
 p    1 1.00
         0.15268613795                   1
 d    1 1.00
                   0.8                   1

2 0
 s    5 1.00
          2266.1767785  -0.0053893503921743
          340.87010191   -0.04023472138896
          77.363135167   -0.18008184205526
           21.47964494   -0.46828857657651
          6.6589433124   -0.44692617160187
 s    1 1.00
         0.80975975668                   1
 s    1 1.00
         0.25530772234                   1
 p    3 1.00
          17.721504317   0.062630248763161
           3.863550544    0.33331138482352
          1.0480920883    0.74148638308122
 p    1 1.00
         0.27641544411                   1
 d    1 1.00
                   1.2                   1

[5d]
[7f]
[9g]

[MO]
 Sym= A
 Ene=               0
 Spin= Alpha
 Occup=    1.00000
   1    -0.0026827620232249
   2    0.0047430397279288
   3    -0.0089679547265514
   4    2.901831008489e-06
   5    1.1607326450194e-06
   6    0.0032751790133331
   7    -7.0676366540075e-06
   8    -2.8270552232183e-06
   9    -0.0079772784100274
  10    0.0023245960446415
  11    3.5672038352625e-06
  12    1.4268818187155e-06
  13    1.3278131959753e-09
  14    1.2639762914996e-09
  15      0.98369633939698
  16    -0.052435164206486
  17     0.020135372312638
  18    -3.8643425179048e-06
  19    -1.5457372821357e-06
  20    -0.0043620685542446
  21    -8.3404983576075e-06
  22    -3.3362000137199e-06
  23    -0.0094139017252129
  24    -0.00056870156664895
  25    -8.7280047698571e-07
  26    -3.4912027196396e-07
  27    -3.2699226271583e-10
  28    -3.0820403287897e-10
 Sym= A
 Ene=               1
 Spin= Alpha
 Occup=    1.00000
   1     -0.98325509665113
   2    -0.056076352541941
   3    -0.0028872823556748
   4    2.4582861396856e-06
   5     9.83314599286e-07
   6    0.0027749769547194
   7    -9.8139733216958e-07
   8    -3.925590054572e-07
   9    -0.0011076514738695
  10    -0.0022623376696835
  11    -3.4717823004764e-06
  12    -1.3887132178131e-06
  13    -1.2921123247976e-09
  14    -1.2301655677716e-09
  15     0.000603386874949
  16    0.0033498589289719
  17     0.012660145405171
  18    -4.4209193505275e-06
  19    -1.7683681192748e-06
  20    -0.0049899806994386
  21    -8.9132598652801e-06
  22    -3.5653046721792e-06
  23    -0.010060421416656
  24    0.00026139390268927
  25    4.0084476994714e-07
  26    1.603379251263e-07
  27    1.4980745524338e-10
  28    1.4133624599709e-10
 Sym= A
 Ene=               2
 Spin= Alpha
 Occup=    1.00000
   1      0.17543750967812
   2     -0.34905620256329
   3    -0.0076705639889587
   4    -0.00026677994812037
   5    -0.00010671200097303
   6     -0.30111334874747
   7    -1.6519069576804e-05
   8    -6.6076291496845e-06
   9     -0.01864446636705
  10    -0.035250496778281
  11    -5.4091942954636e-05
  12    -2.1636781616636e-05
  13    -2.0177630585764e-08
  14    -1.9146866376012e-08
  15     -0.20235772862444
  16     -0.39674560028237
  17     -0.09608325771986
  18    0.00031988396274831
  19    0.00012795361058607
  20      0.36105586155539
  21    9.0753978319235e-05
  22    3.630159857821e-05
  23      0.10243501651805
  24     -0.02199867424691
  25    -3.3759059596854e-05
  26    -1.3503626609069e-05
  27    -1.2551498944649e-08
  28    -1.1971946656208e-08
