[Molden Format]
made by pyscf v[2.0.1]
[Atoms] (AU)
C   1   6    -0.00491185910195    -0.00302299034612    -6.30478139015019
O   2   8    -0.00302499062123    -0.00226824280266    -4.17507277885027
[GTO]
1 0
 s    5 1.00
          1238.4016938  0.0055173650481097
          186.29004992   0.041088828555946
          42.251176346     0.1822538212649
          11.676557932    0.46828459437429
          3.5930506482    0.44575817336002
 s    1 1.00
         0.40245147363                   1
 s    1 1.00
         0.13090182668                   1
 p    3 1.00
          9.4680970621   0.056888332011037
          2.0103545142    0.31294059336471
         0.54771004707    0.76065016509135
 p    1 1.00
         0.15268613795                   1
 d    1 1.00
                   0.8                   1

2 0
 s    5 1.00
          2266.1767785  -0.0053893503921743
          340.87010191   -0.04023472138896
          77.363135167   -0.18008184205526
           21.47964494   -0.46828857657651
          6.6589433124   -0.44692617160187
 s    1 1.00
         0.80975975668                   1
 s    1 1.00
         0.25530772234                   1
 p    3 1.00
          17.721504317   0.062630248763161
           3.863550544    0.33331138482352
          1.0480920883    0.74148638308122
 p    1 1.00
         0.27641544411                   1
 d    1 1.00
                   1.2                   1

[5d]
[7f]
[9g]

[MO]
 Sym= A
 Ene=               0
 Spin= Alpha
 Occup=    1.00000
   1      0.10118112894641
   2     -0.24023105142176
   3    -0.048453319709695
   4    -6.8328308934473e-05
   5    -2.7331329238784e-05
   6    -0.077119528345771
   7    1.8851216896019e-05
   8    7.5404882697477e-06
   9     0.021277499964058
  10    0.0035578316606967
  11    5.458436272575e-06
  12    2.183374863579e-06
  13    2.0097863796799e-09
  14    1.9407507411693e-09
  15      0.25064318749874
  16      0.47736312885697
  17      0.42069319931189
  18    0.00037118419772759
  19    0.00014847370930071
  20      0.41894888085931
  21    0.0001973703455864
  22    7.8948154169309e-05
  23      0.22276920333249
  24    -0.017549837061813
  25    -2.6933216822278e-05
  26    -1.0773288955685e-05
  27    -1.0008986862803e-08
  28    -9.5515536836391e-09
 Sym= A
 Ene=               1
 Spin= Alpha
 Occup=    1.00000
   1    -6.1759894891572e-09
   2    1.5351019126448e-08
   3    3.0964524498937e-09
   4      0.33604055435409
   5    -0.0071326065560071
   6    -0.0002952068686854
   7       0.1320781503879
   8    -0.0028034160315601
   9    -0.00011602856961792
  10    -6.674019446045e-05
  11     0.043861249208974
  12    -0.00093098843680205
  13    3.9192480901505e-05
  14    1.4718803307408e-05
  15    -2.3015877233193e-09
  16    -3.1949910917358e-09
  17    1.4181011338041e-10
  18      0.55931168174421
  19    -0.011871633005182
  20    -0.00049132545174771
  21      0.32913187344917
  22    -0.0069859667567924
  23    -0.00028912712695653
  24    4.0031324770708e-05
  25    -0.026311363832243
  26    0.00055847872161844
  27    -2.3510937271403e-05
  28    -8.8284256170205e-06
 Sym= A
 Ene=               2
 Spin= Alpha
 Occup=    1.00000
   1    2.6237613815432e-09
   2    -6.5218088753373e-09
   3    -1.315318095834e-09
   4    -0.0071324986097798
   5     -0.33604066282298
   6    0.00012541338955744
   7    -0.002803373629588
   8     -0.13207819308989
   9    4.9292675043068e-05
  10    2.8353384920249e-05
  11    -0.00093094616056882
  12      -0.0438612916319
  13    1.472015897272e-05
  14    -3.9188925579807e-05
  15    9.7797110453313e-10
  16    1.3575564823969e-09
  17    -5.9684232534409e-11
  18    -0.011871453528601
  19     -0.55931186233151
  20    0.00020873088335438
  21    -0.0069858611337109
  22     -0.32913197989832
  23    0.00012283051972971
  24    -1.7006596465783e-05
  25    0.00055845341305138
  26     0.026311389372083
  27    -8.8303858094744e-06
  28    2.3505750121465e-05
 Sym= A
 Ene=               3
 Spin= Alpha
 Occup=    1.00000
   1     -0.23381284709367
   2      0.44904963715517
   3      0.51024812868022
   4    -0.00036446566141537
   5    -0.00014578629388051
   6     -0.41137687150494
   7    -0.00012200702469883
   8    -4.8802819673351e-05
   9     -0.13770277720452
  10    -0.030245860027797
  11    -4.6409220026761e-05
  12    -1.8563691721153e-05
  13    -1.7284270219599e-08
  14    -1.6433912049619e-08
  15    -0.016662272870036
  16    -0.046751857748523
  17    -0.026820141417384
  18    0.00017879531058661
  19    7.1518138900192e-05
  20      0.20182483248162
  21    9.2893828877816e-05
  22    3.715753917013e-05
  23      0.10486212454108
  24    -0.0012960978763237
  25    -1.9883307964355e-06
  26    -7.953325241852e-07
  27    -7.298818606821e-10
  28    -7.1033191381442e-10
