[Molden Format]
made by pyscf v[2.0.1]
[Atoms] (AU)
O   1   8     0.00000000000000     0.00000000000000     6.40640788651141
H   2   1     0.00000000000000     0.00000000000000     4.58300606461044
H   3   1    -0.05031916615174     1.78353439551780     6.78227958297808
O   4   8     0.00000000000000     0.00000000000000     2.31533471513237
C   5   6     0.00000000000000     0.00000000000000     0.00000000000000
C   6   6     2.01118073026938    -1.40227222164369    -1.50774939176400
C   7   6    -2.01249334291722     1.41331050329955    -1.50319235519811
H   8   1     3.32037363730244    -2.26721897153159    -0.13599698591495
C   9   6     3.45899267434009     0.28739631745591    -3.37437943254505
H   10   1     1.07662969841332    -2.94725144642667    -2.56541439481080
H   11   1    -2.67503415753480     0.18421555839588    -3.06194479365997
H   12   1    -1.08005520873877     3.03851734677796    -2.43674295017013
C   13   6    -4.21607110578555     2.32938802552922     0.11994192435017
H   14   1     4.24440173074564     1.93368664387684    -2.34976285512790
H   15   1     2.18907033049676     1.04714335134846    -4.81494497423699
C   16   6     5.60746363007797    -1.12419643481196    -4.70268606082550
H   17   1    -3.46838323670267     3.50951302338067     1.66946842715333
H   18   1    -5.11873485366228     0.68575958301209     1.04047743976495
C   19   6    -6.18314754751344     3.80909592987882    -1.39656589068747
H   20   1     6.93011263717176    -1.87550812453645    -3.26656317360070
C   21   6     7.10306991577580     0.52877932406334    -6.57829775293605
H   22   1     4.82318879258361    -2.78573437948532    -5.70504560381835
H   23   1    -6.91582688743803     2.61304780074712    -2.95074552451969
H   24   1    -5.26532430573853     5.45420349051338    -2.31005832200284
C   25   6    -8.39941882261433     4.73263980500213     0.21800571437956
H   26   1     7.83338371486801     2.19084139882824    -5.57093109900697
H   27   1     5.73544244039420     1.27376866537418    -8.01071492370229
C   28   6     9.21124858443101    -0.89699110072176    -7.88926949186242
H   29   1    -7.66272760055236     5.92277078003992     1.77035591474408
H   30   1    -9.31497248082589     3.08753015622020     1.12614408368786
C   31   6   -10.35481709231879     6.21833079391143    -1.30905206253246
H   32   1    10.58815905329501    -1.61099162890610    -6.52093739071026
H   33   1    10.23506248045667     0.32468009384095    -9.23072870921204
H   34   1     8.47665842847139    -2.53598436989925    -8.94921964622535
H   35   1    -9.48948872868064     7.90013588951020    -2.18823918416067
H   36   1   -11.93332774482359     6.86460487874102    -0.11255798845995
H   37   1   -11.15126291841033     5.04495968327630    -2.83849898862534
[GTO]
1 0
 s    8 1.00
                 11720  0.00070964594651845
                  1759  0.0054672722921914
                 400.8   0.027823118610189
                 113.7    0.10474773971146
                 37.03    0.28292084635691
                 13.27    0.44849523869833
                 5.025    0.27081688521277
                 1.013    0.01545029160744
 s    8 1.00
                 11720  -0.00031444341168873
                  1759  -0.0024821376810179
                 400.8  -0.012316355381583
                 113.7  -0.050538917343672
                 37.03   -0.13938490331632
                 13.27   -0.32507749481778
                 5.025   -0.22984830758785
                 1.013     1.0953793467883
 s    1 1.00
                0.3023                   1
 p    3 1.00
                  17.7   0.062679166281506
                 3.854    0.33353656587936
                 1.046    0.74123964163973
 p    1 1.00
                0.2753                   1
 d    1 1.00
                 1.185                   1

2 0
 s    3 1.00
                 13.01   0.033498726389998
                 1.962    0.23480080117413
                0.4446     0.8136829578829
 s    1 1.00
                 0.122                   1
 p    1 1.00
                 0.727                   1

3 0
 s    3 1.00
                 13.01   0.033498726389998
                 1.962    0.23480080117413
                0.4446     0.8136829578829
 s    1 1.00
                 0.122                   1
 p    1 1.00
                 0.727                   1

4 0
 s    8 1.00
                 11720  0.00070964594651845
                  1759  0.0054672722921914
                 400.8   0.027823118610189
                 113.7    0.10474773971146
                 37.03    0.28292084635691
                 13.27    0.44849523869833
                 5.025    0.27081688521277
                 1.013    0.01545029160744
 s    8 1.00
                 11720  -0.00031444341168873
                  1759  -0.0024821376810179
                 400.8  -0.012316355381583
                 113.7  -0.050538917343672
                 37.03   -0.13938490331632
                 13.27   -0.32507749481778
                 5.025   -0.22984830758785
                 1.013     1.0953793467883
 s    1 1.00
                0.3023                   1
 p    3 1.00
                  17.7   0.062679166281506
                 3.854    0.33353656587936
                 1.046    0.74123964163973
 p    1 1.00
                0.2753                   1
 d    1 1.00
                 1.185                   1

5 0
 s    8 1.00
                  6665  0.00069158396281299
                  1000  0.0053257961529341
                   228   0.027060721042034
                 64.71    0.10165684614077
                 21.06     0.2745748236174
                 7.495    0.44829431892377
                 2.797    0.28490261071525
                0.5215   0.015194859206082
 s    8 1.00
                  6665  -0.00029326965268655
                  1000  -0.0023180354739745
                   228  -0.011499786038565
                 64.71  -0.046826727009787
                 21.06   -0.12846616875047
                 7.495   -0.30126627246289
                 2.797   -0.25563070233011
                0.5215      1.093793361012
 s    1 1.00
                0.1596                   1
 p    3 1.00
                 9.439   0.056979251590039
                 2.002    0.31320721150073
                0.5456    0.76037674173753
 p    1 1.00
                0.1517                   1
 d    1 1.00
                  0.55                   1

6 0
 s    8 1.00
                  6665  0.00069158396281299
                  1000  0.0053257961529341
                   228   0.027060721042034
                 64.71    0.10165684614077
                 21.06     0.2745748236174
                 7.495    0.44829431892377
                 2.797    0.28490261071525
                0.5215   0.015194859206082
 s    8 1.00
                  6665  -0.00029326965268655
                  1000  -0.0023180354739745
                   228  -0.011499786038565
                 64.71  -0.046826727009787
                 21.06   -0.12846616875047
                 7.495   -0.30126627246289
                 2.797   -0.25563070233011
                0.5215      1.093793361012
 s    1 1.00
                0.1596                   1
 p    3 1.00
                 9.439   0.056979251590039
                 2.002    0.31320721150073
                0.5456    0.76037674173753
 p    1 1.00
                0.1517                   1
 d    1 1.00
                  0.55                   1

7 0
 s    8 1.00
                  6665  0.00069158396281299
                  1000  0.0053257961529341
                   228   0.027060721042034
                 64.71    0.10165684614077
                 21.06     0.2745748236174
                 7.495    0.44829431892377
                 2.797    0.28490261071525
                0.5215   0.015194859206082
 s    8 1.00
                  6665  -0.00029326965268655
                  1000  -0.0023180354739745
                   228  -0.011499786038565
                 64.71  -0.046826727009787
                 21.06   -0.12846616875047
                 7.495   -0.30126627246289
                 2.797   -0.25563070233011
                0.5215      1.093793361012
 s    1 1.00
                0.1596                   1
 p    3 1.00
                 9.439   0.056979251590039
                 2.002    0.31320721150073
                0.5456    0.76037674173753
 p    1 1.00
                0.1517                   1
 d    1 1.00
                  0.55                   1

8 0
 s    3 1.00
                 13.01   0.033498726389998
                 1.962    0.23480080117413
                0.4446     0.8136829578829
 s    1 1.00
                 0.122                   1
 p    1 1.00
                 0.727                   1

9 0
 s    8 1.00
                  6665  0.00069158396281299
                  1000  0.0053257961529341
                   228   0.027060721042034
                 64.71    0.10165684614077
                 21.06     0.2745748236174
                 7.495    0.44829431892377
                 2.797    0.28490261071525
                0.5215   0.015194859206082
 s    8 1.00
                  6665  -0.00029326965268655
                  1000  -0.0023180354739745
                   228  -0.011499786038565
                 64.71  -0.046826727009787
                 21.06   -0.12846616875047
                 7.495   -0.30126627246289
                 2.797   -0.25563070233011
                0.5215      1.093793361012
 s    1 1.00
                0.1596                   1
 p    3 1.00
                 9.439   0.056979251590039
                 2.002    0.31320721150073
                0.5456    0.76037674173753
 p    1 1.00
                0.1517                   1
 d    1 1.00
                  0.55                   1

10 0
 s    3 1.00
                 13.01   0.033498726389998
                 1.962    0.23480080117413
                0.4446     0.8136829578829
 s    1 1.00
                 0.122                   1
 p    1 1.00
                 0.727                   1

11 0
 s    3 1.00
                 13.01   0.033498726389998
                 1.962    0.23480080117413
                0.4446     0.8136829578829
 s    1 1.00
                 0.122                   1
 p    1 1.00
                 0.727                   1

12 0
 s    3 1.00
                 13.01   0.033498726389998
                 1.962    0.23480080117413
                0.4446     0.8136829578829
 s    1 1.00
                 0.122                   1
 p    1 1.00
                 0.727                   1

13 0
 s    8 1.00
                  6665  0.00069158396281299
                  1000  0.0053257961529341
                   228   0.027060721042034
                 64.71    0.10165684614077
                 21.06     0.2745748236174
                 7.495    0.44829431892377
                 2.797    0.28490261071525
                0.5215   0.015194859206082
 s    8 1.00
                  6665  -0.00029326965268655
                  1000  -0.0023180354739745
                   228  -0.011499786038565
                 64.71  -0.046826727009787
                 21.06   -0.12846616875047
                 7.495   -0.30126627246289
                 2.797   -0.25563070233011
                0.5215      1.093793361012
 s    1 1.00
                0.1596                   1
 p    3 1.00
                 9.439   0.056979251590039
                 2.002    0.31320721150073
                0.5456    0.76037674173753
 p    1 1.00
                0.1517                   1
 d    1 1.00
                  0.55                   1

14 0
 s    3 1.00
                 13.01   0.033498726389998
                 1.962    0.23480080117413
                0.4446     0.8136829578829
 s    1 1.00
                 0.122                   1
 p    1 1.00
                 0.727                   1

15 0
 s    3 1.00
                 13.01   0.033498726389998
                 1.962    0.23480080117413
                0.4446     0.8136829578829
 s    1 1.00
                 0.122                   1
 p    1 1.00
                 0.727                   1

16 0
 s    8 1.00
                  6665  0.00069158396281299
                  1000  0.0053257961529341
                   228   0.027060721042034
                 64.71    0.10165684614077
                 21.06     0.2745748236174
                 7.495    0.44829431892377
                 2.797    0.28490261071525
                0.5215   0.015194859206082
 s    8 1.00
                  6665  -0.00029326965268655
                  1000  -0.0023180354739745
                   228  -0.011499786038565
                 64.71  -0.046826727009787
                 21.06   -0.12846616875047
                 7.495   -0.30126627246289
                 2.797   -0.25563070233011
                0.5215      1.093793361012
 s    1 1.00
                0.1596                   1
 p    3 1.00
                 9.439   0.056979251590039
                 2.002    0.31320721150073
                0.5456    0.76037674173753
 p    1 1.00
                0.1517                   1
 d    1 1.00
                  0.55                   1

17 0
 s    3 1.00
                 13.01   0.033498726389998
                 1.962    0.23480080117413
                0.4446     0.8136829578829
 s    1 1.00
                 0.122                   1
 p    1 1.00
                 0.727                   1

18 0
 s    3 1.00
                 13.01   0.033498726389998
                 1.962    0.23480080117413
                0.4446     0.8136829578829
 s    1 1.00
                 0.122                   1
 p    1 1.00
                 0.727                   1

19 0
 s    8 1.00
                  6665  0.00069158396281299
                  1000  0.0053257961529341
                   228   0.027060721042034
                 64.71    0.10165684614077
                 21.06     0.2745748236174
                 7.495    0.44829431892377
                 2.797    0.28490261071525
                0.5215   0.015194859206082
 s    8 1.00
                  6665  -0.00029326965268655
                  1000  -0.0023180354739745
                   228  -0.011499786038565
                 64.71  -0.046826727009787
                 21.06   -0.12846616875047
                 7.495   -0.30126627246289
                 2.797   -0.25563070233011
                0.5215      1.093793361012
 s    1 1.00
                0.1596                   1
 p    3 1.00
                 9.439   0.056979251590039
                 2.002    0.31320721150073
                0.5456    0.76037674173753
 p    1 1.00
                0.1517                   1
 d    1 1.00
                  0.55                   1

20 0
 s    3 1.00
                 13.01   0.033498726389998
                 1.962    0.23480080117413
                0.4446     0.8136829578829
 s    1 1.00
                 0.122                   1
 p    1 1.00
                 0.727                   1

21 0
 s    8 1.00
                  6665  0.00069158396281299
                  1000  0.0053257961529341
                   228   0.027060721042034
                 64.71    0.10165684614077
                 21.06     0.2745748236174
                 7.495    0.44829431892377
                 2.797    0.28490261071525
                0.5215   0.015194859206082
 s    8 1.00
                  6665  -0.00029326965268655
                  1000  -0.0023180354739745
                   228  -0.011499786038565
                 64.71  -0.046826727009787
                 21.06   -0.12846616875047
                 7.495   -0.30126627246289
                 2.797   -0.25563070233011
                0.5215      1.093793361012
 s    1 1.00
                0.1596                   1
 p    3 1.00
                 9.439   0.056979251590039
                 2.002    0.31320721150073
                0.5456    0.76037674173753
 p    1 1.00
                0.1517                   1
 d    1 1.00
                  0.55                   1

22 0
 s    3 1.00
                 13.01   0.033498726389998
                 1.962    0.23480080117413
                0.4446     0.8136829578829
 s    1 1.00
                 0.122                   1
 p    1 1.00
                 0.727                   1

23 0
 s    3 1.00
                 13.01   0.033498726389998
                 1.962    0.23480080117413
                0.4446     0.8136829578829
 s    1 1.00
                 0.122                   1
 p    1 1.00
                 0.727                   1

24 0
 s    3 1.00
                 13.01   0.033498726389998
                 1.962    0.23480080117413
                0.4446     0.8136829578829
 s    1 1.00
                 0.122                   1
 p    1 1.00
                 0.727                   1

25 0
 s    8 1.00
                  6665  0.00069158396281299
                  1000  0.0053257961529341
                   228   0.027060721042034
                 64.71    0.10165684614077
                 21.06     0.2745748236174
                 7.495    0.44829431892377
                 2.797    0.28490261071525
                0.5215   0.015194859206082
 s    8 1.00
                  6665  -0.00029326965268655
                  1000  -0.0023180354739745
                   228  -0.011499786038565
                 64.71  -0.046826727009787
                 21.06   -0.12846616875047
                 7.495   -0.30126627246289
                 2.797   -0.25563070233011
                0.5215      1.093793361012
 s    1 1.00
                0.1596                   1
 p    3 1.00
                 9.439   0.056979251590039
                 2.002    0.31320721150073
                0.5456    0.76037674173753
 p    1 1.00
                0.1517                   1
 d    1 1.00
                  0.55                   1

26 0
 s    3 1.00
                 13.01   0.033498726389998
                 1.962    0.23480080117413
                0.4446     0.8136829578829
 s    1 1.00
                 0.122                   1
 p    1 1.00
                 0.727                   1

27 0
 s    3 1.00
                 13.01   0.033498726389998
                 1.962    0.23480080117413
                0.4446     0.8136829578829
 s    1 1.00
                 0.122                   1
 p    1 1.00
                 0.727                   1

28 0
 s    8 1.00
                  6665  0.00069158396281299
                  1000  0.0053257961529341
                   228   0.027060721042034
                 64.71    0.10165684614077
                 21.06     0.2745748236174
                 7.495    0.44829431892377
                 2.797    0.28490261071525
                0.5215   0.015194859206082
 s    8 1.00
                  6665  -0.00029326965268655
                  1000  -0.0023180354739745
                   228  -0.011499786038565
                 64.71  -0.046826727009787
                 21.06   -0.12846616875047
                 7.495   -0.30126627246289
                 2.797   -0.25563070233011
                0.5215      1.093793361012
 s    1 1.00
                0.1596                   1
 p    3 1.00
                 9.439   0.056979251590039
                 2.002    0.31320721150073
                0.5456    0.76037674173753
 p    1 1.00
                0.1517                   1
 d    1 1.00
                  0.55                   1

29 0
 s    3 1.00
                 13.01   0.033498726389998
                 1.962    0.23480080117413
                0.4446     0.8136829578829
 s    1 1.00
                 0.122                   1
 p    1 1.00
                 0.727                   1

30 0
 s    3 1.00
                 13.01   0.033498726389998
                 1.962    0.23480080117413
                0.4446     0.8136829578829
 s    1 1.00
                 0.122                   1
 p    1 1.00
                 0.727                   1

31 0
 s    8 1.00
                  6665  0.00069158396281299
                  1000  0.0053257961529341
                   228   0.027060721042034
                 64.71    0.10165684614077
                 21.06     0.2745748236174
                 7.495    0.44829431892377
                 2.797    0.28490261071525
                0.5215   0.015194859206082
 s    8 1.00
                  6665  -0.00029326965268655
                  1000  -0.0023180354739745
                   228  -0.011499786038565
                 64.71  -0.046826727009787
                 21.06   -0.12846616875047
                 7.495   -0.30126627246289
                 2.797   -0.25563070233011
                0.5215      1.093793361012
 s    1 1.00
                0.1596                   1
 p    3 1.00
                 9.439   0.056979251590039
                 2.002    0.31320721150073
                0.5456    0.76037674173753
 p    1 1.00
                0.1517                   1
 d    1 1.00
                  0.55                   1

32 0
 s    3 1.00
                 13.01   0.033498726389998
                 1.962    0.23480080117413
                0.4446     0.8136829578829
 s    1 1.00
                 0.122                   1
 p    1 1.00
                 0.727                   1

33 0
 s    3 1.00
                 13.01   0.033498726389998
                 1.962    0.23480080117413
                0.4446     0.8136829578829
 s    1 1.00
                 0.122                   1
 p    1 1.00
                 0.727                   1

34 0
 s    3 1.00
                 13.01   0.033498726389998
                 1.962    0.23480080117413
                0.4446     0.8136829578829
 s    1 1.00
                 0.122                   1
 p    1 1.00
                 0.727                   1

35 0
 s    3 1.00
                 13.01   0.033498726389998
                 1.962    0.23480080117413
                0.4446     0.8136829578829
 s    1 1.00
                 0.122                   1
 p    1 1.00
                 0.727                   1

36 0
 s    3 1.00
                 13.01   0.033498726389998
                 1.962    0.23480080117413
                0.4446     0.8136829578829
 s    1 1.00
                 0.122                   1
 p    1 1.00
                 0.727                   1

37 0
 s    3 1.00
                 13.01   0.033498726389998
                 1.962    0.23480080117413
                0.4446     0.8136829578829
 s    1 1.00
                 0.122                   1
 p    1 1.00
                 0.727                   1

[5d]
[7f]
[9g]

[MO]
 Sym= A
 Ene=               0
 Spin= Alpha
 Occup=    1.00000
   1    0.00023267209883045
   2    3.0808344654993e-05
   3    0.00030336183807954
   4    -1.5961064604769e-06
   5    1.1972148138571e-06
   6    -0.00013019043623715
   7    3.508928358759e-06
   8    8.0480819592641e-06
   9    -0.00024820164151709
  10    0.00010927354349032
  11    2.2712832000575e-07
  12    -1.8039007111123e-06
  13    -4.9598434418903e-06
  14    -3.4427608598487e-07
  15    -6.3290723505862e-05
  16    6.5326838020392e-05
  17    7.0082061719385e-07
  18    -5.1419378916089e-06
  19    -0.00039094374660046
  20    -3.7097027138297e-05
  21    3.5135511309362e-05
  22    -5.3915080013815e-07
  23    -8.6630331739055e-06
  24    4.7973823439707e-06
  25      -1.0014259584425
  26    -0.0022019098334586
  27    0.0069046674132003
  28    2.3009836961065e-06
  29    -1.8903886956216e-05
  30    0.0014507371769264
  31    6.4843989404245e-06
  32    2.1701198819132e-09
  33    -0.0022528293240086
  34    -0.00023526291686321
  35    3.1161833180231e-06
  36    -8.7397788159578e-07
  37    -5.9637613385333e-05
  38    0.00015785012000139
  39    -0.00031521779755765
  40    -0.00043497723443567
  41    -0.001857829041297
  42    -1.5943559020265e-05
  43    1.0692509434273e-05
  44    -6.8777790265473e-05
  45    -0.0001057504306368
  46    7.6301046770886e-05
  47    -0.0036084652221141
  48    0.00056409683315406
  49    1.8474764444824e-05
  50    -7.3605554506861e-06
  51    -4.4258613188196e-05
  52    0.00015608034649774
  53    -0.00034943164321273
  54    -4.4203775335049e-05
  55    -0.0014167788343752
  56    -0.00022490189311147
  57    0.00018440865877759
  58    -0.00023076238089203
  59    0.00029727558623302
  60    -0.00034270083557474
  61    0.00085250553779578
  62    0.00011104749074234
  63    -0.00017574930665491
  64    0.00015807316118568
  65    -5.5457461170208e-05
  66    0.00013278478948427
  67    -0.000409639146381
  68    -0.00019874465324681
  69    -0.00067575030601604
  70    0.00047137134788587
  71    -0.0003660291106958
  72    -0.00041650361393948
  73    -0.00077432848002141
  74    0.00058776991198608
  75    0.00042352527219403
  76    0.00016046256754696
  77    0.00015401460879987
  78    -8.639155645887e-05
  79    -8.8535709309925e-05
  80    0.00017762113346678
  81    -0.00032934474841014
  82    -0.00029899363520641
  83    -4.5985903574079e-05
  84    3.6789690669651e-05
  85    -3.2385938067731e-05
  86    -4.3290932507605e-05
  87    -9.4973920149108e-05
  88    0.00056055123774557
  89    -1.8942689599591e-05
  90    -9.8246820435334e-05
  91    3.9909608259979e-05
  92    -0.00026530231491542
  93    -0.00069589997900173
  94    4.800138333793e-05
  95    -2.7080140036718e-05
  96    -1.9614042539037e-05
  97    -1.2199204593538e-06
  98    2.8045401611542e-05
  99    5.3696469513658e-05
 100    -1.2930827310606e-06
 101    0.00017665924536985
 102    -1.34759645274e-05
 103    9.3093508055853e-06
 104    -8.8474359948198e-05
 105    0.00029440796385716
 106    0.00039339741741209
 107    7.5890839620443e-05
 108    -3.8756903002635e-06
 109    -7.4795893285368e-05
 110    -8.2719572203878e-05
 111    0.00013166379268482
 112    5.2462084450631e-05
 113    -2.4582570656396e-05
 114    -8.5660819736755e-05
 115    -0.00032612426361019
 116    -2.1226772846672e-05
 117    -0.0010264738968319
 118    -0.00015930832010538
 119    0.00010724504978856
 120    0.00088707952456654
 121    -0.0003449032963184
 122    3.9798036534614e-06
 123    0.00062141837191962
 124    1.8406357010186e-05
 125    2.249333645562e-05
 126    -9.8795354196183e-07
 127    -9.7569186176874e-06
 128    7.7303019806041e-06
 129    -7.3328259092009e-05
 130    0.0003112556146004
 131    -5.2556399934855e-06
 132    -1.1152692907483e-06
 133    -2.2196281125927e-05
 134    -0.00011264049192842
 135    4.7677465414084e-05
 136    1.1817013122819e-05
 137    2.5581105358414e-05
 138    1.9572936258834e-05
 139    1.348713338128e-05
 140    4.0831495029121e-05
 141    -0.0002607536169269
 142    1.4296056869874e-05
 143    3.9774932170316e-05
 144    -8.3606011678799e-06
 145    0.00021719511134025
 146    -3.9365325781967e-05
 147    -5.787784049648e-05
 148    4.9815320324591e-06
 149    -8.6741497857273e-06
 150    -3.7868148262178e-07
 151    -8.8611361007792e-06
 152    1.0438465876828e-05
 153    0.00067035457158578
 154    0.00036749118131535
 155    6.248859079928e-06
 156    -5.1771837314521e-05
 157    -3.5031892667297e-05
 158    0.00033311637493403
 159    0.0002316009282488
 160    6.7213366688842e-05
 161    3.2486419022952e-05
 162    2.7376111810995e-06
 163    7.9807200452186e-05
 164    -2.9583250138916e-05
 165    0.00026322232867538
 166    -0.00020560448201518
 167    0.00014838114578073
 168    -0.00027026687721783
 169    -0.00027454989505008
 170    0.00025213116843503
 171    -1.9100465708795e-06
 172    3.0759480797274e-05
 173    -2.3407154990855e-06
 174    1.5837673768042e-05
 175    -1.7757430084811e-05
 176    5.3134745271888e-05
 177    2.267379008862e-06
 178    -0.00010424607349561
 179    3.6130299161694e-06
 180    1.6442413485236e-07
 181    4.0595703965244e-06
 182    -2.3613902167415e-05
 183    -9.7160107765747e-06
 184    9.7754156289413e-05
 185    -1.8440254827621e-05
 186    -1.9324800135404e-05
 187    2.9703624090996e-05
 188    -0.00013940021274237
 189    9.2609959624171e-05
 190    0.00011750254619117
 191    6.0423908505113e-07
 192    -3.6885119844353e-06
 193    5.8229984338246e-06
 194    2.6628166277917e-06
 195    7.2814909101334e-06
 196    -1.9249929998787e-05
 197    2.7659407206201e-06
 198    -5.1401827625449e-06
 199    -2.1913812650344e-06
 200    1.8365552868316e-06
 201    0.00021169140557753
 202    0.00014147341666582
 203    1.4342348691463e-05
 204    1.7680446088275e-06
 205    -7.5036452777071e-06
 206    0.00013181749006061
 207    1.8953116316026e-05
 208    4.8799266121752e-06
 209    -9.2323783299366e-06
 210    -1.8300727628882e-05
 211    4.0359597988373e-06
 212    8.8940799578123e-06
 213    -0.00030753609013758
 214    -1.8247900483794e-05
 215    -1.2296743650792e-06
 216    -3.215976813259e-06
 217    -0.00020570537961656
 218    4.9719058860872e-05
 219    7.8224410957519e-05
 220    1.4621287247337e-05
 221    5.5905072074715e-06
 222    -2.2669208686449e-06
 223    -1.098289038266e-05
 224    7.3258772676963e-06
 225    -2.3665152273335e-05
 226    -6.4234327546829e-05
 227    1.1732297835181e-05
 228    1.0918461264599e-06
 229    1.0891203676979e-06
 230    -1.6022971719883e-05
 231    -5.2983485074359e-05
 232    3.4109295507089e-06
 233    -7.2062253530191e-06
 234    -1.1111113906094e-05
 235    -4.7829110354436e-06
 236    -5.5872587560931e-06
 237    8.0611218949221e-05
 238    8.1175087333975e-06
 239    -4.5536027064573e-06
 240    -8.4221925508397e-06
 241    -3.2712411432042e-05
 242    6.1470149144675e-05
 243    -2.4475627739777e-05
 244    -1.0913616224521e-06
 245    -3.2234664463454e-06
 246    1.1516311797807e-06
 247    6.1564453645646e-07
 248    3.5172027002179e-07
 249    1.0651196060978e-05
 250    4.6247864281351e-06
 251    6.3197423219337e-06
 252    1.5896346220153e-06
 253    2.2933203746401e-06
 254    2.0259427929571e-05
 255    -4.5710244805186e-05
 256    -9.152776042464e-07
 257    -6.0056697512358e-06
 258    1.7677826291704e-06
 259    3.168348741542e-06
 260    1.0347774555269e-06
 261    -9.3987801565868e-05
 262    -1.883802252931e-05