[Molden Format]
made by pyscf v[2.0.1]
[Atoms] (AU)
O   1   8     0.00000000000000     0.00000000000000    10.18586013564153
H   2   1     0.00000000000000     0.00000000000000     8.36245831374057
H   3   1    -0.05031916615174     1.78353065140343    10.56173183210820
O   4   8     0.00000000000000     0.00000000000000     2.31533471513237
C   5   6     0.00000000000000     0.00000000000000     0.00000000000000
C   6   6     2.01118073026938    -1.40227222164369    -1.50774939176400
C   7   6    -2.01249334291722     1.41331050329955    -1.50315905028694
H   8   1     3.32037363730244    -2.26721897153159    -0.13599698591495
C   9   6     3.45899267434009     0.28739631745591    -3.37437943254505
H   10   1     1.07662969841332    -2.94725144642667    -2.56541439481080
H   11   1    -2.67503415753480     0.18421555839588    -3.06194479365997
H   12   1    -1.07974048864772     3.03851734677796    -2.43674295017013
C   13   6    -4.21607110578555     2.32938802552922     0.11994162256091
H   14   1     4.24440173074564     1.93368664142019    -2.34976285512790
H   15   1     2.15020713235517     1.04714335134846    -4.81494497423699
C   16   6     5.60746363007797    -1.12419643481196    -4.70268606082550
H   17   1    -3.46838323670267     3.50951302338067     1.66946842715333
H   18   1    -5.11873485366228     0.68575958301209     1.04047743976495
C   19   6    -6.18314754751344     3.80909592987882    -1.39656589068747
H   20   1     6.93011263717176    -1.87550812453645    -3.26656317360070
C   21   6     7.06356622236532     0.52877932406334    -6.57829775293605
H   22   1     4.82318879258361    -2.78573437948532    -5.70504560381835
H   23   1    -6.91582688743803     2.61304780074712    -2.95074552451969
H   24   1    -5.26532430573853     5.45420349051338    -2.31005832200284
C   25   6    -8.39941882261433     4.73263980500213     0.21800571437956
H   26   1     7.83338371486801     2.19084139882824    -5.57093109900697
H   27   1     5.73544244039420     1.27376866537418    -8.01071492370229
C   28   6     9.21124858443101    -0.89699110072176    -7.88926949186242
H   29   1    -7.66272760055236     5.92277078003992     1.77035591474408
H   30   1    -9.31497248082589     3.08753015622020     1.12614408368786
C   31   6   -10.35481709231879     6.21833079391143    -1.30905206253246
H   32   1    10.58815905329501    -1.61074586756696    -6.49512691622620
H   33   1    10.23506248045667     0.32468009384095    -9.23072870921204
H   34   1     8.47665842847139    -2.53598436989925    -8.94921964622535
H   35   1    -9.48948872868064     7.90013588951020    -2.18823918416067
H   36   1   -11.93332513000955     6.86460487874102    -0.11255798845995
H   37   1   -11.15126291841033     5.04495968327630    -2.83849898862534
[GTO]
1 0
 s    8 1.00
                 11720  0.00070964594651845
                  1759  0.0054672722921914
                 400.8   0.027823118610189
                 113.7    0.10474773971146
                 37.03    0.28292084635691
                 13.27    0.44849523869833
                 5.025    0.27081688521277
                 1.013    0.01545029160744
 s    8 1.00
                 11720  -0.00031444341168873
                  1759  -0.0024821376810179
                 400.8  -0.012316355381583
                 113.7  -0.050538917343672
                 37.03   -0.13938490331632
                 13.27   -0.32507749481778
                 5.025   -0.22984830758785
                 1.013     1.0953793467883
 s    1 1.00
                0.3023                   1
 p    3 1.00
                  17.7   0.062679166281506
                 3.854    0.33353656587936
                 1.046    0.74123964163973
 p    1 1.00
                0.2753                   1
 d    1 1.00
                 1.185                   1

2 0
 s    3 1.00
                 13.01   0.033498726389998
                 1.962    0.23480080117413
                0.4446     0.8136829578829
 s    1 1.00
                 0.122                   1
 p    1 1.00
                 0.727                   1

3 0
 s    3 1.00
                 13.01   0.033498726389998
                 1.962    0.23480080117413
                0.4446     0.8136829578829
 s    1 1.00
                 0.122                   1
 p    1 1.00
                 0.727                   1

4 0
 s    8 1.00
                 11720  0.00070964594651845
                  1759  0.0054672722921914
                 400.8   0.027823118610189
                 113.7    0.10474773971146
                 37.03    0.28292084635691
                 13.27    0.44849523869833
                 5.025    0.27081688521277
                 1.013    0.01545029160744
 s    8 1.00
                 11720  -0.00031444341168873
                  1759  -0.0024821376810179
                 400.8  -0.012316355381583
                 113.7  -0.050538917343672
                 37.03   -0.13938490331632
                 13.27   -0.32507749481778
                 5.025   -0.22984830758785
                 1.013     1.0953793467883
 s    1 1.00
                0.3023                   1
 p    3 1.00
                  17.7   0.062679166281506
                 3.854    0.33353656587936
                 1.046    0.74123964163973
 p    1 1.00
                0.2753                   1
 d    1 1.00
                 1.185                   1

5 0
 s    8 1.00
                  6665  0.00069158396281299
                  1000  0.0053257961529341
                   228   0.027060721042034
                 64.71    0.10165684614077
                 21.06     0.2745748236174
                 7.495    0.44829431892377
                 2.797    0.28490261071525
                0.5215   0.015194859206082
 s    8 1.00
                  6665  -0.00029326965268655
                  1000  -0.0023180354739745
                   228  -0.011499786038565
                 64.71  -0.046826727009787
                 21.06   -0.12846616875047
                 7.495   -0.30126627246289
                 2.797   -0.25563070233011
                0.5215      1.093793361012
 s    1 1.00
                0.1596                   1
 p    3 1.00
                 9.439   0.056979251590039
                 2.002    0.31320721150073
                0.5456    0.76037674173753
 p    1 1.00
                0.1517                   1
 d    1 1.00
                  0.55                   1

6 0
 s    8 1.00
                  6665  0.00069158396281299
                  1000  0.0053257961529341
                   228   0.027060721042034
                 64.71    0.10165684614077
                 21.06     0.2745748236174
                 7.495    0.44829431892377
                 2.797    0.28490261071525
                0.5215   0.015194859206082
 s    8 1.00
                  6665  -0.00029326965268655
                  1000  -0.0023180354739745
                   228  -0.011499786038565
                 64.71  -0.046826727009787
                 21.06   -0.12846616875047
                 7.495   -0.30126627246289
                 2.797   -0.25563070233011
                0.5215      1.093793361012
 s    1 1.00
                0.1596                   1
 p    3 1.00
                 9.439   0.056979251590039
                 2.002    0.31320721150073
                0.5456    0.76037674173753
 p    1 1.00
                0.1517                   1
 d    1 1.00
                  0.55                   1

7 0
 s    8 1.00
                  6665  0.00069158396281299
                  1000  0.0053257961529341
                   228   0.027060721042034
                 64.71    0.10165684614077
                 21.06     0.2745748236174
                 7.495    0.44829431892377
                 2.797    0.28490261071525
                0.5215   0.015194859206082
 s    8 1.00
                  6665  -0.00029326965268655
                  1000  -0.0023180354739745
                   228  -0.011499786038565
                 64.71  -0.046826727009787
                 21.06   -0.12846616875047
                 7.495   -0.30126627246289
                 2.797   -0.25563070233011
                0.5215      1.093793361012
 s    1 1.00
                0.1596                   1
 p    3 1.00
                 9.439   0.056979251590039
                 2.002    0.31320721150073
                0.5456    0.76037674173753
 p    1 1.00
                0.1517                   1
 d    1 1.00
                  0.55                   1

8 0
 s    3 1.00
                 13.01   0.033498726389998
                 1.962    0.23480080117413
                0.4446     0.8136829578829
 s    1 1.00
                 0.122                   1
 p    1 1.00
                 0.727                   1

9 0
 s    8 1.00
                  6665  0.00069158396281299
                  1000  0.0053257961529341
                   228   0.027060721042034
                 64.71    0.10165684614077
                 21.06     0.2745748236174
                 7.495    0.44829431892377
                 2.797    0.28490261071525
                0.5215   0.015194859206082
 s    8 1.00
                  6665  -0.00029326965268655
                  1000  -0.0023180354739745
                   228  -0.011499786038565
                 64.71  -0.046826727009787
                 21.06   -0.12846616875047
                 7.495   -0.30126627246289
                 2.797   -0.25563070233011
                0.5215      1.093793361012
 s    1 1.00
                0.1596                   1
 p    3 1.00
                 9.439   0.056979251590039
                 2.002    0.31320721150073
                0.5456    0.76037674173753
 p    1 1.00
                0.1517                   1
 d    1 1.00
                  0.55                   1

10 0
 s    3 1.00
                 13.01   0.033498726389998
                 1.962    0.23480080117413
                0.4446     0.8136829578829
 s    1 1.00
                 0.122                   1
 p    1 1.00
                 0.727                   1

11 0
 s    3 1.00
                 13.01   0.033498726389998
                 1.962    0.23480080117413
                0.4446     0.8136829578829
 s    1 1.00
                 0.122                   1
 p    1 1.00
                 0.727                   1

12 0
 s    3 1.00
                 13.01   0.033498726389998
                 1.962    0.23480080117413
                0.4446     0.8136829578829
 s    1 1.00
                 0.122                   1
 p    1 1.00
                 0.727                   1

13 0
 s    8 1.00
                  6665  0.00069158396281299
                  1000  0.0053257961529341
                   228   0.027060721042034
                 64.71    0.10165684614077
                 21.06     0.2745748236174
                 7.495    0.44829431892377
                 2.797    0.28490261071525
                0.5215   0.015194859206082
 s    8 1.00
                  6665  -0.00029326965268655
                  1000  -0.0023180354739745
                   228  -0.011499786038565
                 64.71  -0.046826727009787
                 21.06   -0.12846616875047
                 7.495   -0.30126627246289
                 2.797   -0.25563070233011
                0.5215      1.093793361012
 s    1 1.00
                0.1596                   1
 p    3 1.00
                 9.439   0.056979251590039
                 2.002    0.31320721150073
                0.5456    0.76037674173753
 p    1 1.00
                0.1517                   1
 d    1 1.00
                  0.55                   1

14 0
 s    3 1.00
                 13.01   0.033498726389998
                 1.962    0.23480080117413
                0.4446     0.8136829578829
 s    1 1.00
                 0.122                   1
 p    1 1.00
                 0.727                   1

15 0
 s    3 1.00
                 13.01   0.033498726389998
                 1.962    0.23480080117413
                0.4446     0.8136829578829
 s    1 1.00
                 0.122                   1
 p    1 1.00
                 0.727                   1

16 0
 s    8 1.00
                  6665  0.00069158396281299
                  1000  0.0053257961529341
                   228   0.027060721042034
                 64.71    0.10165684614077
                 21.06     0.2745748236174
                 7.495    0.44829431892377
                 2.797    0.28490261071525
                0.5215   0.015194859206082
 s    8 1.00
                  6665  -0.00029326965268655
                  1000  -0.0023180354739745
                   228  -0.011499786038565
                 64.71  -0.046826727009787
                 21.06   -0.12846616875047
                 7.495   -0.30126627246289
                 2.797   -0.25563070233011
                0.5215      1.093793361012
 s    1 1.00
                0.1596                   1
 p    3 1.00
                 9.439   0.056979251590039
                 2.002    0.31320721150073
                0.5456    0.76037674173753
 p    1 1.00
                0.1517                   1
 d    1 1.00
                  0.55                   1

17 0
 s    3 1.00
                 13.01   0.033498726389998
                 1.962    0.23480080117413
                0.4446     0.8136829578829
 s    1 1.00
                 0.122                   1
 p    1 1.00
                 0.727                   1

18 0
 s    3 1.00
                 13.01   0.033498726389998
                 1.962    0.23480080117413
                0.4446     0.8136829578829
 s    1 1.00
                 0.122                   1
 p    1 1.00
                 0.727                   1

19 0
 s    8 1.00
                  6665  0.00069158396281299
                  1000  0.0053257961529341
                   228   0.027060721042034
                 64.71    0.10165684614077
                 21.06     0.2745748236174
                 7.495    0.44829431892377
                 2.797    0.28490261071525
                0.5215   0.015194859206082
 s    8 1.00
                  6665  -0.00029326965268655
                  1000  -0.0023180354739745
                   228  -0.011499786038565
                 64.71  -0.046826727009787
                 21.06   -0.12846616875047
                 7.495   -0.30126627246289
                 2.797   -0.25563070233011
                0.5215      1.093793361012
 s    1 1.00
                0.1596                   1
 p    3 1.00
                 9.439   0.056979251590039
                 2.002    0.31320721150073
                0.5456    0.76037674173753
 p    1 1.00
                0.1517                   1
 d    1 1.00
                  0.55                   1

20 0
 s    3 1.00
                 13.01   0.033498726389998
                 1.962    0.23480080117413
                0.4446     0.8136829578829
 s    1 1.00
                 0.122                   1
 p    1 1.00
                 0.727                   1

21 0
 s    8 1.00
                  6665  0.00069158396281299
                  1000  0.0053257961529341
                   228   0.027060721042034
                 64.71    0.10165684614077
                 21.06     0.2745748236174
                 7.495    0.44829431892377
                 2.797    0.28490261071525
                0.5215   0.015194859206082
 s    8 1.00
                  6665  -0.00029326965268655
                  1000  -0.0023180354739745
                   228  -0.011499786038565
                 64.71  -0.046826727009787
                 21.06   -0.12846616875047
                 7.495   -0.30126627246289
                 2.797   -0.25563070233011
                0.5215      1.093793361012
 s    1 1.00
                0.1596                   1
 p    3 1.00
                 9.439   0.056979251590039
                 2.002    0.31320721150073
                0.5456    0.76037674173753
 p    1 1.00
                0.1517                   1
 d    1 1.00
                  0.55                   1

22 0
 s    3 1.00
                 13.01   0.033498726389998
                 1.962    0.23480080117413
                0.4446     0.8136829578829
 s    1 1.00
                 0.122                   1
 p    1 1.00
                 0.727                   1

23 0
 s    3 1.00
                 13.01   0.033498726389998
                 1.962    0.23480080117413
                0.4446     0.8136829578829
 s    1 1.00
                 0.122                   1
 p    1 1.00
                 0.727                   1

24 0
 s    3 1.00
                 13.01   0.033498726389998
                 1.962    0.23480080117413
                0.4446     0.8136829578829
 s    1 1.00
                 0.122                   1
 p    1 1.00
                 0.727                   1

25 0
 s    8 1.00
                  6665  0.00069158396281299
                  1000  0.0053257961529341
                   228   0.027060721042034
                 64.71    0.10165684614077
                 21.06     0.2745748236174
                 7.495    0.44829431892377
                 2.797    0.28490261071525
                0.5215   0.015194859206082
 s    8 1.00
                  6665  -0.00029326965268655
                  1000  -0.0023180354739745
                   228  -0.011499786038565
                 64.71  -0.046826727009787
                 21.06   -0.12846616875047
                 7.495   -0.30126627246289
                 2.797   -0.25563070233011
                0.5215      1.093793361012
 s    1 1.00
                0.1596                   1
 p    3 1.00
                 9.439   0.056979251590039
                 2.002    0.31320721150073
                0.5456    0.76037674173753
 p    1 1.00
                0.1517                   1
 d    1 1.00
                  0.55                   1

26 0
 s    3 1.00
                 13.01   0.033498726389998
                 1.962    0.23480080117413
                0.4446     0.8136829578829
 s    1 1.00
                 0.122                   1
 p    1 1.00
                 0.727                   1

27 0
 s    3 1.00
                 13.01   0.033498726389998
                 1.962    0.23480080117413
                0.4446     0.8136829578829
 s    1 1.00
                 0.122                   1
 p    1 1.00
                 0.727                   1

28 0
 s    8 1.00
                  6665  0.00069158396281299
                  1000  0.0053257961529341
                   228   0.027060721042034
                 64.71    0.10165684614077
                 21.06     0.2745748236174
                 7.495    0.44829431892377
                 2.797    0.28490261071525
                0.5215   0.015194859206082
 s    8 1.00
                  6665  -0.00029326965268655
                  1000  -0.0023180354739745
                   228  -0.011499786038565
                 64.71  -0.046826727009787
                 21.06   -0.12846616875047
                 7.495   -0.30126627246289
                 2.797   -0.25563070233011
                0.5215      1.093793361012
 s    1 1.00
                0.1596                   1
 p    3 1.00
                 9.439   0.056979251590039
                 2.002    0.31320721150073
                0.5456    0.76037674173753
 p    1 1.00
                0.1517                   1
 d    1 1.00
                  0.55                   1

29 0
 s    3 1.00
                 13.01   0.033498726389998
                 1.962    0.23480080117413
                0.4446     0.8136829578829
 s    1 1.00
                 0.122                   1
 p    1 1.00
                 0.727                   1

30 0
 s    3 1.00
                 13.01   0.033498726389998
                 1.962    0.23480080117413
                0.4446     0.8136829578829
 s    1 1.00
                 0.122                   1
 p    1 1.00
                 0.727                   1

31 0
 s    8 1.00
                  6665  0.00069158396281299
                  1000  0.0053257961529341
                   228   0.027060721042034
                 64.71    0.10165684614077
                 21.06     0.2745748236174
                 7.495    0.44829431892377
                 2.797    0.28490261071525
                0.5215   0.015194859206082
 s    8 1.00
                  6665  -0.00029326965268655
                  1000  -0.0023180354739745
                   228  -0.011499786038565
                 64.71  -0.046826727009787
                 21.06   -0.12846616875047
                 7.495   -0.30126627246289
                 2.797   -0.25563070233011
                0.5215      1.093793361012
 s    1 1.00
                0.1596                   1
 p    3 1.00
                 9.439   0.056979251590039
                 2.002    0.31320721150073
                0.5456    0.76037674173753
 p    1 1.00
                0.1517                   1
 d    1 1.00
                  0.55                   1

32 0
 s    3 1.00
                 13.01   0.033498726389998
                 1.962    0.23480080117413
                0.4446     0.8136829578829
 s    1 1.00
                 0.122                   1
 p    1 1.00
                 0.727                   1

33 0
 s    3 1.00
                 13.01   0.033498726389998
                 1.962    0.23480080117413
                0.4446     0.8136829578829
 s    1 1.00
                 0.122                   1
 p    1 1.00
                 0.727                   1

34 0
 s    3 1.00
                 13.01   0.033498726389998
                 1.962    0.23480080117413
                0.4446     0.8136829578829
 s    1 1.00
                 0.122                   1
 p    1 1.00
                 0.727                   1

35 0
 s    3 1.00
                 13.01   0.033498726389998
                 1.962    0.23480080117413
                0.4446     0.8136829578829
 s    1 1.00
                 0.122                   1
 p    1 1.00
                 0.727                   1

36 0
 s    3 1.00
                 13.01   0.033498726389998
                 1.962    0.23480080117413
                0.4446     0.8136829578829
 s    1 1.00
                 0.122                   1
 p    1 1.00
                 0.727                   1

37 0
 s    3 1.00
                 13.01   0.033498726389998
                 1.962    0.23480080117413
                0.4446     0.8136829578829
 s    1 1.00
                 0.122                   1
 p    1 1.00
                 0.727                   1

[5d]
[7f]
[9g]

[MO]
 Sym= A
 Ene=               0
 Spin= Alpha
 Occup=    1.00000
   1    7.9938651732993e-05
   2    2.8266235888458e-05
   3    -0.00010086700688254
   4    9.3374425561568e-08
   5    -3.8822739696963e-06
   6    -1.5959460154407e-06
   7    -5.826549999267e-07
   8    2.0250241646228e-05
   9    7.1037041799698e-05
  10    -1.2368586397372e-05
  11    -1.1507466125257e-08
  12    8.0837982886449e-07
  13    -4.9919284251382e-07
  14    -2.6731418639544e-08
  15    1.3159243525718e-05
  16    0.00014448314681625
  17    3.8265768630859e-08
  18    -1.2599823421443e-06
  19    3.5553032802191e-05
  20    6.2133070744784e-06
  21    -5.5284965398709e-05
  22    -1.6480518099082e-07
  23    5.6348399064324e-06
  24    -2.2753736073501e-06
  25      -1.0013618156202
  26    -0.0019405740853828
  27    0.0068181328467111
  28    2.457954773605e-06
  29    -9.0515766690851e-06
  30    0.0016314366080838
  31    6.8927897844059e-06
  32    -3.8146293438449e-06
  33    -0.001858498589308
  34    -0.00012686228636613
  35    3.4186838550614e-06
  36    -1.6325250630637e-06
  37    -6.7451011403614e-05
  38    0.00017560356816436
  39    -0.00029056605994528
  40    -0.00038380351910929
  41    -0.0014594175147772
  42    -1.4739045034842e-05
  43    1.0338924283815e-05
  44    -1.1239405061945e-05
  45    -0.00012245979458203
  46    8.7005741554962e-05
  47    -0.0035405814958826
  48    0.00057097860965089
  49    1.7862915888944e-05
  50    -8.5731938210684e-06
  51    -3.5754905766476e-05
  52    0.00013554409576949
  53    -0.00037240310186469
  54    -6.9741712582222e-05
  55     -0.00146427794165
  56    -0.00020300242374997
  57    0.0001751690927379
  58    -0.00017503152357248
  59    0.00035766475257992
  60    -0.00036943436531511
  61    0.00084689973781365
  62    0.0001182003447281
  63    -0.0001665671870807
  64    0.00015059537714349
  65    -5.5276379953974e-05
  66    0.00013374854446884
  67    -0.00042818489273704
  68    -0.00020979528202485
  69    -0.00076017655768114
  70     0.000431484300153
  71    -0.00033583429914767
  72    -0.0003477088717096
  73    -0.0008283836739738
  74    0.00063512192875908
  75    0.00041771355067495
  76    0.00016484440809846
  77    0.00014452694203122
  78    -8.3776127313561e-05
  79    -8.6510958410436e-05
  80    0.0001792734515156
  81    -0.00030196738587381
  82    -0.00030761655709199
  83    -4.5329908329859e-05
  84    3.6401717389309e-05
  85    -2.9263833219288e-05
  86    -4.1083022508216e-05
  87    -9.9004423005936e-05
  88    0.00056447667409762
  89    8.0994133221267e-06
  90    -8.9311188102494e-05
  91    8.1928321153155e-06
  92    -0.00024502471734249
  93    -0.00069029416254558
  94    1.3907370906636e-05
  95    -2.4860583222509e-05
  96    -1.8413836235791e-05
  97    -6.2704049042405e-08
  98    2.8875111070577e-05
  99    4.5382136235276e-05
 100    -4.2144114002498e-05
 101    0.00015774142940226
 102    -1.8090495317075e-05
 103    5.9131783829298e-06
 104    -8.7550186888811e-05
 105    0.00023111647436152
 106    0.00036679713627819
 107    7.485789386578e-05
 108    -1.1565753177841e-05
 109    -7.5677185100161e-05
 110    -0.00011216560039467
 111    0.00010414655482598
 112    5.5809394166479e-05
 113    -1.9477632827874e-05
 114    -8.4190213895433e-05
 115    -0.00032968930621077
 116    -4.1789087152221e-05
 117    -0.0009708471393713
 118    -0.00015804239246414
 119    0.00010012937226315
 120    0.0007901231872761
 121    -0.00038786035455404
 122    2.2040686571782e-05
 123    0.00054099906337167
 124    1.716143756999e-05
 125    2.2827847998692e-05
 126    -6.7348898070796e-06
 127    -6.2918614615762e-06
 128    5.2761787360548e-07
 129    -7.3260682887403e-05
 130    0.00029971929211917
 131    -4.5099951336837e-06
 132    -1.2081007599742e-06
 133    -2.187967292569e-05
 134    -0.00010934637534463
 135    6.2097081526705e-05
 136    7.942116715378e-06
 137    2.4131240452978e-05
 138    2.192752192839e-05
 139    1.0991804523878e-05
 140    4.9808922143159e-05
 141    -0.00026961967274911
 142    -7.8124306456386e-06
 143    4.4455386608533e-05
 144    3.5971352976967e-06
 145     0.000234253536412
 146    -2.815558199579e-05
 147    -6.0878929209512e-05
 148    4.3429909687383e-06
 149    -7.4908966748444e-06
 150    -3.8568347415038e-07
 151    -9.4174325516517e-06
 152    1.0046424483763e-05
 153    0.00059067796657949
 154    0.00034668713498137
 155    8.4790852577466e-06
 156    -4.9465166047628e-05
 157    -3.1718327303523e-05
 158    0.00029231098104938
 159    0.00021355600209415
 160    6.6375741185297e-05
 161    2.7421486343343e-05
 162    4.4431032946933e-06
 163    8.5994069753972e-05
 164    -5.5515484098145e-06
 165    0.00020517652317865
 166    -0.00018685060283111
 167    0.00013507246389095
 168    -0.00024575885621917
 169    -0.00030924700975018
 170    0.00027704697215282
 171    -2.217084551363e-06
 172    2.9481142585675e-05
 173    -6.0831160231095e-06
 174    1.7496013846863e-05
 175    -1.7277252326577e-05
 176    5.2762125390347e-05
 177    -1.1016783331713e-06
 178    -0.00010481856388807
 179    1.5003086488999e-06
 180    -7.9648743337521e-07
 181    5.4563091903356e-06
 182    -2.2027037004839e-05
 183    -1.0335513924079e-05
 184    8.9079065395251e-05
 185    -8.6767918415594e-06
 186    -1.4121095845815e-05
 187    2.2077066046714e-05
 188    -0.0001233314469488
 189    9.1319797177525e-05
 190    9.2612987338788e-05
 191    -3.8909109791905e-07
 192    -3.8978241243879e-06
 193    7.7756889733875e-06
 194    3.7026007155751e-06
 195    6.1416620955835e-06
 196    -1.4515782217542e-05
 197    5.1137075233742e-06
 198    -6.5846502545606e-06
 199    -1.9942329041189e-06
 200    2.7234113952639e-06
 201    0.00020090781434897
 202    0.00012547799472529
 203    1.5323704740379e-05
 204    -1.0917210660843e-08
 205    -7.689077591594e-06
 206    0.00012758112185808
 207    1.1876840067849e-05
 208    7.2846851690787e-06
 209    -1.0288894784381e-05
 210    -1.7574335228705e-05
 211    5.2465831466254e-06
 212    1.6215492120876e-05
 213    -0.00030170370054846
 214    -1.1746123676346e-05
 215    -2.9205170838848e-06
 216    -3.5167710827809e-06
 217    -0.00020927482455396
 218    5.1434485147426e-05
 219    7.5576588380171e-05
 220    1.3370453270729e-05
 221    6.3560387251643e-06
 222    -2.4480180950837e-06
 223    -1.0516415901252e-05
 224    6.4832267758572e-06
 225    -1.960119740625e-05
 226    -5.7467041108124e-05
 227    1.1315358122433e-05
 228    1.0214259666855e-06
 229    1.3112871527263e-06
 230    -1.6012206223314e-05
 231    -5.9899508250857e-05
 232    3.5135352771699e-06
 233    -6.4633220883069e-06
 234    -1.1019818721507e-05
 235    -3.8736342439785e-06
 236    -2.1522857587139e-07
 237    6.6917531475001e-05
 238    2.0166394364827e-06
 239    -3.3000023184111e-06
 240    -4.0096537892812e-06
 241    -2.7808547755705e-05
 242    5.8892230292386e-05
 243    -2.6754855298591e-05
 244    -1.1899951888563e-06
 245    -2.474207528293e-06
 246    1.7064811710392e-06
 247    -1.727978627547e-08
 248    3.5877535334922e-07
 249    1.3859471269525e-05
 250    3.9669883447245e-06
 251    6.3107907046265e-06
 252    1.2281656208662e-06
 253    1.786812554285e-06
 254    2.0918072125127e-05
 255    -4.494515783172e-05
 256    -4.7811513911918e-08
 257    -5.6734311557585e-06
 258    1.519028142388e-06
 259    4.0046643011787e-06
 260    4.7986847897086e-06
 261    -0.00010540225870071
 262    -1.7809522362946e-05