[Molden Format]
made by pyscf v[2.0.1]
[Atoms] (AU)
O   1   8     0.00000000000000     0.00000000000000    10.94175058546756
H   2   1     0.00000000000000     0.00000000000000     9.11834876356659
H   3   1    -0.05031916615174     1.78353065140343    11.31762228193423
O   4   8     0.00000000000000     0.00000000000000     2.31533471513237
C   5   6     0.00000000000000     0.00000000000000     0.00000000000000
C   6   6     2.01118073026938    -1.40227222164369    -1.50774939176400
C   7   6    -2.01249334291722     1.41331050329955    -1.50315905028694
H   8   1     3.32037363730244    -2.26721897153159    -0.13599698591495
C   9   6     3.45899267434009     0.28739631745591    -3.37437943254505
H   10   1     1.07662969841332    -2.94725144642667    -2.56541439481080
H   11   1    -2.67503415753480     0.18421555839588    -3.06194479365997
H   12   1    -1.07974048864772     3.03851734677796    -2.43674295017013
C   13   6    -4.21607110578555     2.32938802552922     0.11994162256091
H   14   1     4.24440173074564     1.93368664142019    -2.34976285512790
H   15   1     2.15020713235517     1.04714335134846    -4.81494497423699
C   16   6     5.60746363007797    -1.12419643481196    -4.70268606082550
H   17   1    -3.46838323670267     3.50951302338067     1.66946842715333
H   18   1    -5.11873485366228     0.68575958301209     1.04047743976495
C   19   6    -6.18314754751344     3.80909592987882    -1.39656589068747
H   20   1     6.93011263717176    -1.87550812453645    -3.26656317360070
C   21   6     7.06356622236532     0.52877932406334    -6.57829775293605
H   22   1     4.82318879258361    -2.78573437948532    -5.70504560381835
H   23   1    -6.91582688743803     2.61304780074712    -2.95074552451969
H   24   1    -5.26532430573853     5.45420349051338    -2.31005832200284
C   25   6    -8.39941882261433     4.73263980500213     0.21800571437956
H   26   1     7.83338371486801     2.19084139882824    -5.57093109900697
H   27   1     5.73544244039420     1.27376866537418    -8.01071492370229
C   28   6     9.21124858443101    -0.89699110072176    -7.88926949186242
H   29   1    -7.66272760055236     5.92277078003992     1.77035591474408
H   30   1    -9.31497248082589     3.08753015622020     1.12614408368786
C   31   6   -10.35481709231879     6.21833079391143    -1.30905206253246
H   32   1    10.58815905329501    -1.61074586756696    -6.49512691622620
H   33   1    10.23506248045667     0.32468009384095    -9.23072870921204
H   34   1     8.47665842847139    -2.53598436989925    -8.94921964622535
H   35   1    -9.48948872868064     7.90013588951020    -2.18823918416067
H   36   1   -11.93332513000955     6.86460487874102    -0.11255798845995
H   37   1   -11.15126291841033     5.04495968327630    -2.83849898862534
[GTO]
1 0
 s    8 1.00
                 11720  0.00070964594651845
                  1759  0.0054672722921914
                 400.8   0.027823118610189
                 113.7    0.10474773971146
                 37.03    0.28292084635691
                 13.27    0.44849523869833
                 5.025    0.27081688521277
                 1.013    0.01545029160744
 s    8 1.00
                 11720  -0.00031444341168873
                  1759  -0.0024821376810179
                 400.8  -0.012316355381583
                 113.7  -0.050538917343672
                 37.03   -0.13938490331632
                 13.27   -0.32507749481778
                 5.025   -0.22984830758785
                 1.013     1.0953793467883
 s    1 1.00
                0.3023                   1
 p    3 1.00
                  17.7   0.062679166281506
                 3.854    0.33353656587936
                 1.046    0.74123964163973
 p    1 1.00
                0.2753                   1
 d    1 1.00
                 1.185                   1

2 0
 s    3 1.00
                 13.01   0.033498726389998
                 1.962    0.23480080117413
                0.4446     0.8136829578829
 s    1 1.00
                 0.122                   1
 p    1 1.00
                 0.727                   1

3 0
 s    3 1.00
                 13.01   0.033498726389998
                 1.962    0.23480080117413
                0.4446     0.8136829578829
 s    1 1.00
                 0.122                   1
 p    1 1.00
                 0.727                   1

4 0
 s    8 1.00
                 11720  0.00070964594651845
                  1759  0.0054672722921914
                 400.8   0.027823118610189
                 113.7    0.10474773971146
                 37.03    0.28292084635691
                 13.27    0.44849523869833
                 5.025    0.27081688521277
                 1.013    0.01545029160744
 s    8 1.00
                 11720  -0.00031444341168873
                  1759  -0.0024821376810179
                 400.8  -0.012316355381583
                 113.7  -0.050538917343672
                 37.03   -0.13938490331632
                 13.27   -0.32507749481778
                 5.025   -0.22984830758785
                 1.013     1.0953793467883
 s    1 1.00
                0.3023                   1
 p    3 1.00
                  17.7   0.062679166281506
                 3.854    0.33353656587936
                 1.046    0.74123964163973
 p    1 1.00
                0.2753                   1
 d    1 1.00
                 1.185                   1

5 0
 s    8 1.00
                  6665  0.00069158396281299
                  1000  0.0053257961529341
                   228   0.027060721042034
                 64.71    0.10165684614077
                 21.06     0.2745748236174
                 7.495    0.44829431892377
                 2.797    0.28490261071525
                0.5215   0.015194859206082
 s    8 1.00
                  6665  -0.00029326965268655
                  1000  -0.0023180354739745
                   228  -0.011499786038565
                 64.71  -0.046826727009787
                 21.06   -0.12846616875047
                 7.495   -0.30126627246289
                 2.797   -0.25563070233011
                0.5215      1.093793361012
 s    1 1.00
                0.1596                   1
 p    3 1.00
                 9.439   0.056979251590039
                 2.002    0.31320721150073
                0.5456    0.76037674173753
 p    1 1.00
                0.1517                   1
 d    1 1.00
                  0.55                   1

6 0
 s    8 1.00
                  6665  0.00069158396281299
                  1000  0.0053257961529341
                   228   0.027060721042034
                 64.71    0.10165684614077
                 21.06     0.2745748236174
                 7.495    0.44829431892377
                 2.797    0.28490261071525
                0.5215   0.015194859206082
 s    8 1.00
                  6665  -0.00029326965268655
                  1000  -0.0023180354739745
                   228  -0.011499786038565
                 64.71  -0.046826727009787
                 21.06   -0.12846616875047
                 7.495   -0.30126627246289
                 2.797   -0.25563070233011
                0.5215      1.093793361012
 s    1 1.00
                0.1596                   1
 p    3 1.00
                 9.439   0.056979251590039
                 2.002    0.31320721150073
                0.5456    0.76037674173753
 p    1 1.00
                0.1517                   1
 d    1 1.00
                  0.55                   1

7 0
 s    8 1.00
                  6665  0.00069158396281299
                  1000  0.0053257961529341
                   228   0.027060721042034
                 64.71    0.10165684614077
                 21.06     0.2745748236174
                 7.495    0.44829431892377
                 2.797    0.28490261071525
                0.5215   0.015194859206082
 s    8 1.00
                  6665  -0.00029326965268655
                  1000  -0.0023180354739745
                   228  -0.011499786038565
                 64.71  -0.046826727009787
                 21.06   -0.12846616875047
                 7.495   -0.30126627246289
                 2.797   -0.25563070233011
                0.5215      1.093793361012
 s    1 1.00
                0.1596                   1
 p    3 1.00
                 9.439   0.056979251590039
                 2.002    0.31320721150073
                0.5456    0.76037674173753
 p    1 1.00
                0.1517                   1
 d    1 1.00
                  0.55                   1

8 0
 s    3 1.00
                 13.01   0.033498726389998
                 1.962    0.23480080117413
                0.4446     0.8136829578829
 s    1 1.00
                 0.122                   1
 p    1 1.00
                 0.727                   1

9 0
 s    8 1.00
                  6665  0.00069158396281299
                  1000  0.0053257961529341
                   228   0.027060721042034
                 64.71    0.10165684614077
                 21.06     0.2745748236174
                 7.495    0.44829431892377
                 2.797    0.28490261071525
                0.5215   0.015194859206082
 s    8 1.00
                  6665  -0.00029326965268655
                  1000  -0.0023180354739745
                   228  -0.011499786038565
                 64.71  -0.046826727009787
                 21.06   -0.12846616875047
                 7.495   -0.30126627246289
                 2.797   -0.25563070233011
                0.5215      1.093793361012
 s    1 1.00
                0.1596                   1
 p    3 1.00
                 9.439   0.056979251590039
                 2.002    0.31320721150073
                0.5456    0.76037674173753
 p    1 1.00
                0.1517                   1
 d    1 1.00
                  0.55                   1

10 0
 s    3 1.00
                 13.01   0.033498726389998
                 1.962    0.23480080117413
                0.4446     0.8136829578829
 s    1 1.00
                 0.122                   1
 p    1 1.00
                 0.727                   1

11 0
 s    3 1.00
                 13.01   0.033498726389998
                 1.962    0.23480080117413
                0.4446     0.8136829578829
 s    1 1.00
                 0.122                   1
 p    1 1.00
                 0.727                   1

12 0
 s    3 1.00
                 13.01   0.033498726389998
                 1.962    0.23480080117413
                0.4446     0.8136829578829
 s    1 1.00
                 0.122                   1
 p    1 1.00
                 0.727                   1

13 0
 s    8 1.00
                  6665  0.00069158396281299
                  1000  0.0053257961529341
                   228   0.027060721042034
                 64.71    0.10165684614077
                 21.06     0.2745748236174
                 7.495    0.44829431892377
                 2.797    0.28490261071525
                0.5215   0.015194859206082
 s    8 1.00
                  6665  -0.00029326965268655
                  1000  -0.0023180354739745
                   228  -0.011499786038565
                 64.71  -0.046826727009787
                 21.06   -0.12846616875047
                 7.495   -0.30126627246289
                 2.797   -0.25563070233011
                0.5215      1.093793361012
 s    1 1.00
                0.1596                   1
 p    3 1.00
                 9.439   0.056979251590039
                 2.002    0.31320721150073
                0.5456    0.76037674173753
 p    1 1.00
                0.1517                   1
 d    1 1.00
                  0.55                   1

14 0
 s    3 1.00
                 13.01   0.033498726389998
                 1.962    0.23480080117413
                0.4446     0.8136829578829
 s    1 1.00
                 0.122                   1
 p    1 1.00
                 0.727                   1

15 0
 s    3 1.00
                 13.01   0.033498726389998
                 1.962    0.23480080117413
                0.4446     0.8136829578829
 s    1 1.00
                 0.122                   1
 p    1 1.00
                 0.727                   1

16 0
 s    8 1.00
                  6665  0.00069158396281299
                  1000  0.0053257961529341
                   228   0.027060721042034
                 64.71    0.10165684614077
                 21.06     0.2745748236174
                 7.495    0.44829431892377
                 2.797    0.28490261071525
                0.5215   0.015194859206082
 s    8 1.00
                  6665  -0.00029326965268655
                  1000  -0.0023180354739745
                   228  -0.011499786038565
                 64.71  -0.046826727009787
                 21.06   -0.12846616875047
                 7.495   -0.30126627246289
                 2.797   -0.25563070233011
                0.5215      1.093793361012
 s    1 1.00
                0.1596                   1
 p    3 1.00
                 9.439   0.056979251590039
                 2.002    0.31320721150073
                0.5456    0.76037674173753
 p    1 1.00
                0.1517                   1
 d    1 1.00
                  0.55                   1

17 0
 s    3 1.00
                 13.01   0.033498726389998
                 1.962    0.23480080117413
                0.4446     0.8136829578829
 s    1 1.00
                 0.122                   1
 p    1 1.00
                 0.727                   1

18 0
 s    3 1.00
                 13.01   0.033498726389998
                 1.962    0.23480080117413
                0.4446     0.8136829578829
 s    1 1.00
                 0.122                   1
 p    1 1.00
                 0.727                   1

19 0
 s    8 1.00
                  6665  0.00069158396281299
                  1000  0.0053257961529341
                   228   0.027060721042034
                 64.71    0.10165684614077
                 21.06     0.2745748236174
                 7.495    0.44829431892377
                 2.797    0.28490261071525
                0.5215   0.015194859206082
 s    8 1.00
                  6665  -0.00029326965268655
                  1000  -0.0023180354739745
                   228  -0.011499786038565
                 64.71  -0.046826727009787
                 21.06   -0.12846616875047
                 7.495   -0.30126627246289
                 2.797   -0.25563070233011
                0.5215      1.093793361012
 s    1 1.00
                0.1596                   1
 p    3 1.00
                 9.439   0.056979251590039
                 2.002    0.31320721150073
                0.5456    0.76037674173753
 p    1 1.00
                0.1517                   1
 d    1 1.00
                  0.55                   1

20 0
 s    3 1.00
                 13.01   0.033498726389998
                 1.962    0.23480080117413
                0.4446     0.8136829578829
 s    1 1.00
                 0.122                   1
 p    1 1.00
                 0.727                   1

21 0
 s    8 1.00
                  6665  0.00069158396281299
                  1000  0.0053257961529341
                   228   0.027060721042034
                 64.71    0.10165684614077
                 21.06     0.2745748236174
                 7.495    0.44829431892377
                 2.797    0.28490261071525
                0.5215   0.015194859206082
 s    8 1.00
                  6665  -0.00029326965268655
                  1000  -0.0023180354739745
                   228  -0.011499786038565
                 64.71  -0.046826727009787
                 21.06   -0.12846616875047
                 7.495   -0.30126627246289
                 2.797   -0.25563070233011
                0.5215      1.093793361012
 s    1 1.00
                0.1596                   1
 p    3 1.00
                 9.439   0.056979251590039
                 2.002    0.31320721150073
                0.5456    0.76037674173753
 p    1 1.00
                0.1517                   1
 d    1 1.00
                  0.55                   1

22 0
 s    3 1.00
                 13.01   0.033498726389998
                 1.962    0.23480080117413
                0.4446     0.8136829578829
 s    1 1.00
                 0.122                   1
 p    1 1.00
                 0.727                   1

23 0
 s    3 1.00
                 13.01   0.033498726389998
                 1.962    0.23480080117413
                0.4446     0.8136829578829
 s    1 1.00
                 0.122                   1
 p    1 1.00
                 0.727                   1

24 0
 s    3 1.00
                 13.01   0.033498726389998
                 1.962    0.23480080117413
                0.4446     0.8136829578829
 s    1 1.00
                 0.122                   1
 p    1 1.00
                 0.727                   1

25 0
 s    8 1.00
                  6665  0.00069158396281299
                  1000  0.0053257961529341
                   228   0.027060721042034
                 64.71    0.10165684614077
                 21.06     0.2745748236174
                 7.495    0.44829431892377
                 2.797    0.28490261071525
                0.5215   0.015194859206082
 s    8 1.00
                  6665  -0.00029326965268655
                  1000  -0.0023180354739745
                   228  -0.011499786038565
                 64.71  -0.046826727009787
                 21.06   -0.12846616875047
                 7.495   -0.30126627246289
                 2.797   -0.25563070233011
                0.5215      1.093793361012
 s    1 1.00
                0.1596                   1
 p    3 1.00
                 9.439   0.056979251590039
                 2.002    0.31320721150073
                0.5456    0.76037674173753
 p    1 1.00
                0.1517                   1
 d    1 1.00
                  0.55                   1

26 0
 s    3 1.00
                 13.01   0.033498726389998
                 1.962    0.23480080117413
                0.4446     0.8136829578829
 s    1 1.00
                 0.122                   1
 p    1 1.00
                 0.727                   1

27 0
 s    3 1.00
                 13.01   0.033498726389998
                 1.962    0.23480080117413
                0.4446     0.8136829578829
 s    1 1.00
                 0.122                   1
 p    1 1.00
                 0.727                   1

28 0
 s    8 1.00
                  6665  0.00069158396281299
                  1000  0.0053257961529341
                   228   0.027060721042034
                 64.71    0.10165684614077
                 21.06     0.2745748236174
                 7.495    0.44829431892377
                 2.797    0.28490261071525
                0.5215   0.015194859206082
 s    8 1.00
                  6665  -0.00029326965268655
                  1000  -0.0023180354739745
                   228  -0.011499786038565
                 64.71  -0.046826727009787
                 21.06   -0.12846616875047
                 7.495   -0.30126627246289
                 2.797   -0.25563070233011
                0.5215      1.093793361012
 s    1 1.00
                0.1596                   1
 p    3 1.00
                 9.439   0.056979251590039
                 2.002    0.31320721150073
                0.5456    0.76037674173753
 p    1 1.00
                0.1517                   1
 d    1 1.00
                  0.55                   1

29 0
 s    3 1.00
                 13.01   0.033498726389998
                 1.962    0.23480080117413
                0.4446     0.8136829578829
 s    1 1.00
                 0.122                   1
 p    1 1.00
                 0.727                   1

30 0
 s    3 1.00
                 13.01   0.033498726389998
                 1.962    0.23480080117413
                0.4446     0.8136829578829
 s    1 1.00
                 0.122                   1
 p    1 1.00
                 0.727                   1

31 0
 s    8 1.00
                  6665  0.00069158396281299
                  1000  0.0053257961529341
                   228   0.027060721042034
                 64.71    0.10165684614077
                 21.06     0.2745748236174
                 7.495    0.44829431892377
                 2.797    0.28490261071525
                0.5215   0.015194859206082
 s    8 1.00
                  6665  -0.00029326965268655
                  1000  -0.0023180354739745
                   228  -0.011499786038565
                 64.71  -0.046826727009787
                 21.06   -0.12846616875047
                 7.495   -0.30126627246289
                 2.797   -0.25563070233011
                0.5215      1.093793361012
 s    1 1.00
                0.1596                   1
 p    3 1.00
                 9.439   0.056979251590039
                 2.002    0.31320721150073
                0.5456    0.76037674173753
 p    1 1.00
                0.1517                   1
 d    1 1.00
                  0.55                   1

32 0
 s    3 1.00
                 13.01   0.033498726389998
                 1.962    0.23480080117413
                0.4446     0.8136829578829
 s    1 1.00
                 0.122                   1
 p    1 1.00
                 0.727                   1

33 0
 s    3 1.00
                 13.01   0.033498726389998
                 1.962    0.23480080117413
                0.4446     0.8136829578829
 s    1 1.00
                 0.122                   1
 p    1 1.00
                 0.727                   1

34 0
 s    3 1.00
                 13.01   0.033498726389998
                 1.962    0.23480080117413
                0.4446     0.8136829578829
 s    1 1.00
                 0.122                   1
 p    1 1.00
                 0.727                   1

35 0
 s    3 1.00
                 13.01   0.033498726389998
                 1.962    0.23480080117413
                0.4446     0.8136829578829
 s    1 1.00
                 0.122                   1
 p    1 1.00
                 0.727                   1

36 0
 s    3 1.00
                 13.01   0.033498726389998
                 1.962    0.23480080117413
                0.4446     0.8136829578829
 s    1 1.00
                 0.122                   1
 p    1 1.00
                 0.727                   1

37 0
 s    3 1.00
                 13.01   0.033498726389998
                 1.962    0.23480080117413
                0.4446     0.8136829578829
 s    1 1.00
                 0.122                   1
 p    1 1.00
                 0.727                   1

[5d]
[7f]
[9g]

[MO]
 Sym= A
 Ene=               0
 Spin= Alpha
 Occup=    1.00000
   1    -4.4188651170125e-05
   2    -1.6035700175288e-05
   3    6.2450104765078e-05
   4    -6.1998015439786e-08
   5    2.3456130225745e-06
   6    -2.6647921165833e-07
   7    4.0077071829445e-07
   8    -1.3945804727471e-05
   9    -4.6416959202787e-05
  10    8.7408895510616e-06
  11    1.4836774160516e-08
  12    -6.3657515077057e-07
  13    5.5951190207114e-07
  14    3.1181977849156e-08
  15    -7.6225519717802e-06
  16    -9.1571639707925e-05
  17    -2.0918068656929e-08
  18    8.6115055272438e-07
  19    -2.7400576823149e-05
  20    -3.5335721657583e-06
  21    3.7153660098474e-05
  22    1.283920293457e-07
  23    -4.5129885965838e-06
  24    1.3646345088471e-06
  25       1.0013577490422
  26    0.0019320212405991
  27    -0.0067824948255029
  28    -2.3216752564444e-06
  29    8.4178131031955e-06
  30    -0.0016357135696301
  31    -6.9597204556046e-06
  32    4.1091993677871e-06
  33    0.0018347330310008
  34    0.00013098071648402
  35    -3.4646620380861e-06
  36    1.5935527843913e-06
  37    6.7653170348224e-05
  38    -0.0001761714614035
  39    0.00028757745914379
  40    0.00037713723658372
  41    0.0014336660797885
  42    1.4494624496583e-05
  43    -1.031774178479e-05
  44    4.0280692847131e-06
  45    0.00012307778693468
  46    -8.6728983226573e-05
  47    0.0035153000843187
  48    -0.00057765188051762
  49    -1.7943550733569e-05
  50    8.5579813472852e-06
  51    3.544977532964e-05
  52    -0.00013479394511702
  53    0.00037246921601529
  54    6.9627350731707e-05
  55    0.0014597658643742
  56    0.00020329926301471
  57    -0.00017542467266002
  58    0.00017533277722899
  59    -0.00035705858521955
  60    0.0003681212735979
  61    -0.00083730860801804
  62    -0.00011862330609129
  63    0.00016673260147179
  64    -0.00015054778196354
  65    5.5502767971069e-05
  66    -0.00013453053663247
  67    0.00042783966885484
  68    0.00020901637309091
  69    0.00075879508780846
  70    -0.00043120923900455
  71    0.00033543152364301
  72    0.00034783370179159
  73    0.00082515535001013
  74    -0.00063345845868944
  75    -0.00041271928141083
  76    -0.00016530822715837
  77    -0.00014444848521567
  78    8.3775291456816e-05
  79    8.6737946284744e-05
  80    -0.00017987673219423
  81    0.00030169775319865
  82    0.00030674762195779
  83    4.5098937608326e-05
  84    -3.6213874293885e-05
  85    2.9552453190196e-05
  86    4.0985032026943e-05
  87    9.883961352208e-05
  88    -0.00056055241591045
  89    -8.1838100077194e-06
  90    8.951590347517e-05
  91    -8.3894575414918e-06
  92    0.00024399480673204
  93    0.00068545619155428
  94    -1.5505352407134e-05
  95    2.4719181443512e-05
  96    1.8361630848825e-05
  97    -1.512732209891e-07
  98    -2.9129934226997e-05
  99    -4.4876011785201e-05
 100    4.2595796488047e-05
 101    -0.000156606690715
 102    1.8667111032681e-05
 103    -5.7700439271505e-06
 104    8.702407119173e-05
 105    -0.00023094576809448
 106    -0.00036581741417368
 107    -7.5010902043384e-05
 108    1.2192539024175e-05
 109    7.5374423061742e-05
 110    0.00011186781363992
 111    -0.00010255895737539
 112    -5.6096230273133e-05
 113    1.9149953232357e-05
 114    8.3864039142097e-05
 115    0.00032956843725973
 116    4.1885797464803e-05
 117    0.00096823950548128
 118    0.00015861261274045
 119    -0.00010033206373016
 120    -0.00078856432732638
 121    0.00039255671821751
 122    -2.4324466566901e-05
 123    -0.00053486087816197
 124    -1.7171783073705e-05
 125    -2.2530807266921e-05
 126    7.141096302902e-06
 127    6.1937926615478e-06
 128    -4.9526918637214e-07
 129    7.3304914114166e-05
 130    -0.00029693300443412
 131    4.3957158461093e-06
 132    1.1932455783864e-06
 133    2.1774331797955e-05
 134    0.00010969919299619
 135    -6.2264000267564e-05
 136    -7.8717681175665e-06
 137    -2.3892856426628e-05
 138    -2.1780100105076e-05
 139    -1.0822173372508e-05
 140    -4.954263852988e-05
 141    0.00026595791366272
 142    7.8339293737177e-06
 143    -4.4406809010959e-05
 144    -3.6503847077832e-06
 145    -0.00023383596979575
 146     2.65733564061e-05
 147    6.1698706596101e-05
 148    -4.3127912044453e-06
 149    7.472553280585e-06
 150    5.7358050701413e-07
 151    9.270757761963e-06
 152    -1.0087522428206e-05
 153    -0.00058921463603152
 154    -0.00034996648436434
 155    -8.249316619271e-06
 156    4.9865175898608e-05
 157    3.2077473943129e-05
 158    -0.00029153242053896
 159    -0.00021410097233386
 160    -6.6466371417521e-05
 161    -2.7327355062093e-05
 162    -4.6541672641234e-06
 163    -8.6542430614486e-05
 164    4.5129331577381e-06
 165    -0.00019861149258916
 166    0.00018638226028178
 167    -0.00013468634626269
 168    0.00024502830311514
 169    0.00031068326670407
 170    -0.00027874729028421
 171    4.0328768924148e-06
 172    -2.9584491176518e-05
 173    6.1227266324416e-06
 174    -1.7540956383506e-05
 175    1.7301384217917e-05
 176    -5.2885098401455e-05
 177    1.2147717778838e-06
 178    0.00010422881397468
 179    -1.4057115518422e-06
 180    8.5948414795764e-07
 181    -5.4988689164154e-06
 182    2.1833259731261e-05
 183    9.9865988823291e-06
 184    -8.6747536159277e-05
 185    8.7096220523221e-06
 186    1.4092588101134e-05
 187    -2.2051887631164e-05
 188    0.00012247080829232
 189    -9.1367386472513e-05
 190    -9.1335809170835e-05
 191    4.008546684624e-07
 192    3.8313190585401e-06
 193    -7.7917244519318e-06
 194    -3.7140129538426e-06
 195    -6.0367194944525e-06
 196    1.4432841671921e-05
 197    -4.9568206144139e-06
 198    6.5821908685124e-06
 199    2.0046031166596e-06
 200    -2.7962570965669e-06
 201    -0.00020074880120526
 202    -0.00012492404405939
 203    -1.5248826080324e-05
 204    1.0929223270028e-07
 205    7.7007969426802e-06
 206    -0.00012746770507764
 207    -1.1585373967696e-05
 208    -7.3775854498241e-06
 209    1.031072275348e-05
 210    1.7505628234621e-05
 211    -5.1641398792263e-06
 212    -1.5987672406505e-05
 213    0.00029904760604139
 214    1.1621902429794e-05
 215    2.899088427756e-06
 216    3.5591917191597e-06
 217    0.00020966805813659
 218    -5.1645102365918e-05
 219    -7.5015722312501e-05
 220    -1.332907903213e-05
 221    -6.4146656546072e-06
 222    2.4481582698464e-06
 223    1.0480671159187e-05
 224    -6.4238021227453e-06
 225    1.9407078298532e-05
 226    5.7038537351275e-05
 227    -1.124907986189e-05
 228    -9.768320800531e-07
 229    -1.3202017451823e-06
 230    1.5876677092395e-05
 231    5.9946434404122e-05
 232    -3.4840959193881e-06
 233    6.4254400819117e-06
 234    1.0984501108448e-05
 235    3.8557631666386e-06
 236    1.8205334506778e-07
 237    -6.6690866860739e-05
 238    -2.0403972874869e-06
 239    3.3031100936867e-06
 240    4.0170519369645e-06
 241    2.7546790715765e-05
 242    -5.8622244051105e-05
 243    2.6662814680483e-05
 244    1.1699627098699e-06
 245    2.455743757055e-06
 246    -1.7084936550528e-06
 247    1.8644158333932e-08
 248    -3.6502462013982e-07
 249    -1.3865941243591e-05
 250    -3.2772381936557e-06
 251    -6.3414424252792e-06
 252    -1.2807002105208e-06
 253    -1.8563790693293e-06
 254    -2.0715162446647e-05
 255    4.5048073149039e-05
 256    -1.4725876334899e-08
 257    5.7033301891976e-06
 258    -1.5387282661338e-06
 259    -4.1184529188642e-06
 260    -5.0917219376353e-06
 261    0.00010698890803884
 262    1.7729444841677e-05