[Molden Format]
made by pyscf v[2.0.1]
[Atoms] (AU)
O   1   8     0.00000000000000     0.00000000000000     7.16229833633744
H   2   1     0.00000000000000     0.00000000000000     5.33889651443647
H   3   1    -0.05031916615174     1.78353065140343     7.53817003280410
O   4   8     0.00000000000000     0.00000000000000     2.31533471513237
C   5   6     0.00000000000000     0.00000000000000     0.00000000000000
C   6   6     2.01118073026938    -1.40227222164369    -1.50774939176400
C   7   6    -2.01249334291722     1.41331050329955    -1.50315905028694
H   8   1     3.32037363730244    -2.26721897153159    -0.13599698591495
C   9   6     3.45899267434009     0.28739631745591    -3.37437943254505
H   10   1     1.07662969841332    -2.94725144642667    -2.56541439481080
H   11   1    -2.67503415753480     0.18421555839588    -3.06194479365997
H   12   1    -1.07974048864772     3.03851734677796    -2.43674295017013
C   13   6    -4.21607110578555     2.32938802552922     0.11994162256091
H   14   1     4.24440173074564     1.93368664142019    -2.34976285512790
H   15   1     2.15020713235517     1.04714335134846    -4.81494497423699
C   16   6     5.60746363007797    -1.12419643481196    -4.70268606082550
H   17   1    -3.46838323670267     3.50951302338067     1.66946842715333
H   18   1    -5.11873485366228     0.68575958301209     1.04047743976495
C   19   6    -6.18314754751344     3.80909592987882    -1.39656589068747
H   20   1     6.93011263717176    -1.87550812453645    -3.26656317360070
C   21   6     7.06356622236532     0.52877932406334    -6.57829775293605
H   22   1     4.82318879258361    -2.78573437948532    -5.70504560381835
H   23   1    -6.91582688743803     2.61304780074712    -2.95074552451969
H   24   1    -5.26532430573853     5.45420349051338    -2.31005832200284
C   25   6    -8.39941882261433     4.73263980500213     0.21800571437956
H   26   1     7.83338371486801     2.19084139882824    -5.57093109900697
H   27   1     5.73544244039420     1.27376866537418    -8.01071492370229
C   28   6     9.21124858443101    -0.89699110072176    -7.88926949186242
H   29   1    -7.66272760055236     5.92277078003992     1.77035591474408
H   30   1    -9.31497248082589     3.08753015622020     1.12614408368786
C   31   6   -10.35481709231879     6.21833079391143    -1.30905206253246
H   32   1    10.58815905329501    -1.61074586756696    -6.49512691622620
H   33   1    10.23506248045667     0.32468009384095    -9.23072870921204
H   34   1     8.47665842847139    -2.53598436989925    -8.94921964622535
H   35   1    -9.48948872868064     7.90013588951020    -2.18823918416067
H   36   1   -11.93332513000955     6.86460487874102    -0.11255798845995
H   37   1   -11.15126291841033     5.04495968327630    -2.83849898862534
[GTO]
1 0
 s    8 1.00
                 11720  0.00070964594651845
                  1759  0.0054672722921914
                 400.8   0.027823118610189
                 113.7    0.10474773971146
                 37.03    0.28292084635691
                 13.27    0.44849523869833
                 5.025    0.27081688521277
                 1.013    0.01545029160744
 s    8 1.00
                 11720  -0.00031444341168873
                  1759  -0.0024821376810179
                 400.8  -0.012316355381583
                 113.7  -0.050538917343672
                 37.03   -0.13938490331632
                 13.27   -0.32507749481778
                 5.025   -0.22984830758785
                 1.013     1.0953793467883
 s    1 1.00
                0.3023                   1
 p    3 1.00
                  17.7   0.062679166281506
                 3.854    0.33353656587936
                 1.046    0.74123964163973
 p    1 1.00
                0.2753                   1
 d    1 1.00
                 1.185                   1

2 0
 s    3 1.00
                 13.01   0.033498726389998
                 1.962    0.23480080117413
                0.4446     0.8136829578829
 s    1 1.00
                 0.122                   1
 p    1 1.00
                 0.727                   1

3 0
 s    3 1.00
                 13.01   0.033498726389998
                 1.962    0.23480080117413
                0.4446     0.8136829578829
 s    1 1.00
                 0.122                   1
 p    1 1.00
                 0.727                   1

4 0
 s    8 1.00
                 11720  0.00070964594651845
                  1759  0.0054672722921914
                 400.8   0.027823118610189
                 113.7    0.10474773971146
                 37.03    0.28292084635691
                 13.27    0.44849523869833
                 5.025    0.27081688521277
                 1.013    0.01545029160744
 s    8 1.00
                 11720  -0.00031444341168873
                  1759  -0.0024821376810179
                 400.8  -0.012316355381583
                 113.7  -0.050538917343672
                 37.03   -0.13938490331632
                 13.27   -0.32507749481778
                 5.025   -0.22984830758785
                 1.013     1.0953793467883
 s    1 1.00
                0.3023                   1
 p    3 1.00
                  17.7   0.062679166281506
                 3.854    0.33353656587936
                 1.046    0.74123964163973
 p    1 1.00
                0.2753                   1
 d    1 1.00
                 1.185                   1

5 0
 s    8 1.00
                  6665  0.00069158396281299
                  1000  0.0053257961529341
                   228   0.027060721042034
                 64.71    0.10165684614077
                 21.06     0.2745748236174
                 7.495    0.44829431892377
                 2.797    0.28490261071525
                0.5215   0.015194859206082
 s    8 1.00
                  6665  -0.00029326965268655
                  1000  -0.0023180354739745
                   228  -0.011499786038565
                 64.71  -0.046826727009787
                 21.06   -0.12846616875047
                 7.495   -0.30126627246289
                 2.797   -0.25563070233011
                0.5215      1.093793361012
 s    1 1.00
                0.1596                   1
 p    3 1.00
                 9.439   0.056979251590039
                 2.002    0.31320721150073
                0.5456    0.76037674173753
 p    1 1.00
                0.1517                   1
 d    1 1.00
                  0.55                   1

6 0
 s    8 1.00
                  6665  0.00069158396281299
                  1000  0.0053257961529341
                   228   0.027060721042034
                 64.71    0.10165684614077
                 21.06     0.2745748236174
                 7.495    0.44829431892377
                 2.797    0.28490261071525
                0.5215   0.015194859206082
 s    8 1.00
                  6665  -0.00029326965268655
                  1000  -0.0023180354739745
                   228  -0.011499786038565
                 64.71  -0.046826727009787
                 21.06   -0.12846616875047
                 7.495   -0.30126627246289
                 2.797   -0.25563070233011
                0.5215      1.093793361012
 s    1 1.00
                0.1596                   1
 p    3 1.00
                 9.439   0.056979251590039
                 2.002    0.31320721150073
                0.5456    0.76037674173753
 p    1 1.00
                0.1517                   1
 d    1 1.00
                  0.55                   1

7 0
 s    8 1.00
                  6665  0.00069158396281299
                  1000  0.0053257961529341
                   228   0.027060721042034
                 64.71    0.10165684614077
                 21.06     0.2745748236174
                 7.495    0.44829431892377
                 2.797    0.28490261071525
                0.5215   0.015194859206082
 s    8 1.00
                  6665  -0.00029326965268655
                  1000  -0.0023180354739745
                   228  -0.011499786038565
                 64.71  -0.046826727009787
                 21.06   -0.12846616875047
                 7.495   -0.30126627246289
                 2.797   -0.25563070233011
                0.5215      1.093793361012
 s    1 1.00
                0.1596                   1
 p    3 1.00
                 9.439   0.056979251590039
                 2.002    0.31320721150073
                0.5456    0.76037674173753
 p    1 1.00
                0.1517                   1
 d    1 1.00
                  0.55                   1

8 0
 s    3 1.00
                 13.01   0.033498726389998
                 1.962    0.23480080117413
                0.4446     0.8136829578829
 s    1 1.00
                 0.122                   1
 p    1 1.00
                 0.727                   1

9 0
 s    8 1.00
                  6665  0.00069158396281299
                  1000  0.0053257961529341
                   228   0.027060721042034
                 64.71    0.10165684614077
                 21.06     0.2745748236174
                 7.495    0.44829431892377
                 2.797    0.28490261071525
                0.5215   0.015194859206082
 s    8 1.00
                  6665  -0.00029326965268655
                  1000  -0.0023180354739745
                   228  -0.011499786038565
                 64.71  -0.046826727009787
                 21.06   -0.12846616875047
                 7.495   -0.30126627246289
                 2.797   -0.25563070233011
                0.5215      1.093793361012
 s    1 1.00
                0.1596                   1
 p    3 1.00
                 9.439   0.056979251590039
                 2.002    0.31320721150073
                0.5456    0.76037674173753
 p    1 1.00
                0.1517                   1
 d    1 1.00
                  0.55                   1

10 0
 s    3 1.00
                 13.01   0.033498726389998
                 1.962    0.23480080117413
                0.4446     0.8136829578829
 s    1 1.00
                 0.122                   1
 p    1 1.00
                 0.727                   1

11 0
 s    3 1.00
                 13.01   0.033498726389998
                 1.962    0.23480080117413
                0.4446     0.8136829578829
 s    1 1.00
                 0.122                   1
 p    1 1.00
                 0.727                   1

12 0
 s    3 1.00
                 13.01   0.033498726389998
                 1.962    0.23480080117413
                0.4446     0.8136829578829
 s    1 1.00
                 0.122                   1
 p    1 1.00
                 0.727                   1

13 0
 s    8 1.00
                  6665  0.00069158396281299
                  1000  0.0053257961529341
                   228   0.027060721042034
                 64.71    0.10165684614077
                 21.06     0.2745748236174
                 7.495    0.44829431892377
                 2.797    0.28490261071525
                0.5215   0.015194859206082
 s    8 1.00
                  6665  -0.00029326965268655
                  1000  -0.0023180354739745
                   228  -0.011499786038565
                 64.71  -0.046826727009787
                 21.06   -0.12846616875047
                 7.495   -0.30126627246289
                 2.797   -0.25563070233011
                0.5215      1.093793361012
 s    1 1.00
                0.1596                   1
 p    3 1.00
                 9.439   0.056979251590039
                 2.002    0.31320721150073
                0.5456    0.76037674173753
 p    1 1.00
                0.1517                   1
 d    1 1.00
                  0.55                   1

14 0
 s    3 1.00
                 13.01   0.033498726389998
                 1.962    0.23480080117413
                0.4446     0.8136829578829
 s    1 1.00
                 0.122                   1
 p    1 1.00
                 0.727                   1

15 0
 s    3 1.00
                 13.01   0.033498726389998
                 1.962    0.23480080117413
                0.4446     0.8136829578829
 s    1 1.00
                 0.122                   1
 p    1 1.00
                 0.727                   1

16 0
 s    8 1.00
                  6665  0.00069158396281299
                  1000  0.0053257961529341
                   228   0.027060721042034
                 64.71    0.10165684614077
                 21.06     0.2745748236174
                 7.495    0.44829431892377
                 2.797    0.28490261071525
                0.5215   0.015194859206082
 s    8 1.00
                  6665  -0.00029326965268655
                  1000  -0.0023180354739745
                   228  -0.011499786038565
                 64.71  -0.046826727009787
                 21.06   -0.12846616875047
                 7.495   -0.30126627246289
                 2.797   -0.25563070233011
                0.5215      1.093793361012
 s    1 1.00
                0.1596                   1
 p    3 1.00
                 9.439   0.056979251590039
                 2.002    0.31320721150073
                0.5456    0.76037674173753
 p    1 1.00
                0.1517                   1
 d    1 1.00
                  0.55                   1

17 0
 s    3 1.00
                 13.01   0.033498726389998
                 1.962    0.23480080117413
                0.4446     0.8136829578829
 s    1 1.00
                 0.122                   1
 p    1 1.00
                 0.727                   1

18 0
 s    3 1.00
                 13.01   0.033498726389998
                 1.962    0.23480080117413
                0.4446     0.8136829578829
 s    1 1.00
                 0.122                   1
 p    1 1.00
                 0.727                   1

19 0
 s    8 1.00
                  6665  0.00069158396281299
                  1000  0.0053257961529341
                   228   0.027060721042034
                 64.71    0.10165684614077
                 21.06     0.2745748236174
                 7.495    0.44829431892377
                 2.797    0.28490261071525
                0.5215   0.015194859206082
 s    8 1.00
                  6665  -0.00029326965268655
                  1000  -0.0023180354739745
                   228  -0.011499786038565
                 64.71  -0.046826727009787
                 21.06   -0.12846616875047
                 7.495   -0.30126627246289
                 2.797   -0.25563070233011
                0.5215      1.093793361012
 s    1 1.00
                0.1596                   1
 p    3 1.00
                 9.439   0.056979251590039
                 2.002    0.31320721150073
                0.5456    0.76037674173753
 p    1 1.00
                0.1517                   1
 d    1 1.00
                  0.55                   1

20 0
 s    3 1.00
                 13.01   0.033498726389998
                 1.962    0.23480080117413
                0.4446     0.8136829578829
 s    1 1.00
                 0.122                   1
 p    1 1.00
                 0.727                   1

21 0
 s    8 1.00
                  6665  0.00069158396281299
                  1000  0.0053257961529341
                   228   0.027060721042034
                 64.71    0.10165684614077
                 21.06     0.2745748236174
                 7.495    0.44829431892377
                 2.797    0.28490261071525
                0.5215   0.015194859206082
 s    8 1.00
                  6665  -0.00029326965268655
                  1000  -0.0023180354739745
                   228  -0.011499786038565
                 64.71  -0.046826727009787
                 21.06   -0.12846616875047
                 7.495   -0.30126627246289
                 2.797   -0.25563070233011
                0.5215      1.093793361012
 s    1 1.00
                0.1596                   1
 p    3 1.00
                 9.439   0.056979251590039
                 2.002    0.31320721150073
                0.5456    0.76037674173753
 p    1 1.00
                0.1517                   1
 d    1 1.00
                  0.55                   1

22 0
 s    3 1.00
                 13.01   0.033498726389998
                 1.962    0.23480080117413
                0.4446     0.8136829578829
 s    1 1.00
                 0.122                   1
 p    1 1.00
                 0.727                   1

23 0
 s    3 1.00
                 13.01   0.033498726389998
                 1.962    0.23480080117413
                0.4446     0.8136829578829
 s    1 1.00
                 0.122                   1
 p    1 1.00
                 0.727                   1

24 0
 s    3 1.00
                 13.01   0.033498726389998
                 1.962    0.23480080117413
                0.4446     0.8136829578829
 s    1 1.00
                 0.122                   1
 p    1 1.00
                 0.727                   1

25 0
 s    8 1.00
                  6665  0.00069158396281299
                  1000  0.0053257961529341
                   228   0.027060721042034
                 64.71    0.10165684614077
                 21.06     0.2745748236174
                 7.495    0.44829431892377
                 2.797    0.28490261071525
                0.5215   0.015194859206082
 s    8 1.00
                  6665  -0.00029326965268655
                  1000  -0.0023180354739745
                   228  -0.011499786038565
                 64.71  -0.046826727009787
                 21.06   -0.12846616875047
                 7.495   -0.30126627246289
                 2.797   -0.25563070233011
                0.5215      1.093793361012
 s    1 1.00
                0.1596                   1
 p    3 1.00
                 9.439   0.056979251590039
                 2.002    0.31320721150073
                0.5456    0.76037674173753
 p    1 1.00
                0.1517                   1
 d    1 1.00
                  0.55                   1

26 0
 s    3 1.00
                 13.01   0.033498726389998
                 1.962    0.23480080117413
                0.4446     0.8136829578829
 s    1 1.00
                 0.122                   1
 p    1 1.00
                 0.727                   1

27 0
 s    3 1.00
                 13.01   0.033498726389998
                 1.962    0.23480080117413
                0.4446     0.8136829578829
 s    1 1.00
                 0.122                   1
 p    1 1.00
                 0.727                   1

28 0
 s    8 1.00
                  6665  0.00069158396281299
                  1000  0.0053257961529341
                   228   0.027060721042034
                 64.71    0.10165684614077
                 21.06     0.2745748236174
                 7.495    0.44829431892377
                 2.797    0.28490261071525
                0.5215   0.015194859206082
 s    8 1.00
                  6665  -0.00029326965268655
                  1000  -0.0023180354739745
                   228  -0.011499786038565
                 64.71  -0.046826727009787
                 21.06   -0.12846616875047
                 7.495   -0.30126627246289
                 2.797   -0.25563070233011
                0.5215      1.093793361012
 s    1 1.00
                0.1596                   1
 p    3 1.00
                 9.439   0.056979251590039
                 2.002    0.31320721150073
                0.5456    0.76037674173753
 p    1 1.00
                0.1517                   1
 d    1 1.00
                  0.55                   1

29 0
 s    3 1.00
                 13.01   0.033498726389998
                 1.962    0.23480080117413
                0.4446     0.8136829578829
 s    1 1.00
                 0.122                   1
 p    1 1.00
                 0.727                   1

30 0
 s    3 1.00
                 13.01   0.033498726389998
                 1.962    0.23480080117413
                0.4446     0.8136829578829
 s    1 1.00
                 0.122                   1
 p    1 1.00
                 0.727                   1

31 0
 s    8 1.00
                  6665  0.00069158396281299
                  1000  0.0053257961529341
                   228   0.027060721042034
                 64.71    0.10165684614077
                 21.06     0.2745748236174
                 7.495    0.44829431892377
                 2.797    0.28490261071525
                0.5215   0.015194859206082
 s    8 1.00
                  6665  -0.00029326965268655
                  1000  -0.0023180354739745
                   228  -0.011499786038565
                 64.71  -0.046826727009787
                 21.06   -0.12846616875047
                 7.495   -0.30126627246289
                 2.797   -0.25563070233011
                0.5215      1.093793361012
 s    1 1.00
                0.1596                   1
 p    3 1.00
                 9.439   0.056979251590039
                 2.002    0.31320721150073
                0.5456    0.76037674173753
 p    1 1.00
                0.1517                   1
 d    1 1.00
                  0.55                   1

32 0
 s    3 1.00
                 13.01   0.033498726389998
                 1.962    0.23480080117413
                0.4446     0.8136829578829
 s    1 1.00
                 0.122                   1
 p    1 1.00
                 0.727                   1

33 0
 s    3 1.00
                 13.01   0.033498726389998
                 1.962    0.23480080117413
                0.4446     0.8136829578829
 s    1 1.00
                 0.122                   1
 p    1 1.00
                 0.727                   1

34 0
 s    3 1.00
                 13.01   0.033498726389998
                 1.962    0.23480080117413
                0.4446     0.8136829578829
 s    1 1.00
                 0.122                   1
 p    1 1.00
                 0.727                   1

35 0
 s    3 1.00
                 13.01   0.033498726389998
                 1.962    0.23480080117413
                0.4446     0.8136829578829
 s    1 1.00
                 0.122                   1
 p    1 1.00
                 0.727                   1

36 0
 s    3 1.00
                 13.01   0.033498726389998
                 1.962    0.23480080117413
                0.4446     0.8136829578829
 s    1 1.00
                 0.122                   1
 p    1 1.00
                 0.727                   1

37 0
 s    3 1.00
                 13.01   0.033498726389998
                 1.962    0.23480080117413
                0.4446     0.8136829578829
 s    1 1.00
                 0.122                   1
 p    1 1.00
                 0.727                   1

[5d]
[7f]
[9g]

[MO]
 Sym= A
 Ene=               0
 Spin= Alpha
 Occup=    1.00000
   1    0.00011157423086926
   2    1.0491990528468e-05
   3    -3.5246184534901e-05
   4    -7.9820353352434e-07
   5    -2.444261668171e-06
   6    -8.7583305994096e-06
   7    1.0121781091845e-06
   8    1.7198517908745e-05
   9    -3.0586109285101e-05
  10    1.586477880152e-05
  11    3.7609093418702e-07
  12    -2.9598265024469e-06
  13    -2.8693065249762e-06
  14    -1.2685217662695e-07
  15    3.6778007805469e-05
  16    0.00018586991008296
  17    1.2095174033968e-06
  18    -3.8984982688215e-06
  19    -3.5931756352505e-05
  20    -1.3702809229329e-05
  21    -1.6650243714083e-05
  22    -2.5981042616662e-07
  23    -4.1338165796952e-06
  24    9.2171995467454e-06
  25      -1.0014018717976
  26    -0.0020647040283143
  27     0.007041876847301
  28    5.4857373365894e-06
  29    -1.5070076351768e-05
  30    0.0015981457567127
  31    6.9446350386922e-07
  32    3.4010482593278e-06
  33    -0.0020630014150151
  34    -0.00010963639361592
  35    3.0221050520343e-06
  36    -1.6147195381697e-06
  37    -6.3461029544575e-05
  38    0.00016563473021161
  39    -0.00031463533488622
  40    -0.00041590698623255
  41    -0.0016562110903456
  42    -1.6842019292832e-05
  43    8.759820979979e-06
  44    -5.3322957723218e-05
  45    -9.4095366467645e-05
  46    7.7916543684272e-05
  47    -0.0037538433113575
  48    0.00049686310638222
  49    1.3944314724529e-05
  50    -7.6203369476393e-06
  51    -3.3968001571392e-05
  52    0.00013279621310001
  53    -0.00019971656281021
  54    -0.00017644000696068
  55    -0.0015802710166297
  56    -0.00012998863955537
  57    0.00010441332600111
  58    0.0001267084811922
  59    0.0004015229988826
  60    -0.00042640095246269
  61    0.0010636743447077
  62    0.00011812323805571
  63    -0.00015716025131601
  64    0.00014906116413444
  65    -4.6494972574883e-05
  66    0.00011205659238033
  67    -0.00029707551275391
  68    -0.0003260603406052
  69    -0.00077443578583065
  70    0.0003100902906195
  71    -0.00025539248544761
  72    -8.9638101016109e-06
  73    -0.00090942759337527
  74    0.0006837002217358
  75    0.00063589450275791
  76    0.00015276561730529
  77    0.0001366322393181
  78    -9.1850046151199e-05
  79    -7.0312912320994e-05
  80    0.00016021946577419
  81    -0.00011770709245497
  82    -0.00024591702606318
  83    -5.3450521688991e-05
  84    4.297983695918e-05
  85    -2.8934551552719e-05
  86    -8.0375398288395e-05
  87    -0.0001017559334092
  88    0.00060003510842227
  89    0.00014555709449059
  90    -2.4575857156672e-05
  91    -0.00019792559822227
  92    -0.00019157983054309
  93    -0.00068471638210234
  94    -9.5852687659373e-05
  95    -2.0143162054384e-05
  96     -9.0674334572e-06
  97    7.3566834773871e-06
  98    2.766819289404e-05
  99    2.7390801866032e-05
 100    -0.00022121790007222
 101    0.0001043981481846
 102    -1.9207035970953e-05
 103    -8.5421232302431e-06
 104    -9.1924804861167e-05
 105    -7.5085838229773e-05
 106    0.00024921151414899
 107    6.0846647872879e-05
 108    -2.2114344650975e-05
 109    -9.2130534025407e-05
 110    -0.00029227139370041
 111    6.6974965377941e-05
 112    5.9846724156119e-05
 113    -3.5454505011742e-06
 114    -8.6183819228387e-05
 115    -0.0003582143839082
 116    -3.8068011381951e-05
 117    -0.00099773706004033
 118    -8.4474622580114e-05
 119    -5.9216376414031e-06
 120    0.00053267133856131
 121    -0.00033697447747417
 122    -4.7016434514247e-05
 123    0.00043860508621765
 124    6.9572316127044e-06
 125    1.7750821841814e-05
 126    -1.4283965904248e-05
 127    4.9763479820179e-06
 128    -1.6147217596465e-05
 129    -8.3982166327358e-05
 130    0.00030176555880254
 131    -2.3139783106575e-06
 132    1.4005701497447e-07
 133    -2.8175018510399e-05
 134    -2.3285065505621e-05
 135    0.00010838159548247
 136    1.4569122563711e-05
 137    2.3855760435762e-05
 138    2.1974474759621e-05
 139    6.2557753742253e-06
 140    7.8674588175273e-05
 141    -0.00026835215316062
 142    -0.00014403353754501
 143    6.0185630789896e-05
 144    6.7642496686379e-05
 145    0.00015328709776047
 146    -3.3446303462083e-05
 147    -2.2182565271906e-05
 148    -2.0983607808806e-06
 149    -7.2050939960415e-06
 150    9.4271846749817e-06
 151    -9.8362432144943e-06
 152    -1.9132161045999e-06
 153    0.00037475920329141
 154    0.00022724962272099
 155    1.7770961178862e-05
 156    -4.0212839300548e-05
 157    -2.3510785978273e-05
 158    0.00023543440852969
 159    0.00018313324192221
 160    6.5605066336533e-05
 161    2.066553379916e-05
 162    -1.7036607538682e-06
 163    3.4656454695444e-05
 164    -2.2916047814077e-06
 165    0.00027286860234986
 166    -0.00015750604584321
 167    0.00011714929187391
 168    -0.00021243471909324
 169    -0.00029407485818494
 170    0.0002653135398526
 171    3.5900211463195e-05
 172    1.9418513401351e-05
 173    -1.3029119711417e-05
 174    1.8183303082645e-05
 175    -1.5409654652013e-05
 176    4.4537029827934e-05
 177    -2.0344946287848e-05
 178    -0.00010326276584073
 179    -6.1397603136887e-07
 180    -5.8788353605682e-07
 181    8.104695046983e-06
 182    -2.3044125849488e-05
 183    -3.4154027390463e-05
 184    7.3496557284949e-05
 185    5.6933449134401e-05
 186    1.538855004862e-05
 187    -3.5022944888338e-05
 188    -8.3376104763736e-05
 189    0.00010597939038206
 190    6.6320442739599e-05
 191    -2.4488368387564e-06
 192    -5.7676251607586e-06
 193    1.3780580751885e-05
 194    6.9460607986177e-06
 195    2.6876819078836e-06
 196    5.7213513897693e-06
 197    7.3997651779713e-06
 198    -8.5948062413673e-06
 199    1.1830115236087e-07
 200    4.7386586629565e-06
 201    0.00016231115107336
 202    9.1041749622491e-05
 203    1.5296090856818e-05
 204    -4.9152214628976e-07
 205    -7.9382099994568e-06
 206    0.0001123244659453
 207    1.8802520160055e-07
 208    8.3036128795577e-06
 209    -9.5917269966883e-06
 210    -1.7240826002251e-05
 211    -1.5768712700687e-05
 212    1.5120228701168e-05
 213    -0.00030654398467215
 214    9.8445055274103e-06
 215    -1.1401156553876e-05
 216    4.661914195413e-07
 217    -0.00019819828457246
 218    4.8494400673888e-05
 219    8.1571970545556e-05
 220    1.1553278839348e-05
 221    7.2236199097545e-06
 222    -2.4982892443386e-06
 223    -1.0918722183851e-05
 224    6.8223066262351e-06
 225    -1.398358371915e-05
 226    -5.6503358345725e-05
 227    1.3425706246521e-05
 228    2.1716538201823e-06
 229    -2.3023381195956e-07
 230    -2.4159309302424e-05
 231    -6.2348751603066e-05
 232    4.7966447537136e-06
 233    -5.43527488834e-06
 234    -1.3189519970155e-05
 235    -5.690478779091e-06
 236    1.7367931919221e-05
 237    9.2036884939904e-05
 238    -3.6550504815589e-05
 239    1.0231214093472e-05
 240    2.8858384828955e-05
 241    -5.495472863966e-05
 242    6.2972165174937e-05
 243    -2.4829088160083e-06
 244    -2.6862825436123e-06
 245    -1.3365244930865e-06
 246    4.2617925047064e-06
 247    -6.9811306751702e-07
 248    -3.145668495628e-06
 249    1.4682052253581e-05
 250    2.4657449633864e-06
 251    6.2947558026039e-06
 252    9.230144296216e-07
 253    1.2468463482209e-06
 254    1.8837810185561e-05
 255    -4.6301020970254e-05
 256    1.9710281156731e-07
 257    -5.947580753976e-06
 258    1.4497720278467e-06
 259    1.1397521069835e-05
 260    8.921989374752e-06
 261    -9.8109042804558e-05
 262    -3.1554834056306e-05