[Molden Format]
made by pyscf v[2.0.1]
[Atoms] (AU)
O   1   8     0.00000000000000     0.00000000000000    11.69764103529358
H   2   1     0.00000000000000     0.00000000000000     9.87423921339262
H   3   1    -0.05031916615174     1.78353065140343    12.07351273176025
O   4   8     0.00000000000000     0.00000000000000     2.31533471513237
C   5   6     0.00000000000000     0.00000000000000     0.00000000000000
C   6   6     2.01118073026938    -1.40227222164369    -1.50774939176400
C   7   6    -2.01249334291722     1.41331050329955    -1.50315905028694
H   8   1     3.32037363730244    -2.26721897153159    -0.13599698591495
C   9   6     3.45899267434009     0.28739631745591    -3.37437943254505
H   10   1     1.07662969841332    -2.94725144642667    -2.56541439481080
H   11   1    -2.67503415753480     0.18421555839588    -3.06194479365997
H   12   1    -1.07974048864772     3.03851734677796    -2.43674295017013
C   13   6    -4.21607110578555     2.32938802552922     0.11994162256091
H   14   1     4.24440173074564     1.93368664142019    -2.34976285512790
H   15   1     2.15020713235517     1.04714335134846    -4.81494497423699
C   16   6     5.60746363007797    -1.12419643481196    -4.70268606082550
H   17   1    -3.46838323670267     3.50951302338067     1.66946842715333
H   18   1    -5.11873485366228     0.68575958301209     1.04047743976495
C   19   6    -6.18314754751344     3.80909592987882    -1.39656589068747
H   20   1     6.93011263717176    -1.87550812453645    -3.26656317360070
C   21   6     7.06356622236532     0.52877932406334    -6.57829775293605
H   22   1     4.82318879258361    -2.78573437948532    -5.70504560381835
H   23   1    -6.91582688743803     2.61304780074712    -2.95074552451969
H   24   1    -5.26532430573853     5.45420349051338    -2.31005832200284
C   25   6    -8.39941882261433     4.73263980500213     0.21800571437956
H   26   1     7.83338371486801     2.19084139882824    -5.57093109900697
H   27   1     5.73544244039420     1.27376866537418    -8.01071492370229
C   28   6     9.21124858443101    -0.89699110072176    -7.88926949186242
H   29   1    -7.66272760055236     5.92277078003992     1.77035591474408
H   30   1    -9.31497248082589     3.08753015622020     1.12614408368786
C   31   6   -10.35481709231879     6.21833079391143    -1.30905206253246
H   32   1    10.58815905329501    -1.61074586756696    -6.49512691622620
H   33   1    10.23506248045667     0.32468009384095    -9.23072870921204
H   34   1     8.47665842847139    -2.53598436989925    -8.94921964622535
H   35   1    -9.48948872868064     7.90013588951020    -2.18823918416067
H   36   1   -11.93332513000955     6.86460487874102    -0.11255798845995
H   37   1   -11.15126291841033     5.04495968327630    -2.83849898862534
[GTO]
1 0
 s    8 1.00
                 11720  0.00070964594651845
                  1759  0.0054672722921914
                 400.8   0.027823118610189
                 113.7    0.10474773971146
                 37.03    0.28292084635691
                 13.27    0.44849523869833
                 5.025    0.27081688521277
                 1.013    0.01545029160744
 s    8 1.00
                 11720  -0.00031444341168873
                  1759  -0.0024821376810179
                 400.8  -0.012316355381583
                 113.7  -0.050538917343672
                 37.03   -0.13938490331632
                 13.27   -0.32507749481778
                 5.025   -0.22984830758785
                 1.013     1.0953793467883
 s    1 1.00
                0.3023                   1
 p    3 1.00
                  17.7   0.062679166281506
                 3.854    0.33353656587936
                 1.046    0.74123964163973
 p    1 1.00
                0.2753                   1
 d    1 1.00
                 1.185                   1

2 0
 s    3 1.00
                 13.01   0.033498726389998
                 1.962    0.23480080117413
                0.4446     0.8136829578829
 s    1 1.00
                 0.122                   1
 p    1 1.00
                 0.727                   1

3 0
 s    3 1.00
                 13.01   0.033498726389998
                 1.962    0.23480080117413
                0.4446     0.8136829578829
 s    1 1.00
                 0.122                   1
 p    1 1.00
                 0.727                   1

4 0
 s    8 1.00
                 11720  0.00070964594651845
                  1759  0.0054672722921914
                 400.8   0.027823118610189
                 113.7    0.10474773971146
                 37.03    0.28292084635691
                 13.27    0.44849523869833
                 5.025    0.27081688521277
                 1.013    0.01545029160744
 s    8 1.00
                 11720  -0.00031444341168873
                  1759  -0.0024821376810179
                 400.8  -0.012316355381583
                 113.7  -0.050538917343672
                 37.03   -0.13938490331632
                 13.27   -0.32507749481778
                 5.025   -0.22984830758785
                 1.013     1.0953793467883
 s    1 1.00
                0.3023                   1
 p    3 1.00
                  17.7   0.062679166281506
                 3.854    0.33353656587936
                 1.046    0.74123964163973
 p    1 1.00
                0.2753                   1
 d    1 1.00
                 1.185                   1

5 0
 s    8 1.00
                  6665  0.00069158396281299
                  1000  0.0053257961529341
                   228   0.027060721042034
                 64.71    0.10165684614077
                 21.06     0.2745748236174
                 7.495    0.44829431892377
                 2.797    0.28490261071525
                0.5215   0.015194859206082
 s    8 1.00
                  6665  -0.00029326965268655
                  1000  -0.0023180354739745
                   228  -0.011499786038565
                 64.71  -0.046826727009787
                 21.06   -0.12846616875047
                 7.495   -0.30126627246289
                 2.797   -0.25563070233011
                0.5215      1.093793361012
 s    1 1.00
                0.1596                   1
 p    3 1.00
                 9.439   0.056979251590039
                 2.002    0.31320721150073
                0.5456    0.76037674173753
 p    1 1.00
                0.1517                   1
 d    1 1.00
                  0.55                   1

6 0
 s    8 1.00
                  6665  0.00069158396281299
                  1000  0.0053257961529341
                   228   0.027060721042034
                 64.71    0.10165684614077
                 21.06     0.2745748236174
                 7.495    0.44829431892377
                 2.797    0.28490261071525
                0.5215   0.015194859206082
 s    8 1.00
                  6665  -0.00029326965268655
                  1000  -0.0023180354739745
                   228  -0.011499786038565
                 64.71  -0.046826727009787
                 21.06   -0.12846616875047
                 7.495   -0.30126627246289
                 2.797   -0.25563070233011
                0.5215      1.093793361012
 s    1 1.00
                0.1596                   1
 p    3 1.00
                 9.439   0.056979251590039
                 2.002    0.31320721150073
                0.5456    0.76037674173753
 p    1 1.00
                0.1517                   1
 d    1 1.00
                  0.55                   1

7 0
 s    8 1.00
                  6665  0.00069158396281299
                  1000  0.0053257961529341
                   228   0.027060721042034
                 64.71    0.10165684614077
                 21.06     0.2745748236174
                 7.495    0.44829431892377
                 2.797    0.28490261071525
                0.5215   0.015194859206082
 s    8 1.00
                  6665  -0.00029326965268655
                  1000  -0.0023180354739745
                   228  -0.011499786038565
                 64.71  -0.046826727009787
                 21.06   -0.12846616875047
                 7.495   -0.30126627246289
                 2.797   -0.25563070233011
                0.5215      1.093793361012
 s    1 1.00
                0.1596                   1
 p    3 1.00
                 9.439   0.056979251590039
                 2.002    0.31320721150073
                0.5456    0.76037674173753
 p    1 1.00
                0.1517                   1
 d    1 1.00
                  0.55                   1

8 0
 s    3 1.00
                 13.01   0.033498726389998
                 1.962    0.23480080117413
                0.4446     0.8136829578829
 s    1 1.00
                 0.122                   1
 p    1 1.00
                 0.727                   1

9 0
 s    8 1.00
                  6665  0.00069158396281299
                  1000  0.0053257961529341
                   228   0.027060721042034
                 64.71    0.10165684614077
                 21.06     0.2745748236174
                 7.495    0.44829431892377
                 2.797    0.28490261071525
                0.5215   0.015194859206082
 s    8 1.00
                  6665  -0.00029326965268655
                  1000  -0.0023180354739745
                   228  -0.011499786038565
                 64.71  -0.046826727009787
                 21.06   -0.12846616875047
                 7.495   -0.30126627246289
                 2.797   -0.25563070233011
                0.5215      1.093793361012
 s    1 1.00
                0.1596                   1
 p    3 1.00
                 9.439   0.056979251590039
                 2.002    0.31320721150073
                0.5456    0.76037674173753
 p    1 1.00
                0.1517                   1
 d    1 1.00
                  0.55                   1

10 0
 s    3 1.00
                 13.01   0.033498726389998
                 1.962    0.23480080117413
                0.4446     0.8136829578829
 s    1 1.00
                 0.122                   1
 p    1 1.00
                 0.727                   1

11 0
 s    3 1.00
                 13.01   0.033498726389998
                 1.962    0.23480080117413
                0.4446     0.8136829578829
 s    1 1.00
                 0.122                   1
 p    1 1.00
                 0.727                   1

12 0
 s    3 1.00
                 13.01   0.033498726389998
                 1.962    0.23480080117413
                0.4446     0.8136829578829
 s    1 1.00
                 0.122                   1
 p    1 1.00
                 0.727                   1

13 0
 s    8 1.00
                  6665  0.00069158396281299
                  1000  0.0053257961529341
                   228   0.027060721042034
                 64.71    0.10165684614077
                 21.06     0.2745748236174
                 7.495    0.44829431892377
                 2.797    0.28490261071525
                0.5215   0.015194859206082
 s    8 1.00
                  6665  -0.00029326965268655
                  1000  -0.0023180354739745
                   228  -0.011499786038565
                 64.71  -0.046826727009787
                 21.06   -0.12846616875047
                 7.495   -0.30126627246289
                 2.797   -0.25563070233011
                0.5215      1.093793361012
 s    1 1.00
                0.1596                   1
 p    3 1.00
                 9.439   0.056979251590039
                 2.002    0.31320721150073
                0.5456    0.76037674173753
 p    1 1.00
                0.1517                   1
 d    1 1.00
                  0.55                   1

14 0
 s    3 1.00
                 13.01   0.033498726389998
                 1.962    0.23480080117413
                0.4446     0.8136829578829
 s    1 1.00
                 0.122                   1
 p    1 1.00
                 0.727                   1

15 0
 s    3 1.00
                 13.01   0.033498726389998
                 1.962    0.23480080117413
                0.4446     0.8136829578829
 s    1 1.00
                 0.122                   1
 p    1 1.00
                 0.727                   1

16 0
 s    8 1.00
                  6665  0.00069158396281299
                  1000  0.0053257961529341
                   228   0.027060721042034
                 64.71    0.10165684614077
                 21.06     0.2745748236174
                 7.495    0.44829431892377
                 2.797    0.28490261071525
                0.5215   0.015194859206082
 s    8 1.00
                  6665  -0.00029326965268655
                  1000  -0.0023180354739745
                   228  -0.011499786038565
                 64.71  -0.046826727009787
                 21.06   -0.12846616875047
                 7.495   -0.30126627246289
                 2.797   -0.25563070233011
                0.5215      1.093793361012
 s    1 1.00
                0.1596                   1
 p    3 1.00
                 9.439   0.056979251590039
                 2.002    0.31320721150073
                0.5456    0.76037674173753
 p    1 1.00
                0.1517                   1
 d    1 1.00
                  0.55                   1

17 0
 s    3 1.00
                 13.01   0.033498726389998
                 1.962    0.23480080117413
                0.4446     0.8136829578829
 s    1 1.00
                 0.122                   1
 p    1 1.00
                 0.727                   1

18 0
 s    3 1.00
                 13.01   0.033498726389998
                 1.962    0.23480080117413
                0.4446     0.8136829578829
 s    1 1.00
                 0.122                   1
 p    1 1.00
                 0.727                   1

19 0
 s    8 1.00
                  6665  0.00069158396281299
                  1000  0.0053257961529341
                   228   0.027060721042034
                 64.71    0.10165684614077
                 21.06     0.2745748236174
                 7.495    0.44829431892377
                 2.797    0.28490261071525
                0.5215   0.015194859206082
 s    8 1.00
                  6665  -0.00029326965268655
                  1000  -0.0023180354739745
                   228  -0.011499786038565
                 64.71  -0.046826727009787
                 21.06   -0.12846616875047
                 7.495   -0.30126627246289
                 2.797   -0.25563070233011
                0.5215      1.093793361012
 s    1 1.00
                0.1596                   1
 p    3 1.00
                 9.439   0.056979251590039
                 2.002    0.31320721150073
                0.5456    0.76037674173753
 p    1 1.00
                0.1517                   1
 d    1 1.00
                  0.55                   1

20 0
 s    3 1.00
                 13.01   0.033498726389998
                 1.962    0.23480080117413
                0.4446     0.8136829578829
 s    1 1.00
                 0.122                   1
 p    1 1.00
                 0.727                   1

21 0
 s    8 1.00
                  6665  0.00069158396281299
                  1000  0.0053257961529341
                   228   0.027060721042034
                 64.71    0.10165684614077
                 21.06     0.2745748236174
                 7.495    0.44829431892377
                 2.797    0.28490261071525
                0.5215   0.015194859206082
 s    8 1.00
                  6665  -0.00029326965268655
                  1000  -0.0023180354739745
                   228  -0.011499786038565
                 64.71  -0.046826727009787
                 21.06   -0.12846616875047
                 7.495   -0.30126627246289
                 2.797   -0.25563070233011
                0.5215      1.093793361012
 s    1 1.00
                0.1596                   1
 p    3 1.00
                 9.439   0.056979251590039
                 2.002    0.31320721150073
                0.5456    0.76037674173753
 p    1 1.00
                0.1517                   1
 d    1 1.00
                  0.55                   1

22 0
 s    3 1.00
                 13.01   0.033498726389998
                 1.962    0.23480080117413
                0.4446     0.8136829578829
 s    1 1.00
                 0.122                   1
 p    1 1.00
                 0.727                   1

23 0
 s    3 1.00
                 13.01   0.033498726389998
                 1.962    0.23480080117413
                0.4446     0.8136829578829
 s    1 1.00
                 0.122                   1
 p    1 1.00
                 0.727                   1

24 0
 s    3 1.00
                 13.01   0.033498726389998
                 1.962    0.23480080117413
                0.4446     0.8136829578829
 s    1 1.00
                 0.122                   1
 p    1 1.00
                 0.727                   1

25 0
 s    8 1.00
                  6665  0.00069158396281299
                  1000  0.0053257961529341
                   228   0.027060721042034
                 64.71    0.10165684614077
                 21.06     0.2745748236174
                 7.495    0.44829431892377
                 2.797    0.28490261071525
                0.5215   0.015194859206082
 s    8 1.00
                  6665  -0.00029326965268655
                  1000  -0.0023180354739745
                   228  -0.011499786038565
                 64.71  -0.046826727009787
                 21.06   -0.12846616875047
                 7.495   -0.30126627246289
                 2.797   -0.25563070233011
                0.5215      1.093793361012
 s    1 1.00
                0.1596                   1
 p    3 1.00
                 9.439   0.056979251590039
                 2.002    0.31320721150073
                0.5456    0.76037674173753
 p    1 1.00
                0.1517                   1
 d    1 1.00
                  0.55                   1

26 0
 s    3 1.00
                 13.01   0.033498726389998
                 1.962    0.23480080117413
                0.4446     0.8136829578829
 s    1 1.00
                 0.122                   1
 p    1 1.00
                 0.727                   1

27 0
 s    3 1.00
                 13.01   0.033498726389998
                 1.962    0.23480080117413
                0.4446     0.8136829578829
 s    1 1.00
                 0.122                   1
 p    1 1.00
                 0.727                   1

28 0
 s    8 1.00
                  6665  0.00069158396281299
                  1000  0.0053257961529341
                   228   0.027060721042034
                 64.71    0.10165684614077
                 21.06     0.2745748236174
                 7.495    0.44829431892377
                 2.797    0.28490261071525
                0.5215   0.015194859206082
 s    8 1.00
                  6665  -0.00029326965268655
                  1000  -0.0023180354739745
                   228  -0.011499786038565
                 64.71  -0.046826727009787
                 21.06   -0.12846616875047
                 7.495   -0.30126627246289
                 2.797   -0.25563070233011
                0.5215      1.093793361012
 s    1 1.00
                0.1596                   1
 p    3 1.00
                 9.439   0.056979251590039
                 2.002    0.31320721150073
                0.5456    0.76037674173753
 p    1 1.00
                0.1517                   1
 d    1 1.00
                  0.55                   1

29 0
 s    3 1.00
                 13.01   0.033498726389998
                 1.962    0.23480080117413
                0.4446     0.8136829578829
 s    1 1.00
                 0.122                   1
 p    1 1.00
                 0.727                   1

30 0
 s    3 1.00
                 13.01   0.033498726389998
                 1.962    0.23480080117413
                0.4446     0.8136829578829
 s    1 1.00
                 0.122                   1
 p    1 1.00
                 0.727                   1

31 0
 s    8 1.00
                  6665  0.00069158396281299
                  1000  0.0053257961529341
                   228   0.027060721042034
                 64.71    0.10165684614077
                 21.06     0.2745748236174
                 7.495    0.44829431892377
                 2.797    0.28490261071525
                0.5215   0.015194859206082
 s    8 1.00
                  6665  -0.00029326965268655
                  1000  -0.0023180354739745
                   228  -0.011499786038565
                 64.71  -0.046826727009787
                 21.06   -0.12846616875047
                 7.495   -0.30126627246289
                 2.797   -0.25563070233011
                0.5215      1.093793361012
 s    1 1.00
                0.1596                   1
 p    3 1.00
                 9.439   0.056979251590039
                 2.002    0.31320721150073
                0.5456    0.76037674173753
 p    1 1.00
                0.1517                   1
 d    1 1.00
                  0.55                   1

32 0
 s    3 1.00
                 13.01   0.033498726389998
                 1.962    0.23480080117413
                0.4446     0.8136829578829
 s    1 1.00
                 0.122                   1
 p    1 1.00
                 0.727                   1

33 0
 s    3 1.00
                 13.01   0.033498726389998
                 1.962    0.23480080117413
                0.4446     0.8136829578829
 s    1 1.00
                 0.122                   1
 p    1 1.00
                 0.727                   1

34 0
 s    3 1.00
                 13.01   0.033498726389998
                 1.962    0.23480080117413
                0.4446     0.8136829578829
 s    1 1.00
                 0.122                   1
 p    1 1.00
                 0.727                   1

35 0
 s    3 1.00
                 13.01   0.033498726389998
                 1.962    0.23480080117413
                0.4446     0.8136829578829
 s    1 1.00
                 0.122                   1
 p    1 1.00
                 0.727                   1

36 0
 s    3 1.00
                 13.01   0.033498726389998
                 1.962    0.23480080117413
                0.4446     0.8136829578829
 s    1 1.00
                 0.122                   1
 p    1 1.00
                 0.727                   1

37 0
 s    3 1.00
                 13.01   0.033498726389998
                 1.962    0.23480080117413
                0.4446     0.8136829578829
 s    1 1.00
                 0.122                   1
 p    1 1.00
                 0.727                   1

[5d]
[7f]
[9g]

[MO]
 Sym= A
 Ene=               0
 Spin= Alpha
 Occup=    1.00000
   1    -1.8337219925365e-05
   2    -8.1154343191062e-06
   3    3.2758341315692e-05
   4    -3.2609632053396e-08
   5    1.234765874565e-06
   6    -3.5539632819059e-07
   7    2.2710849638285e-07
   8    -8.1664557916614e-06
   9    -2.5494750538237e-05
  10    4.8591703500939e-06
  11    9.7420267521052e-09
  12    -3.8847983518538e-07
  13    4.2101735529772e-07
  14    2.3436201886041e-08
  15    -3.6281995264651e-06
  16    -5.0127415103164e-05
  17    -1.8268167948787e-08
  18    5.1112067828156e-07
  19    -1.5701872347976e-05
  20    -1.7069082208584e-06
  21    2.1414280318344e-05
  22    8.1845414695294e-08
  23    -2.8609864893998e-06
  24    6.6555242301705e-07
  25       1.0013561607226
  26    0.0019389509822942
  27    -0.0067491632292477
  28    -3.8456370934772e-06
  29    6.8934287369462e-06
  30    -0.001661845289881
  31    -2.046309901768e-06
  32    -2.5633409111458e-07
  33    0.0018028618197282
  34    0.00013208902695424
  35    -3.0883199514123e-06
  36    1.3181966246155e-06
  37    6.7684457573847e-05
  38    -0.0001767890273259
  39    0.00027834008720456
  40    0.00036358839749577
  41    0.0013903514041219
  42    1.5753626489969e-05
  43    -9.5605012168457e-06
  44    -1.550528261073e-05
  45    8.1292205230009e-05
  46    -6.308010207268e-05
  47      0.00351646703365
  48    -0.00054766353003789
  49    -6.4087806784182e-06
  50    7.1928245978458e-07
  51    2.795511047804e-05
  52    -0.00011341644039579
  53    0.00076333738670997
  54    -8.1151064302749e-05
  55    0.0013855128136554
  56    0.00012090768418779
  57    -6.5542995573595e-05
  58    7.1126860713532e-06
  59    -0.00040684860168987
  60    0.00043914996584136
  61    -0.00088792237538077
  62    -0.00011492501017249
  63    0.00015376168113757
  64    -0.00014849677919025
  65    5.4496375741543e-05
  66    -0.00013171532911717
  67    0.0008511201052658
  68    4.2962079327441e-05
  69    0.00057094431927896
  70    -8.5671386945156e-05
  71    0.00011153206264646
  72    -9.354796324236e-05
  73    0.00099659332461536
  74    -0.00073887594292369
  75    -0.0006495450083157
  76    -0.0001443196263922
  77    -0.00012188806443739
  78    9.1167672954733e-05
  79    5.8415074078398e-05
  80    -0.00015372422209884
  81    5.1112062790788e-05
  82    0.00024493479492006
  83    5.9704614758025e-05
  84    -4.4976521000887e-05
  85    4.2586135170117e-05
  86    -3.9816867949106e-05
  87    0.00015869590346949
  88    -0.00051957165911235
  89    -5.2054774896208e-05
  90    1.536457625404e-05
  91    -5.8348527687109e-05
  92    0.00023948346765763
  93    0.0006345072576842
  94    -5.3306674206332e-05
  95    1.8766813098248e-05
  96    1.7078449074921e-05
  97    2.8049052464824e-06
  98    -2.3059085089789e-05
  99    -4.951519470207e-05
 100    1.1790297399365e-06
 101    -0.00015609998295628
 102    1.3461767113465e-05
 103    -7.7991195454912e-06
 104    7.8256692562639e-05
 105    3.8978613195937e-05
 106    -0.0001951574842094
 107    -6.3049302581103e-05
 108    1.823986811382e-05
 109    7.8847459709129e-05
 110    0.00018944625192333
 111    -4.2329359834984e-05
 112    -5.1709841717355e-05
 113    9.0183661312049e-06
 114    7.4019770158249e-05
 115    0.00032471246748043
 116    -0.00011110224777328
 117    0.00085507737917922
 118    3.5873298054327e-05
 119    5.7621174236092e-05
 120    -9.2755904270487e-05
 121    0.00033010949857585
 122    5.9680027533942e-05
 123    -0.00019350345873462
 124    -4.6110811898447e-07
 125    9.1728532923063e-06
 126    2.016740913092e-05
 127    -2.3890496579292e-05
 128    4.4715728425462e-05
 129    1.620679666197e-05
 130    -0.00031894116180497
 131    4.2235878384852e-06
 132    2.7628186489913e-06
 133    2.3544552924476e-05
 134    0.0001668379889809
 135    -6.3416035842768e-05
 136    -5.5451851963307e-06
 137    -2.7883223180798e-05
 138    -1.8083696944058e-05
 139    9.7679840558197e-06
 140    -5.3960399790651e-05
 141    0.0002521714859383
 142    -4.8325024357418e-05
 143    -5.4248779556526e-05
 144    5.6208813799096e-05
 145    -0.00025687479520659
 146    1.8843487935893e-05
 147    9.8252981409245e-05
 148    -6.3481539072366e-06
 149    6.1521517623216e-06
 150    2.7017949974537e-06
 151    1.5091289442313e-05
 152    -1.3955366482705e-05
 153    -0.00012294813414363
 154    -0.00011539849449055
 155    -2.3648987754803e-05
 156    3.4761891315291e-05
 157    2.0302885654631e-05
 158    -0.0001511615557241
 159    -0.00013668575285388
 160    -6.3342192889593e-05
 161    -1.4267054744394e-05
 162    8.7270110456673e-06
 163    -8.2234195738443e-05
 164    -6.2731145976721e-05
 165    -0.00028723885461794
 166    6.5985971376907e-05
 167    -9.041671942097e-05
 168    -4.1221165018806e-05
 169    0.00027888491545651
 170    -0.0002640684703859
 171    -0.00015879911005714
 172    -2.5697800728531e-06
 173    1.8473545673665e-05
 174    -9.9493704171699e-06
 175    3.6485857685901e-06
 176    -1.7409280556221e-05
 177    6.4996889127972e-06
 178    0.0001021579551815
 179    -2.5402331015305e-06
 180    1.0714857567128e-06
 181    -4.3948577518098e-06
 182    1.2801929964539e-05
 183    2.1327443563391e-07
 184    -8.5448053561801e-05
 185    6.426330388868e-05
 186    3.2413805077581e-05
 187    -6.1169805856533e-05
 188    0.00015455634472762
 189    -8.6400173511383e-05
 190    -0.00011113299356384
 191    -5.3308382009923e-07
 192    4.512212203041e-06
 193    -2.8375460844714e-06
 194    -2.5315368880695e-06
 195    -9.9159093078198e-06
 196    5.6552212912071e-06
 197    -1.1007839176691e-05
 198    5.7412910061747e-06
 199    1.8969069867216e-06
 200    -1.5925818483034e-06
 201    2.4091551492632e-05
 202    3.3045602219117e-05
 203    -1.1166792816022e-05
 204    8.152778208217e-06
 205    1.2303469707296e-05
 206    -5.051476259968e-05
 207    4.1062776990538e-05
 208    -1.2635437065465e-05
 209    6.032126694541e-06
 210    1.1867078229266e-05
 211    -1.6233630765895e-05
 212    -6.7221317300254e-05
 213    0.00023116156326556
 214    -6.0340908249898e-05
 215    2.870601242459e-05
 216    0.00010134362765961
 217    0.00017410549184325
 218    -4.61750257589e-05
 219    -2.3505268756806e-05
 220    -1.3005584351735e-06
 221    -7.6313073915711e-06
 222    6.029705484506e-06
 223    2.4513578231803e-06
 224    3.3294103072148e-06
 225    2.8468859252125e-05
 226    6.0528818920395e-05
 227    -1.0122726600239e-05
 228    -8.3932559357831e-07
 229    -2.6002758341821e-06
 230    1.0146391078665e-05
 231    6.0671876042474e-05
 232    -2.6482134354603e-06
 233    7.2279430601884e-06
 234    9.7669791326905e-06
 235    3.4449954854433e-06
 236    9.2165587721382e-06
 237    -6.0759652765928e-05
 238    -3.9045688611439e-05
 239    8.5377907441666e-06
 240    3.0753470620308e-05
 241    8.2478203190655e-06
 242    -5.999746695209e-05
 243    4.0609137644356e-05
 244    2.0153073381366e-07
 245    2.9086554073109e-06
 246    8.1871608527273e-07
 247    -5.5940056221527e-07
 248    -3.0378917019272e-06
 249    3.7442180372276e-05
 250    4.9537797027262e-05
 251    -7.4126172327601e-06
 252    -2.3849977319934e-06
 253    -9.0907259853993e-07
 254    8.6643339058628e-06
 255    6.6392933227861e-05
 256    -1.1164773201419e-06
 257    7.2686156478839e-06
 258    8.2188391201628e-07
 259    -5.2497414393011e-06
 260    -2.538450890175e-05
 261    8.7860441034955e-05
 262    2.4890131141915e-06
 263    6.4263767736272e-06