[Molden Format]
made by pyscf v[2.0.1]
[Atoms] (AU)
O   1   8     0.00000000000000     0.00000000000000     6.78435311142442
H   2   1     0.00000000000000     0.00000000000000     4.96095128952346
H   3   1    -0.05031916615174     1.78353065140343     7.16022480789109
O   4   8     0.00000000000000     0.00000000000000     2.31533471513237
C   5   6     0.00000000000000     0.00000000000000     0.00000000000000
C   6   6     2.01118073026938    -1.40227222164369    -1.50774939176400
C   7   6    -2.01249334291722     1.41331050329955    -1.50315905028694
H   8   1     3.32037363730244    -2.26721897153159    -0.13599698591495
C   9   6     3.45899267434009     0.28739631745591    -3.37437943254505
H   10   1     1.07662969841332    -2.94725144642667    -2.56541439481080
H   11   1    -2.67503415753480     0.18421555839588    -3.06194479365997
H   12   1    -1.07974048864772     3.03851734677796    -2.43674295017013
C   13   6    -4.21607110578555     2.32938802552922     0.11994162256091
H   14   1     4.24440173074564     1.93368664142019    -2.34976285512790
H   15   1     2.15020713235517     1.04714335134846    -4.81494497423699
C   16   6     5.60746363007797    -1.12419643481196    -4.70268606082550
H   17   1    -3.46838323670267     3.50951302338067     1.66946842715333
H   18   1    -5.11873485366228     0.68575958301209     1.04047743976495
C   19   6    -6.18314754751344     3.80909592987882    -1.39656589068747
H   20   1     6.93011263717176    -1.87550812453645    -3.26656317360070
C   21   6     7.06356622236532     0.52877932406334    -6.57829775293605
H   22   1     4.82318879258361    -2.78573437948532    -5.70504560381835
H   23   1    -6.91582688743803     2.61304780074712    -2.95074552451969
H   24   1    -5.26532430573853     5.45420349051338    -2.31005832200284
C   25   6    -8.39941882261433     4.73263980500213     0.21800571437956
H   26   1     7.83338371486801     2.19084139882824    -5.57093109900697
H   27   1     5.73544244039420     1.27376866537418    -8.01071492370229
C   28   6     9.21124858443101    -0.89699110072176    -7.88926949186242
H   29   1    -7.66272760055236     5.92277078003992     1.77035591474408
H   30   1    -9.31497248082589     3.08753015622020     1.12614408368786
C   31   6   -10.35481709231879     6.21833079391143    -1.30905206253246
H   32   1    10.58815905329501    -1.61074586756696    -6.49512691622620
H   33   1    10.23506248045667     0.32468009384095    -9.23072870921204
H   34   1     8.47665842847139    -2.53598436989925    -8.94921964622535
H   35   1    -9.48948872868064     7.90013588951020    -2.18823918416067
H   36   1   -11.93332513000955     6.86460487874102    -0.11255798845995
H   37   1   -11.15126291841033     5.04495968327630    -2.83849898862534
[GTO]
1 0
 s    8 1.00
                 11720  0.00070964594651845
                  1759  0.0054672722921914
                 400.8   0.027823118610189
                 113.7    0.10474773971146
                 37.03    0.28292084635691
                 13.27    0.44849523869833
                 5.025    0.27081688521277
                 1.013    0.01545029160744
 s    8 1.00
                 11720  -0.00031444341168873
                  1759  -0.0024821376810179
                 400.8  -0.012316355381583
                 113.7  -0.050538917343672
                 37.03   -0.13938490331632
                 13.27   -0.32507749481778
                 5.025   -0.22984830758785
                 1.013     1.0953793467883
 s    1 1.00
                0.3023                   1
 p    3 1.00
                  17.7   0.062679166281506
                 3.854    0.33353656587936
                 1.046    0.74123964163973
 p    1 1.00
                0.2753                   1
 d    1 1.00
                 1.185                   1

2 0
 s    3 1.00
                 13.01   0.033498726389998
                 1.962    0.23480080117413
                0.4446     0.8136829578829
 s    1 1.00
                 0.122                   1
 p    1 1.00
                 0.727                   1

3 0
 s    3 1.00
                 13.01   0.033498726389998
                 1.962    0.23480080117413
                0.4446     0.8136829578829
 s    1 1.00
                 0.122                   1
 p    1 1.00
                 0.727                   1

4 0
 s    8 1.00
                 11720  0.00070964594651845
                  1759  0.0054672722921914
                 400.8   0.027823118610189
                 113.7    0.10474773971146
                 37.03    0.28292084635691
                 13.27    0.44849523869833
                 5.025    0.27081688521277
                 1.013    0.01545029160744
 s    8 1.00
                 11720  -0.00031444341168873
                  1759  -0.0024821376810179
                 400.8  -0.012316355381583
                 113.7  -0.050538917343672
                 37.03   -0.13938490331632
                 13.27   -0.32507749481778
                 5.025   -0.22984830758785
                 1.013     1.0953793467883
 s    1 1.00
                0.3023                   1
 p    3 1.00
                  17.7   0.062679166281506
                 3.854    0.33353656587936
                 1.046    0.74123964163973
 p    1 1.00
                0.2753                   1
 d    1 1.00
                 1.185                   1

5 0
 s    8 1.00
                  6665  0.00069158396281299
                  1000  0.0053257961529341
                   228   0.027060721042034
                 64.71    0.10165684614077
                 21.06     0.2745748236174
                 7.495    0.44829431892377
                 2.797    0.28490261071525
                0.5215   0.015194859206082
 s    8 1.00
                  6665  -0.00029326965268655
                  1000  -0.0023180354739745
                   228  -0.011499786038565
                 64.71  -0.046826727009787
                 21.06   -0.12846616875047
                 7.495   -0.30126627246289
                 2.797   -0.25563070233011
                0.5215      1.093793361012
 s    1 1.00
                0.1596                   1
 p    3 1.00
                 9.439   0.056979251590039
                 2.002    0.31320721150073
                0.5456    0.76037674173753
 p    1 1.00
                0.1517                   1
 d    1 1.00
                  0.55                   1

6 0
 s    8 1.00
                  6665  0.00069158396281299
                  1000  0.0053257961529341
                   228   0.027060721042034
                 64.71    0.10165684614077
                 21.06     0.2745748236174
                 7.495    0.44829431892377
                 2.797    0.28490261071525
                0.5215   0.015194859206082
 s    8 1.00
                  6665  -0.00029326965268655
                  1000  -0.0023180354739745
                   228  -0.011499786038565
                 64.71  -0.046826727009787
                 21.06   -0.12846616875047
                 7.495   -0.30126627246289
                 2.797   -0.25563070233011
                0.5215      1.093793361012
 s    1 1.00
                0.1596                   1
 p    3 1.00
                 9.439   0.056979251590039
                 2.002    0.31320721150073
                0.5456    0.76037674173753
 p    1 1.00
                0.1517                   1
 d    1 1.00
                  0.55                   1

7 0
 s    8 1.00
                  6665  0.00069158396281299
                  1000  0.0053257961529341
                   228   0.027060721042034
                 64.71    0.10165684614077
                 21.06     0.2745748236174
                 7.495    0.44829431892377
                 2.797    0.28490261071525
                0.5215   0.015194859206082
 s    8 1.00
                  6665  -0.00029326965268655
                  1000  -0.0023180354739745
                   228  -0.011499786038565
                 64.71  -0.046826727009787
                 21.06   -0.12846616875047
                 7.495   -0.30126627246289
                 2.797   -0.25563070233011
                0.5215      1.093793361012
 s    1 1.00
                0.1596                   1
 p    3 1.00
                 9.439   0.056979251590039
                 2.002    0.31320721150073
                0.5456    0.76037674173753
 p    1 1.00
                0.1517                   1
 d    1 1.00
                  0.55                   1

8 0
 s    3 1.00
                 13.01   0.033498726389998
                 1.962    0.23480080117413
                0.4446     0.8136829578829
 s    1 1.00
                 0.122                   1
 p    1 1.00
                 0.727                   1

9 0
 s    8 1.00
                  6665  0.00069158396281299
                  1000  0.0053257961529341
                   228   0.027060721042034
                 64.71    0.10165684614077
                 21.06     0.2745748236174
                 7.495    0.44829431892377
                 2.797    0.28490261071525
                0.5215   0.015194859206082
 s    8 1.00
                  6665  -0.00029326965268655
                  1000  -0.0023180354739745
                   228  -0.011499786038565
                 64.71  -0.046826727009787
                 21.06   -0.12846616875047
                 7.495   -0.30126627246289
                 2.797   -0.25563070233011
                0.5215      1.093793361012
 s    1 1.00
                0.1596                   1
 p    3 1.00
                 9.439   0.056979251590039
                 2.002    0.31320721150073
                0.5456    0.76037674173753
 p    1 1.00
                0.1517                   1
 d    1 1.00
                  0.55                   1

10 0
 s    3 1.00
                 13.01   0.033498726389998
                 1.962    0.23480080117413
                0.4446     0.8136829578829
 s    1 1.00
                 0.122                   1
 p    1 1.00
                 0.727                   1

11 0
 s    3 1.00
                 13.01   0.033498726389998
                 1.962    0.23480080117413
                0.4446     0.8136829578829
 s    1 1.00
                 0.122                   1
 p    1 1.00
                 0.727                   1

12 0
 s    3 1.00
                 13.01   0.033498726389998
                 1.962    0.23480080117413
                0.4446     0.8136829578829
 s    1 1.00
                 0.122                   1
 p    1 1.00
                 0.727                   1

13 0
 s    8 1.00
                  6665  0.00069158396281299
                  1000  0.0053257961529341
                   228   0.027060721042034
                 64.71    0.10165684614077
                 21.06     0.2745748236174
                 7.495    0.44829431892377
                 2.797    0.28490261071525
                0.5215   0.015194859206082
 s    8 1.00
                  6665  -0.00029326965268655
                  1000  -0.0023180354739745
                   228  -0.011499786038565
                 64.71  -0.046826727009787
                 21.06   -0.12846616875047
                 7.495   -0.30126627246289
                 2.797   -0.25563070233011
                0.5215      1.093793361012
 s    1 1.00
                0.1596                   1
 p    3 1.00
                 9.439   0.056979251590039
                 2.002    0.31320721150073
                0.5456    0.76037674173753
 p    1 1.00
                0.1517                   1
 d    1 1.00
                  0.55                   1

14 0
 s    3 1.00
                 13.01   0.033498726389998
                 1.962    0.23480080117413
                0.4446     0.8136829578829
 s    1 1.00
                 0.122                   1
 p    1 1.00
                 0.727                   1

15 0
 s    3 1.00
                 13.01   0.033498726389998
                 1.962    0.23480080117413
                0.4446     0.8136829578829
 s    1 1.00
                 0.122                   1
 p    1 1.00
                 0.727                   1

16 0
 s    8 1.00
                  6665  0.00069158396281299
                  1000  0.0053257961529341
                   228   0.027060721042034
                 64.71    0.10165684614077
                 21.06     0.2745748236174
                 7.495    0.44829431892377
                 2.797    0.28490261071525
                0.5215   0.015194859206082
 s    8 1.00
                  6665  -0.00029326965268655
                  1000  -0.0023180354739745
                   228  -0.011499786038565
                 64.71  -0.046826727009787
                 21.06   -0.12846616875047
                 7.495   -0.30126627246289
                 2.797   -0.25563070233011
                0.5215      1.093793361012
 s    1 1.00
                0.1596                   1
 p    3 1.00
                 9.439   0.056979251590039
                 2.002    0.31320721150073
                0.5456    0.76037674173753
 p    1 1.00
                0.1517                   1
 d    1 1.00
                  0.55                   1

17 0
 s    3 1.00
                 13.01   0.033498726389998
                 1.962    0.23480080117413
                0.4446     0.8136829578829
 s    1 1.00
                 0.122                   1
 p    1 1.00
                 0.727                   1

18 0
 s    3 1.00
                 13.01   0.033498726389998
                 1.962    0.23480080117413
                0.4446     0.8136829578829
 s    1 1.00
                 0.122                   1
 p    1 1.00
                 0.727                   1

19 0
 s    8 1.00
                  6665  0.00069158396281299
                  1000  0.0053257961529341
                   228   0.027060721042034
                 64.71    0.10165684614077
                 21.06     0.2745748236174
                 7.495    0.44829431892377
                 2.797    0.28490261071525
                0.5215   0.015194859206082
 s    8 1.00
                  6665  -0.00029326965268655
                  1000  -0.0023180354739745
                   228  -0.011499786038565
                 64.71  -0.046826727009787
                 21.06   -0.12846616875047
                 7.495   -0.30126627246289
                 2.797   -0.25563070233011
                0.5215      1.093793361012
 s    1 1.00
                0.1596                   1
 p    3 1.00
                 9.439   0.056979251590039
                 2.002    0.31320721150073
                0.5456    0.76037674173753
 p    1 1.00
                0.1517                   1
 d    1 1.00
                  0.55                   1

20 0
 s    3 1.00
                 13.01   0.033498726389998
                 1.962    0.23480080117413
                0.4446     0.8136829578829
 s    1 1.00
                 0.122                   1
 p    1 1.00
                 0.727                   1

21 0
 s    8 1.00
                  6665  0.00069158396281299
                  1000  0.0053257961529341
                   228   0.027060721042034
                 64.71    0.10165684614077
                 21.06     0.2745748236174
                 7.495    0.44829431892377
                 2.797    0.28490261071525
                0.5215   0.015194859206082
 s    8 1.00
                  6665  -0.00029326965268655
                  1000  -0.0023180354739745
                   228  -0.011499786038565
                 64.71  -0.046826727009787
                 21.06   -0.12846616875047
                 7.495   -0.30126627246289
                 2.797   -0.25563070233011
                0.5215      1.093793361012
 s    1 1.00
                0.1596                   1
 p    3 1.00
                 9.439   0.056979251590039
                 2.002    0.31320721150073
                0.5456    0.76037674173753
 p    1 1.00
                0.1517                   1
 d    1 1.00
                  0.55                   1

22 0
 s    3 1.00
                 13.01   0.033498726389998
                 1.962    0.23480080117413
                0.4446     0.8136829578829
 s    1 1.00
                 0.122                   1
 p    1 1.00
                 0.727                   1

23 0
 s    3 1.00
                 13.01   0.033498726389998
                 1.962    0.23480080117413
                0.4446     0.8136829578829
 s    1 1.00
                 0.122                   1
 p    1 1.00
                 0.727                   1

24 0
 s    3 1.00
                 13.01   0.033498726389998
                 1.962    0.23480080117413
                0.4446     0.8136829578829
 s    1 1.00
                 0.122                   1
 p    1 1.00
                 0.727                   1

25 0
 s    8 1.00
                  6665  0.00069158396281299
                  1000  0.0053257961529341
                   228   0.027060721042034
                 64.71    0.10165684614077
                 21.06     0.2745748236174
                 7.495    0.44829431892377
                 2.797    0.28490261071525
                0.5215   0.015194859206082
 s    8 1.00
                  6665  -0.00029326965268655
                  1000  -0.0023180354739745
                   228  -0.011499786038565
                 64.71  -0.046826727009787
                 21.06   -0.12846616875047
                 7.495   -0.30126627246289
                 2.797   -0.25563070233011
                0.5215      1.093793361012
 s    1 1.00
                0.1596                   1
 p    3 1.00
                 9.439   0.056979251590039
                 2.002    0.31320721150073
                0.5456    0.76037674173753
 p    1 1.00
                0.1517                   1
 d    1 1.00
                  0.55                   1

26 0
 s    3 1.00
                 13.01   0.033498726389998
                 1.962    0.23480080117413
                0.4446     0.8136829578829
 s    1 1.00
                 0.122                   1
 p    1 1.00
                 0.727                   1

27 0
 s    3 1.00
                 13.01   0.033498726389998
                 1.962    0.23480080117413
                0.4446     0.8136829578829
 s    1 1.00
                 0.122                   1
 p    1 1.00
                 0.727                   1

28 0
 s    8 1.00
                  6665  0.00069158396281299
                  1000  0.0053257961529341
                   228   0.027060721042034
                 64.71    0.10165684614077
                 21.06     0.2745748236174
                 7.495    0.44829431892377
                 2.797    0.28490261071525
                0.5215   0.015194859206082
 s    8 1.00
                  6665  -0.00029326965268655
                  1000  -0.0023180354739745
                   228  -0.011499786038565
                 64.71  -0.046826727009787
                 21.06   -0.12846616875047
                 7.495   -0.30126627246289
                 2.797   -0.25563070233011
                0.5215      1.093793361012
 s    1 1.00
                0.1596                   1
 p    3 1.00
                 9.439   0.056979251590039
                 2.002    0.31320721150073
                0.5456    0.76037674173753
 p    1 1.00
                0.1517                   1
 d    1 1.00
                  0.55                   1

29 0
 s    3 1.00
                 13.01   0.033498726389998
                 1.962    0.23480080117413
                0.4446     0.8136829578829
 s    1 1.00
                 0.122                   1
 p    1 1.00
                 0.727                   1

30 0
 s    3 1.00
                 13.01   0.033498726389998
                 1.962    0.23480080117413
                0.4446     0.8136829578829
 s    1 1.00
                 0.122                   1
 p    1 1.00
                 0.727                   1

31 0
 s    8 1.00
                  6665  0.00069158396281299
                  1000  0.0053257961529341
                   228   0.027060721042034
                 64.71    0.10165684614077
                 21.06     0.2745748236174
                 7.495    0.44829431892377
                 2.797    0.28490261071525
                0.5215   0.015194859206082
 s    8 1.00
                  6665  -0.00029326965268655
                  1000  -0.0023180354739745
                   228  -0.011499786038565
                 64.71  -0.046826727009787
                 21.06   -0.12846616875047
                 7.495   -0.30126627246289
                 2.797   -0.25563070233011
                0.5215      1.093793361012
 s    1 1.00
                0.1596                   1
 p    3 1.00
                 9.439   0.056979251590039
                 2.002    0.31320721150073
                0.5456    0.76037674173753
 p    1 1.00
                0.1517                   1
 d    1 1.00
                  0.55                   1

32 0
 s    3 1.00
                 13.01   0.033498726389998
                 1.962    0.23480080117413
                0.4446     0.8136829578829
 s    1 1.00
                 0.122                   1
 p    1 1.00
                 0.727                   1

33 0
 s    3 1.00
                 13.01   0.033498726389998
                 1.962    0.23480080117413
                0.4446     0.8136829578829
 s    1 1.00
                 0.122                   1
 p    1 1.00
                 0.727                   1

34 0
 s    3 1.00
                 13.01   0.033498726389998
                 1.962    0.23480080117413
                0.4446     0.8136829578829
 s    1 1.00
                 0.122                   1
 p    1 1.00
                 0.727                   1

35 0
 s    3 1.00
                 13.01   0.033498726389998
                 1.962    0.23480080117413
                0.4446     0.8136829578829
 s    1 1.00
                 0.122                   1
 p    1 1.00
                 0.727                   1

36 0
 s    3 1.00
                 13.01   0.033498726389998
                 1.962    0.23480080117413
                0.4446     0.8136829578829
 s    1 1.00
                 0.122                   1
 p    1 1.00
                 0.727                   1

37 0
 s    3 1.00
                 13.01   0.033498726389998
                 1.962    0.23480080117413
                0.4446     0.8136829578829
 s    1 1.00
                 0.122                   1
 p    1 1.00
                 0.727                   1

[5d]
[7f]
[9g]

[MO]
 Sym= A
 Ene=               0
 Spin= Alpha
 Occup=    1.00000
   1    0.00011261790305481
   2    2.2504661088078e-06
   3    0.00013073787297899
   4    -1.2177024915698e-06
   5    -3.4477434306149e-07
   6    -5.2932339198568e-05
   7    2.0423523932247e-06
   8    1.4101422027924e-05
   9    -0.00013812388685354
  10    6.1603089273427e-05
  11    3.5488913442128e-07
  12    -2.8500504167141e-06
  13    -4.6183979143816e-06
  14    -2.292263731986e-07
  15    -4.6297863533801e-05
  16    0.00012095934783247
  17    1.4293187004762e-06
  18    -4.9416163509164e-06
  19    -0.00016302176864702
  20    -2.8158967274896e-05
  21    1.0995458779779e-05
  22    -3.2319300308977e-07
  23    -6.0975560657793e-06
  24    9.9828001573652e-06
  25      -1.0014118386436
  26    -0.0021192021843044
  27    0.0070252306524747
  28    5.2451352757352e-06
  29    -1.6673151101459e-05
  30    0.0015705701656533
  31    -3.1116481816924e-07
  32    3.5263548383548e-06
  33    -0.0021233792314509
  34    -0.00014026513821356
  35    2.8800966776937e-06
  36    -1.2471061740795e-06
  37    -6.1827990978794e-05
  38    0.00016216638908569
  39    -0.00031754635376343
  40    -0.00041690207951343
  41    -0.0017316709735355
  42    -1.6528712282279e-05
  43    8.930423745252e-06
  44    -5.9663831049756e-05
  45    -8.5481389561715e-05
  46    7.2797212875684e-05
  47    -0.0037173622538616
  48    0.00050328546043562
  49    1.2563639279346e-05
  50    -6.2857879477968e-06
  51    -3.636640343157e-05
  52    0.00013831529279735
  53    -0.00022918042425961
  54    -0.00018162353949083
  55    -0.001564915708278
  56    -0.00014553517120196
  57    0.00011245287935013
  58    0.00010648640182438
  59    0.00037187253675804
  60    -0.00041219579202483
  61    0.0010429335457265
  62    0.00011666221824269
  63    -0.00016128609066364
  64    0.00015142825464372
  65    -4.6556682419567e-05
  66    0.00011277089494978
  67    -0.00034939624400287
  68    -0.00032632364918448
  69    -0.00073748320100599
  70    0.00030110214513444
  71    -0.00024630183455949
  72    -1.2990469967563e-06
  73    -0.00089260623722629
  74    0.00066975601693715
  75    0.00064214997985833
  76    0.00014780386850856
  77    0.00014020017038947
  78    -9.5424005731329e-05
  79    -6.8266789813853e-05
  80    0.00015808386142667
  81    -0.00014092572761512
  82    -0.00024343688880345
  83    -5.2508791755846e-05
  84    4.2385471670235e-05
  85    -2.9592376010665e-05
  86    -6.9031269275539e-05
  87    -8.712968476652e-05
  88    0.00060246149609903
  89    0.00014717871809978
  90    -3.7960500021739e-05
  91    -0.00020769816637468
  92    -0.0001899153458441
  93    -0.00068057310339355
  94    -9.0085254283952e-05
  95    -2.0844052831858e-05
  96    -9.7426079207447e-06
  97    7.8618698452972e-06
  98    2.8341108165358e-05
  99    2.7070978698208e-05
 100    -0.00021617928544928
 101    0.00010572698703446
 102    -1.9273901307903e-05
 103    -8.3424708817364e-06
 104    -9.1251516231874e-05
 105    -8.8919681607453e-05
 106    0.00023375605988984
 107    5.9913205969043e-05
 108    -2.1881155872741e-05
 109    -9.2143516221555e-05
 110    -0.00029282450044008
 111    6.9330966346018e-05
 112    5.9239353965933e-05
 113    -2.8906197959714e-06
 114    -8.5158853366238e-05
 115    -0.00038545257916017
 116    -5.3535235019508e-05
 117    -0.0010249644005432
 118    -0.00011747884278245
 119    -1.4579643188025e-05
 120    0.00045325932041273
 121    -0.00034185689029881
 122    -5.6854486282703e-05
 123    0.00040507654298176
 124    5.3310764235699e-06
 125    1.5301586317588e-05
 126    -1.7356123468853e-05
 127    6.6909187619282e-06
 128    -1.9433492307023e-05
 129    -9.1224321815645e-05
 130    0.00029455877537365
 131    -1.9832193141147e-06
 132    1.617714050996e-07
 133    -2.8298579352401e-05
 134    -1.6395084037454e-05
 135     0.000102980019939
 136    1.5910350679175e-05
 137    2.2838880219017e-05
 138    2.0685619858421e-05
 139    -4.3394519502024e-06
 140    7.9881586219471e-05
 141    -0.0002533951664293
 142    -0.00015679383400499
 143    6.6775830258446e-05
 144    7.7287997348794e-05
 145    0.0001360022760713
 146    -3.0549399119863e-05
 147    -1.6073043344587e-05
 148    -2.734688107205e-06
 149    -8.468260854522e-06
 150    9.8524142347579e-06
 151    -8.3670153766953e-06
 152    -3.2249822392362e-06
 153    0.00029440135740053
 154    0.0002000140741111
 155    1.9210263338881e-05
 156    -3.6759102571143e-05
 157    -2.027803705789e-05
 158    0.00021434218769142
 159    0.00018337146156181
 160    6.3380718954531e-05
 161    1.8848268571786e-05
 162    -3.394778638716e-06
 163    2.1196290145355e-05
 164    9.9238867610924e-06
 165    0.00030517505650775
 166    -0.00012974523056206
 167    0.00010459534964058
 168    -0.00017740834937932
 169    -0.00026655848185464
 170    0.00024924976395332
 171    5.6406127684269e-05
 172    1.6660188281567e-05
 173    -1.3283508808664e-05
 174     1.58387929978e-05
 175    -1.4817137105944e-05
 176    4.0068465891064e-05
 177    -2.2281295542995e-05
 178    -0.00010357190164404
 179    -3.4232624764078e-07
 180    -2.5973681318927e-07
 181    8.2142455606645e-06
 182    -1.9784504724611e-05
 183    -3.1747517874556e-05
 184    7.3087985222321e-05
 185    6.2565958260774e-05
 186    1.862715756487e-05
 187    -3.9455490882456e-05
 188    -7.9536273669193e-05
 189    0.00010785776770635
 190    6.7714246482158e-05
 191    -2.1803004633783e-06
 192    -5.9793224716487e-06
 193    1.4232153558858e-05
 194    7.245969332095e-06
 195    2.2216588332829e-06
 196    8.0424058502367e-07
 197    3.3202978128258e-06
 198    -8.5605412317637e-06
 199    1.2091727141552e-07
 200    4.8239616960171e-06
 201    0.00013712231383655
 202    7.2874221555552e-05
 203    1.4713350127538e-05
 204    -1.0854472069349e-06
 205    -7.9826803277251e-06
 206    0.00010722559695925
 207    -3.6443720169635e-06
 208    8.6042323994815e-06
 209    -9.1914415155979e-06
 210    -1.6137268118914e-05
 211    -2.0372111479664e-05
 212    1.5565531225494e-05
 213    -0.0002955446246352
 214    1.4817761215262e-05
 215    -1.0938996114244e-05
 216    -2.8415895487225e-06
 217    -0.00019699795914686
 218    5.1683865213962e-05
 219    7.7850085799617e-05
 220    9.9832572292186e-06
 221    7.8942170601598e-06
 222    -2.9662896417695e-06
 223    -9.9568805112072e-06
 224    5.6299971247178e-06
 225    -1.1186437355046e-05
 226    -5.6863046662236e-05
 227    1.3484210563907e-05
 228    2.0323000771137e-06
 229    -6.6903704992383e-07
 230    -2.2652991272261e-05
 231    -5.956930115247e-05
 232    5.1983034146205e-06
 233    -5.5078783626336e-06
 234    -1.3085659050661e-05
 235    -6.9814192246176e-06
 236    1.9377789712135e-05
 237    9.7731258247896e-05
 238    -4.1049138168313e-05
 239    1.1241558800499e-05
 240    3.174853773164e-05
 241    -5.9856694519346e-05
 242    6.2540379678467e-05
 243    7.0050529839176e-07
 244    -2.8722529847547e-06
 245    -1.4485439954204e-06
 246    4.5439570694693e-06
 247    -5.4432779918389e-07
 248    -3.6800964805651e-06
 249    1.2130512384962e-05
 250    -3.3570677272774e-06
 251    6.2829381176923e-06
 252    1.0322990484861e-06
 253    1.3971263530574e-06
 254    1.4968290232395e-05
 255    -4.9271162126172e-05
 256    2.0817209828471e-07
 257    -6.2440318283493e-06
 258    1.596971377773e-06
 259    1.3969671758984e-05
 260    1.3845354342736e-05
 261    -9.3816191185393e-05
 262    -3.138612401486e-05