[Molden Format]
made by pyscf v[2.0.1]
[Atoms] (AU)
O   1   8     0.00000000000000     0.00000000000000     9.80791491072852
H   2   1     0.00000000000000     0.00000000000000     7.98451308882755
H   3   1    -0.05031916615174     1.78353065140343    10.18378660719519
O   4   8     0.00000000000000     0.00000000000000     2.31533471513237
C   5   6     0.00000000000000     0.00000000000000     0.00000000000000
C   6   6     2.01118073026938    -1.40227222164369    -1.50774939176400
C   7   6    -2.01249334291722     1.41331050329955    -1.50315905028694
H   8   1     3.32037363730244    -2.26721897153159    -0.13599698591495
C   9   6     3.45899267434009     0.28739631745591    -3.37437943254505
H   10   1     1.07662969841332    -2.94725144642667    -2.56541439481080
H   11   1    -2.67503415753480     0.18421555839588    -3.06194479365997
H   12   1    -1.07974048864772     3.03851734677796    -2.43674295017013
C   13   6    -4.21607110578555     2.32938802552922     0.11994162256091
H   14   1     4.24440173074564     1.93368664142019    -2.34976285512790
H   15   1     2.15020713235517     1.04714335134846    -4.81494497423699
C   16   6     5.60746363007797    -1.12419643481196    -4.70268606082550
H   17   1    -3.46838323670267     3.50951302338067     1.66946842715333
H   18   1    -5.11873485366228     0.68575958301209     1.04047743976495
C   19   6    -6.18314754751344     3.80909592987882    -1.39656589068747
H   20   1     6.93011263717176    -1.87550812453645    -3.26656317360070
C   21   6     7.06356622236532     0.52877932406334    -6.57829775293605
H   22   1     4.82318879258361    -2.78573437948532    -5.70504560381835
H   23   1    -6.91582688743803     2.61304780074712    -2.95074552451969
H   24   1    -5.26532430573853     5.45420349051338    -2.31005832200284
C   25   6    -8.39941882261433     4.73263980500213     0.21800571437956
H   26   1     7.83338371486801     2.19084139882824    -5.57093109900697
H   27   1     5.73544244039420     1.27376866537418    -8.01071492370229
C   28   6     9.21124858443101    -0.89699110072176    -7.88926949186242
H   29   1    -7.66272760055236     5.92277078003992     1.77035591474408
H   30   1    -9.31497248082589     3.08753015622020     1.12614408368786
C   31   6   -10.35481709231879     6.21833079391143    -1.30905206253246
H   32   1    10.58815905329501    -1.61074586756696    -6.49512691622620
H   33   1    10.23506248045667     0.32468009384095    -9.23072870921204
H   34   1     8.47665842847139    -2.53598436989925    -8.94921964622535
H   35   1    -9.48948872868064     7.90013588951020    -2.18823918416067
H   36   1   -11.93332513000955     6.86460487874102    -0.11255798845995
H   37   1   -11.15126291841033     5.04495968327630    -2.83849898862534
[GTO]
1 0
 s    8 1.00
                 11720  0.00070964594651845
                  1759  0.0054672722921914
                 400.8   0.027823118610189
                 113.7    0.10474773971146
                 37.03    0.28292084635691
                 13.27    0.44849523869833
                 5.025    0.27081688521277
                 1.013    0.01545029160744
 s    8 1.00
                 11720  -0.00031444341168873
                  1759  -0.0024821376810179
                 400.8  -0.012316355381583
                 113.7  -0.050538917343672
                 37.03   -0.13938490331632
                 13.27   -0.32507749481778
                 5.025   -0.22984830758785
                 1.013     1.0953793467883
 s    1 1.00
                0.3023                   1
 p    3 1.00
                  17.7   0.062679166281506
                 3.854    0.33353656587936
                 1.046    0.74123964163973
 p    1 1.00
                0.2753                   1
 d    1 1.00
                 1.185                   1

2 0
 s    3 1.00
                 13.01   0.033498726389998
                 1.962    0.23480080117413
                0.4446     0.8136829578829
 s    1 1.00
                 0.122                   1
 p    1 1.00
                 0.727                   1

3 0
 s    3 1.00
                 13.01   0.033498726389998
                 1.962    0.23480080117413
                0.4446     0.8136829578829
 s    1 1.00
                 0.122                   1
 p    1 1.00
                 0.727                   1

4 0
 s    8 1.00
                 11720  0.00070964594651845
                  1759  0.0054672722921914
                 400.8   0.027823118610189
                 113.7    0.10474773971146
                 37.03    0.28292084635691
                 13.27    0.44849523869833
                 5.025    0.27081688521277
                 1.013    0.01545029160744
 s    8 1.00
                 11720  -0.00031444341168873
                  1759  -0.0024821376810179
                 400.8  -0.012316355381583
                 113.7  -0.050538917343672
                 37.03   -0.13938490331632
                 13.27   -0.32507749481778
                 5.025   -0.22984830758785
                 1.013     1.0953793467883
 s    1 1.00
                0.3023                   1
 p    3 1.00
                  17.7   0.062679166281506
                 3.854    0.33353656587936
                 1.046    0.74123964163973
 p    1 1.00
                0.2753                   1
 d    1 1.00
                 1.185                   1

5 0
 s    8 1.00
                  6665  0.00069158396281299
                  1000  0.0053257961529341
                   228   0.027060721042034
                 64.71    0.10165684614077
                 21.06     0.2745748236174
                 7.495    0.44829431892377
                 2.797    0.28490261071525
                0.5215   0.015194859206082
 s    8 1.00
                  6665  -0.00029326965268655
                  1000  -0.0023180354739745
                   228  -0.011499786038565
                 64.71  -0.046826727009787
                 21.06   -0.12846616875047
                 7.495   -0.30126627246289
                 2.797   -0.25563070233011
                0.5215      1.093793361012
 s    1 1.00
                0.1596                   1
 p    3 1.00
                 9.439   0.056979251590039
                 2.002    0.31320721150073
                0.5456    0.76037674173753
 p    1 1.00
                0.1517                   1
 d    1 1.00
                  0.55                   1

6 0
 s    8 1.00
                  6665  0.00069158396281299
                  1000  0.0053257961529341
                   228   0.027060721042034
                 64.71    0.10165684614077
                 21.06     0.2745748236174
                 7.495    0.44829431892377
                 2.797    0.28490261071525
                0.5215   0.015194859206082
 s    8 1.00
                  6665  -0.00029326965268655
                  1000  -0.0023180354739745
                   228  -0.011499786038565
                 64.71  -0.046826727009787
                 21.06   -0.12846616875047
                 7.495   -0.30126627246289
                 2.797   -0.25563070233011
                0.5215      1.093793361012
 s    1 1.00
                0.1596                   1
 p    3 1.00
                 9.439   0.056979251590039
                 2.002    0.31320721150073
                0.5456    0.76037674173753
 p    1 1.00
                0.1517                   1
 d    1 1.00
                  0.55                   1

7 0
 s    8 1.00
                  6665  0.00069158396281299
                  1000  0.0053257961529341
                   228   0.027060721042034
                 64.71    0.10165684614077
                 21.06     0.2745748236174
                 7.495    0.44829431892377
                 2.797    0.28490261071525
                0.5215   0.015194859206082
 s    8 1.00
                  6665  -0.00029326965268655
                  1000  -0.0023180354739745
                   228  -0.011499786038565
                 64.71  -0.046826727009787
                 21.06   -0.12846616875047
                 7.495   -0.30126627246289
                 2.797   -0.25563070233011
                0.5215      1.093793361012
 s    1 1.00
                0.1596                   1
 p    3 1.00
                 9.439   0.056979251590039
                 2.002    0.31320721150073
                0.5456    0.76037674173753
 p    1 1.00
                0.1517                   1
 d    1 1.00
                  0.55                   1

8 0
 s    3 1.00
                 13.01   0.033498726389998
                 1.962    0.23480080117413
                0.4446     0.8136829578829
 s    1 1.00
                 0.122                   1
 p    1 1.00
                 0.727                   1

9 0
 s    8 1.00
                  6665  0.00069158396281299
                  1000  0.0053257961529341
                   228   0.027060721042034
                 64.71    0.10165684614077
                 21.06     0.2745748236174
                 7.495    0.44829431892377
                 2.797    0.28490261071525
                0.5215   0.015194859206082
 s    8 1.00
                  6665  -0.00029326965268655
                  1000  -0.0023180354739745
                   228  -0.011499786038565
                 64.71  -0.046826727009787
                 21.06   -0.12846616875047
                 7.495   -0.30126627246289
                 2.797   -0.25563070233011
                0.5215      1.093793361012
 s    1 1.00
                0.1596                   1
 p    3 1.00
                 9.439   0.056979251590039
                 2.002    0.31320721150073
                0.5456    0.76037674173753
 p    1 1.00
                0.1517                   1
 d    1 1.00
                  0.55                   1

10 0
 s    3 1.00
                 13.01   0.033498726389998
                 1.962    0.23480080117413
                0.4446     0.8136829578829
 s    1 1.00
                 0.122                   1
 p    1 1.00
                 0.727                   1

11 0
 s    3 1.00
                 13.01   0.033498726389998
                 1.962    0.23480080117413
                0.4446     0.8136829578829
 s    1 1.00
                 0.122                   1
 p    1 1.00
                 0.727                   1

12 0
 s    3 1.00
                 13.01   0.033498726389998
                 1.962    0.23480080117413
                0.4446     0.8136829578829
 s    1 1.00
                 0.122                   1
 p    1 1.00
                 0.727                   1

13 0
 s    8 1.00
                  6665  0.00069158396281299
                  1000  0.0053257961529341
                   228   0.027060721042034
                 64.71    0.10165684614077
                 21.06     0.2745748236174
                 7.495    0.44829431892377
                 2.797    0.28490261071525
                0.5215   0.015194859206082
 s    8 1.00
                  6665  -0.00029326965268655
                  1000  -0.0023180354739745
                   228  -0.011499786038565
                 64.71  -0.046826727009787
                 21.06   -0.12846616875047
                 7.495   -0.30126627246289
                 2.797   -0.25563070233011
                0.5215      1.093793361012
 s    1 1.00
                0.1596                   1
 p    3 1.00
                 9.439   0.056979251590039
                 2.002    0.31320721150073
                0.5456    0.76037674173753
 p    1 1.00
                0.1517                   1
 d    1 1.00
                  0.55                   1

14 0
 s    3 1.00
                 13.01   0.033498726389998
                 1.962    0.23480080117413
                0.4446     0.8136829578829
 s    1 1.00
                 0.122                   1
 p    1 1.00
                 0.727                   1

15 0
 s    3 1.00
                 13.01   0.033498726389998
                 1.962    0.23480080117413
                0.4446     0.8136829578829
 s    1 1.00
                 0.122                   1
 p    1 1.00
                 0.727                   1

16 0
 s    8 1.00
                  6665  0.00069158396281299
                  1000  0.0053257961529341
                   228   0.027060721042034
                 64.71    0.10165684614077
                 21.06     0.2745748236174
                 7.495    0.44829431892377
                 2.797    0.28490261071525
                0.5215   0.015194859206082
 s    8 1.00
                  6665  -0.00029326965268655
                  1000  -0.0023180354739745
                   228  -0.011499786038565
                 64.71  -0.046826727009787
                 21.06   -0.12846616875047
                 7.495   -0.30126627246289
                 2.797   -0.25563070233011
                0.5215      1.093793361012
 s    1 1.00
                0.1596                   1
 p    3 1.00
                 9.439   0.056979251590039
                 2.002    0.31320721150073
                0.5456    0.76037674173753
 p    1 1.00
                0.1517                   1
 d    1 1.00
                  0.55                   1

17 0
 s    3 1.00
                 13.01   0.033498726389998
                 1.962    0.23480080117413
                0.4446     0.8136829578829
 s    1 1.00
                 0.122                   1
 p    1 1.00
                 0.727                   1

18 0
 s    3 1.00
                 13.01   0.033498726389998
                 1.962    0.23480080117413
                0.4446     0.8136829578829
 s    1 1.00
                 0.122                   1
 p    1 1.00
                 0.727                   1

19 0
 s    8 1.00
                  6665  0.00069158396281299
                  1000  0.0053257961529341
                   228   0.027060721042034
                 64.71    0.10165684614077
                 21.06     0.2745748236174
                 7.495    0.44829431892377
                 2.797    0.28490261071525
                0.5215   0.015194859206082
 s    8 1.00
                  6665  -0.00029326965268655
                  1000  -0.0023180354739745
                   228  -0.011499786038565
                 64.71  -0.046826727009787
                 21.06   -0.12846616875047
                 7.495   -0.30126627246289
                 2.797   -0.25563070233011
                0.5215      1.093793361012
 s    1 1.00
                0.1596                   1
 p    3 1.00
                 9.439   0.056979251590039
                 2.002    0.31320721150073
                0.5456    0.76037674173753
 p    1 1.00
                0.1517                   1
 d    1 1.00
                  0.55                   1

20 0
 s    3 1.00
                 13.01   0.033498726389998
                 1.962    0.23480080117413
                0.4446     0.8136829578829
 s    1 1.00
                 0.122                   1
 p    1 1.00
                 0.727                   1

21 0
 s    8 1.00
                  6665  0.00069158396281299
                  1000  0.0053257961529341
                   228   0.027060721042034
                 64.71    0.10165684614077
                 21.06     0.2745748236174
                 7.495    0.44829431892377
                 2.797    0.28490261071525
                0.5215   0.015194859206082
 s    8 1.00
                  6665  -0.00029326965268655
                  1000  -0.0023180354739745
                   228  -0.011499786038565
                 64.71  -0.046826727009787
                 21.06   -0.12846616875047
                 7.495   -0.30126627246289
                 2.797   -0.25563070233011
                0.5215      1.093793361012
 s    1 1.00
                0.1596                   1
 p    3 1.00
                 9.439   0.056979251590039
                 2.002    0.31320721150073
                0.5456    0.76037674173753
 p    1 1.00
                0.1517                   1
 d    1 1.00
                  0.55                   1

22 0
 s    3 1.00
                 13.01   0.033498726389998
                 1.962    0.23480080117413
                0.4446     0.8136829578829
 s    1 1.00
                 0.122                   1
 p    1 1.00
                 0.727                   1

23 0
 s    3 1.00
                 13.01   0.033498726389998
                 1.962    0.23480080117413
                0.4446     0.8136829578829
 s    1 1.00
                 0.122                   1
 p    1 1.00
                 0.727                   1

24 0
 s    3 1.00
                 13.01   0.033498726389998
                 1.962    0.23480080117413
                0.4446     0.8136829578829
 s    1 1.00
                 0.122                   1
 p    1 1.00
                 0.727                   1

25 0
 s    8 1.00
                  6665  0.00069158396281299
                  1000  0.0053257961529341
                   228   0.027060721042034
                 64.71    0.10165684614077
                 21.06     0.2745748236174
                 7.495    0.44829431892377
                 2.797    0.28490261071525
                0.5215   0.015194859206082
 s    8 1.00
                  6665  -0.00029326965268655
                  1000  -0.0023180354739745
                   228  -0.011499786038565
                 64.71  -0.046826727009787
                 21.06   -0.12846616875047
                 7.495   -0.30126627246289
                 2.797   -0.25563070233011
                0.5215      1.093793361012
 s    1 1.00
                0.1596                   1
 p    3 1.00
                 9.439   0.056979251590039
                 2.002    0.31320721150073
                0.5456    0.76037674173753
 p    1 1.00
                0.1517                   1
 d    1 1.00
                  0.55                   1

26 0
 s    3 1.00
                 13.01   0.033498726389998
                 1.962    0.23480080117413
                0.4446     0.8136829578829
 s    1 1.00
                 0.122                   1
 p    1 1.00
                 0.727                   1

27 0
 s    3 1.00
                 13.01   0.033498726389998
                 1.962    0.23480080117413
                0.4446     0.8136829578829
 s    1 1.00
                 0.122                   1
 p    1 1.00
                 0.727                   1

28 0
 s    8 1.00
                  6665  0.00069158396281299
                  1000  0.0053257961529341
                   228   0.027060721042034
                 64.71    0.10165684614077
                 21.06     0.2745748236174
                 7.495    0.44829431892377
                 2.797    0.28490261071525
                0.5215   0.015194859206082
 s    8 1.00
                  6665  -0.00029326965268655
                  1000  -0.0023180354739745
                   228  -0.011499786038565
                 64.71  -0.046826727009787
                 21.06   -0.12846616875047
                 7.495   -0.30126627246289
                 2.797   -0.25563070233011
                0.5215      1.093793361012
 s    1 1.00
                0.1596                   1
 p    3 1.00
                 9.439   0.056979251590039
                 2.002    0.31320721150073
                0.5456    0.76037674173753
 p    1 1.00
                0.1517                   1
 d    1 1.00
                  0.55                   1

29 0
 s    3 1.00
                 13.01   0.033498726389998
                 1.962    0.23480080117413
                0.4446     0.8136829578829
 s    1 1.00
                 0.122                   1
 p    1 1.00
                 0.727                   1

30 0
 s    3 1.00
                 13.01   0.033498726389998
                 1.962    0.23480080117413
                0.4446     0.8136829578829
 s    1 1.00
                 0.122                   1
 p    1 1.00
                 0.727                   1

31 0
 s    8 1.00
                  6665  0.00069158396281299
                  1000  0.0053257961529341
                   228   0.027060721042034
                 64.71    0.10165684614077
                 21.06     0.2745748236174
                 7.495    0.44829431892377
                 2.797    0.28490261071525
                0.5215   0.015194859206082
 s    8 1.00
                  6665  -0.00029326965268655
                  1000  -0.0023180354739745
                   228  -0.011499786038565
                 64.71  -0.046826727009787
                 21.06   -0.12846616875047
                 7.495   -0.30126627246289
                 2.797   -0.25563070233011
                0.5215      1.093793361012
 s    1 1.00
                0.1596                   1
 p    3 1.00
                 9.439   0.056979251590039
                 2.002    0.31320721150073
                0.5456    0.76037674173753
 p    1 1.00
                0.1517                   1
 d    1 1.00
                  0.55                   1

32 0
 s    3 1.00
                 13.01   0.033498726389998
                 1.962    0.23480080117413
                0.4446     0.8136829578829
 s    1 1.00
                 0.122                   1
 p    1 1.00
                 0.727                   1

33 0
 s    3 1.00
                 13.01   0.033498726389998
                 1.962    0.23480080117413
                0.4446     0.8136829578829
 s    1 1.00
                 0.122                   1
 p    1 1.00
                 0.727                   1

34 0
 s    3 1.00
                 13.01   0.033498726389998
                 1.962    0.23480080117413
                0.4446     0.8136829578829
 s    1 1.00
                 0.122                   1
 p    1 1.00
                 0.727                   1

35 0
 s    3 1.00
                 13.01   0.033498726389998
                 1.962    0.23480080117413
                0.4446     0.8136829578829
 s    1 1.00
                 0.122                   1
 p    1 1.00
                 0.727                   1

36 0
 s    3 1.00
                 13.01   0.033498726389998
                 1.962    0.23480080117413
                0.4446     0.8136829578829
 s    1 1.00
                 0.122                   1
 p    1 1.00
                 0.727                   1

37 0
 s    3 1.00
                 13.01   0.033498726389998
                 1.962    0.23480080117413
                0.4446     0.8136829578829
 s    1 1.00
                 0.122                   1
 p    1 1.00
                 0.727                   1

[5d]
[7f]
[9g]

[MO]
 Sym= A
 Ene=               0
 Spin= Alpha
 Occup=    1.00000
   1    5.5491827863328e-05
   2    3.5758957993203e-05
   3    -0.00011917335352632
   4    9.520410391968e-08
   5    -4.779941254223e-06
   6    -3.9846768122029e-06
   7    -6.0440075909098e-07
   8    2.328975508771e-05
   9    8.1631704557507e-05
  10    -1.277250643974e-05
  11    4.1396074193395e-10
  12    7.8468017501238e-07
  13    -4.1048593640496e-07
  14    -1.7927282434033e-08
  15    1.5466409622108e-05
  16    0.00017323195766039
  17    1.136848605974e-07
  18    -1.522477966415e-06
  19    3.3024484885108e-05
  20    7.5135843205305e-06
  21    -6.4503519908975e-05
  22    -1.7859113722557e-07
  23    5.6975141582469e-06
  24    -2.5483106794507e-06
  25      -1.0013647605237
  26    -0.0019572048293886
  27    0.0068264617111662
  28    4.1039164646822e-06
  29    -8.3751916417031e-06
  30    0.0016515679127553
  31    1.8886549588241e-06
  32    9.7540500595726e-07
  33    -0.0018556178768683
  34    -0.00012324126612649
  35    3.1038085897791e-06
  36    -1.4812972567734e-06
  37    -6.7155040437482e-05
  38    0.00017524492803744
  39    -0.00028253213289156
  40    -0.00037914137826552
  41    -0.0014547467525611
  42    -1.5984235296181e-05
  43    9.3064269382145e-06
  44    9.5686150339335e-07
  45    -7.8054232490206e-05
  46    6.248228276883e-05
  47    -0.0035724599506432
  48    0.00053230129609714
  49    9.3882080165112e-06
  50    -2.902554841685e-06
  51    -2.7673620620129e-05
  52    0.00011253751186142
  53    -0.00093567975129876
  54    0.00010014953706128
  55    -0.0013820753648648
  56    -8.9486654037161e-05
  57    4.559450705353e-05
  58    3.2674179316351e-05
  59    0.00042329371318875
  60    -0.00045159934908884
  61    0.00092681894464224
  62    0.00011463550929964
  63    -0.00015156715144308
  64    0.00014784455088682
  65    -5.2987671069005e-05
  66    0.0001282543290461
  67    -0.0010353260070135
  68    2.5023489242138e-06
  69    -0.00053749337961662
  70    9.5622336335034e-05
  71    -0.00011716042802288
  72    5.6460105292701e-05
  73    -0.0010016979399107
  74    0.00074166955932298
  75    0.00064394104106714
  76    0.00014744332658398
  77    0.00012007163823117
  78    -8.8231884407398e-05
  79    -6.061217603594e-05
  80    0.00015525151339841
  81    5.9076712710527e-06
  82    -0.0002285967171461
  83    -6.3105830166368e-05
  84    4.7451598847523e-05
  85    -4.4982164480021e-05
  86    7.7293672742588e-05
  87    -0.00016760499784711
  88    0.00051723427347778
  89    6.1629768958918e-05
  90    -1.4739915895495e-05
  91    5.448538572234e-05
  92    -0.00023640764996702
  93    -0.00064497416861392
  94    4.9220041153757e-05
  95    -1.7810704447669e-05
  96    -1.6829099983176e-05
  97    -4.5270970414118e-06
  98    2.1926042214476e-05
  99    4.9851042609472e-05
 100    -8.1791955177754e-06
 101    0.00015181114109885
 102    -1.1333199864131e-05
 103    7.3358125235905e-06
 104    -7.8420525781536e-05
 105    1.8123548002404e-05
 106    0.0002219632637633
 107    6.4756760571985e-05
 108    -1.3528640405001e-05
 109    -7.6541523458059e-05
 110    -0.00014951202883166
 111    5.5606533242743e-05
 112    4.9199010542012e-05
 113    -1.3895401386057e-05
 114    -7.4075037524156e-05
 115    -0.00033063901510513
 116    0.00013368187469465
 117    -0.00085740189132029
 118    1.7053043917164e-05
 119    -6.0977422701186e-05
 120    0.00019021234536564
 121    -0.00030048540556282
 122    -6.2848481161866e-05
 123    0.00025535003792127
 124    3.3598689570412e-06
 125    -9.562011047417e-06
 126    -1.4355461400802e-05
 127    2.170857203818e-05
 128    -3.9286776928406e-05
 129    -2.0590655843299e-05
 130    0.00032154499595833
 131    -4.1063537764925e-06
 132    -2.343187227564e-06
 133    -2.388202458446e-05
 134    -0.00016950574761361
 135    7.0155923241419e-05
 136    5.1710096045027e-06
 137    2.8648529143084e-05
 138    1.800182970391e-05
 139    -1.8718990467486e-05
 140    5.3959456241664e-05
 141    -0.00026004668266882
 142    5.022292047191e-05
 143    6.3836078720987e-05
 144    -5.7031869554329e-05
 145    0.00025756303557475
 146    -1.7841218597047e-05
 147    -9.6739472518707e-05
 148    6.4185180426261e-06
 149    -6.5542465748187e-06
 150    -2.7014888345887e-06
 151    -1.5522928257372e-05
 152    1.3752500194372e-05
 153    0.00021995982871753
 154    0.00014663199519209
 155    2.1892139692634e-05
 156    -3.8469452198476e-05
 157    -2.3790738518165e-05
 158    0.00018418256346467
 159    0.00014620290148371
 160    6.5943507572492e-05
 161    1.7436855930791e-05
 162    -7.9421928492849e-06
 163    0.00010170095695585
 164    5.7797225782084e-05
 165    0.00028435981563889
 166    -0.00010296575459721
 167    0.00011604300279779
 168    -3.0244429510618e-05
 169    -0.00029350430533733
 170    0.00027415470939995
 171    0.00012441961183787
 172    5.6281797876447e-06
 173    -1.774225548467e-05
 174    1.2727653862356e-05
 175    -5.244197878445e-06
 176    2.2721212758243e-05
 177    -8.8272606248032e-06
 178    -0.00010417796549592
 179    2.9102557007537e-06
 180    -7.9933256369006e-07
 181    4.5503923739852e-06
 182    -9.4654904397512e-06
 183    1.2617498569941e-06
 184    9.3311031305449e-05
 185    -6.5784531847683e-05
 186    -3.4554531146734e-05
 187    6.6208983248865e-05
 188    -0.0001571486800508
 189    8.4837971234699e-05
 190    0.00011586589906585
 191    7.6859128999103e-07
 192    -5.1332831385253e-06
 193    2.7381214293261e-06
 194    2.5992877927947e-06
 195    1.026910415486e-05
 196    -1.3258131509301e-05
 197    8.0083456671162e-06
 198    -5.9551766201738e-06
 199    -2.2010834070624e-06
 200    1.0059125132716e-06
 201    2.8603521475878e-05
 202    -1.9682837469613e-07
 203    1.2058418794239e-05
 204    -5.1088523620728e-06
 205    -1.1075198625038e-05
 206    8.0643243041993e-05
 207    -2.7333093644639e-05
 208    1.0184655227201e-05
 209    -7.8284476138929e-06
 210    -1.2905755407679e-05
 211    2.445282589704e-05
 212    7.5459973541176e-05
 213    -0.00023675639085609
 214    5.8912785732478e-05
 215    -2.2620048067598e-05
 216    -8.0165023725223e-05
 217    -0.00016990918437937
 218    4.4416168674253e-05
 219    3.6836919888812e-05
 220    4.3196632726772e-06
 221    6.2023269780737e-06
 222    -4.2222073839693e-06
 223    -3.7485332422983e-06
 224    -6.5216410322867e-07
 225    -2.7941213796028e-05
 226    -6.1503978677924e-05
 227    1.0185230042359e-05
 228    7.4054163787255e-07
 229    2.6207295673439e-06
 230    -1.2571381925384e-05
 231    -6.3077895304027e-05
 232    2.5622284527083e-06
 233    -7.2880256807251e-06
 234    -9.8429012306882e-06
 235    -3.6172944469786e-06
 236    -8.2799783408589e-06
 237    6.1736263701093e-05
 238    3.8597149144598e-05
 239    -8.9841024859963e-06
 240    -3.3236856546685e-05
 241    -8.8591968152739e-06
 242    6.043696264631e-05
 243    -4.2160332214509e-05
 244    -1.3148819270316e-07
 245    -3.1356079919893e-06
 246    -7.4938507416203e-07
 247    5.2668838468329e-07
 248    3.2790219933512e-06
 249    -1.1712306340457e-05
 250    -3.2163005484414e-05
 251    6.7364243081423e-06
 252    1.1460942314255e-06
 253    -3.1420837250483e-07
 254    1.6318333299931e-06
 255    -6.1830468170533e-05
 256    1.3760843740888e-06
 257    -6.2058117625926e-06
 258    -6.2347254229887e-07
 259    4.3275732504371e-06
 260    1.7510868012558e-05
 261    -9.1496847842853e-05
 262    -1.0973549892536e-05