[Molden Format]
made by pyscf v[2.0.1]
[Atoms] (AU)
O   1   8     0.00000000000000     0.00000000000000    11.31969581038057
H   2   1     0.00000000000000     0.00000000000000     9.49629398847960
H   3   1    -0.05031916615174     1.78353065140343    11.69556750684724
O   4   8     0.00000000000000     0.00000000000000     2.31533471513237
C   5   6     0.00000000000000     0.00000000000000     0.00000000000000
C   6   6     2.01118073026938    -1.40227222164369    -1.50774939176400
C   7   6    -2.01249334291722     1.41331050329955    -1.50315905028694
H   8   1     3.32037363730244    -2.26721897153159    -0.13599698591495
C   9   6     3.45899267434009     0.28739631745591    -3.37437943254505
H   10   1     1.07662969841332    -2.94725144642667    -2.56541439481080
H   11   1    -2.67503415753480     0.18421555839588    -3.06194479365997
H   12   1    -1.07974048864772     3.03851734677796    -2.43674295017013
C   13   6    -4.21607110578555     2.32938802552922     0.11994162256091
H   14   1     4.24440173074564     1.93368664142019    -2.34976285512790
H   15   1     2.15020713235517     1.04714335134846    -4.81494497423699
C   16   6     5.60746363007797    -1.12419643481196    -4.70268606082550
H   17   1    -3.46838323670267     3.50951302338067     1.66946842715333
H   18   1    -5.11873485366228     0.68575958301209     1.04047743976495
C   19   6    -6.18314754751344     3.80909592987882    -1.39656589068747
H   20   1     6.93011263717176    -1.87550812453645    -3.26656317360070
C   21   6     7.06356622236532     0.52877932406334    -6.57829775293605
H   22   1     4.82318879258361    -2.78573437948532    -5.70504560381835
H   23   1    -6.91582688743803     2.61304780074712    -2.95074552451969
H   24   1    -5.26532430573853     5.45420349051338    -2.31005832200284
C   25   6    -8.39941882261433     4.73263980500213     0.21800571437956
H   26   1     7.83338371486801     2.19084139882824    -5.57093109900697
H   27   1     5.73544244039420     1.27376866537418    -8.01071492370229
C   28   6     9.21124858443101    -0.89699110072176    -7.88926949186242
H   29   1    -7.66272760055236     5.92277078003992     1.77035591474408
H   30   1    -9.31497248082589     3.08753015622020     1.12614408368786
C   31   6   -10.35481709231879     6.21833079391143    -1.30905206253246
H   32   1    10.58815905329501    -1.61074586756696    -6.49512691622620
H   33   1    10.23506248045667     0.32468009384095    -9.23072870921204
H   34   1     8.47665842847139    -2.53598436989925    -8.94921964622535
H   35   1    -9.48948872868064     7.90013588951020    -2.18823918416067
H   36   1   -11.93332513000955     6.86460487874102    -0.11255798845995
H   37   1   -11.15126291841033     5.04495968327630    -2.83849898862534
[GTO]
1 0
 s    8 1.00
                 11720  0.00070964594651845
                  1759  0.0054672722921914
                 400.8   0.027823118610189
                 113.7    0.10474773971146
                 37.03    0.28292084635691
                 13.27    0.44849523869833
                 5.025    0.27081688521277
                 1.013    0.01545029160744
 s    8 1.00
                 11720  -0.00031444341168873
                  1759  -0.0024821376810179
                 400.8  -0.012316355381583
                 113.7  -0.050538917343672
                 37.03   -0.13938490331632
                 13.27   -0.32507749481778
                 5.025   -0.22984830758785
                 1.013     1.0953793467883
 s    1 1.00
                0.3023                   1
 p    3 1.00
                  17.7   0.062679166281506
                 3.854    0.33353656587936
                 1.046    0.74123964163973
 p    1 1.00
                0.2753                   1
 d    1 1.00
                 1.185                   1

2 0
 s    3 1.00
                 13.01   0.033498726389998
                 1.962    0.23480080117413
                0.4446     0.8136829578829
 s    1 1.00
                 0.122                   1
 p    1 1.00
                 0.727                   1

3 0
 s    3 1.00
                 13.01   0.033498726389998
                 1.962    0.23480080117413
                0.4446     0.8136829578829
 s    1 1.00
                 0.122                   1
 p    1 1.00
                 0.727                   1

4 0
 s    8 1.00
                 11720  0.00070964594651845
                  1759  0.0054672722921914
                 400.8   0.027823118610189
                 113.7    0.10474773971146
                 37.03    0.28292084635691
                 13.27    0.44849523869833
                 5.025    0.27081688521277
                 1.013    0.01545029160744
 s    8 1.00
                 11720  -0.00031444341168873
                  1759  -0.0024821376810179
                 400.8  -0.012316355381583
                 113.7  -0.050538917343672
                 37.03   -0.13938490331632
                 13.27   -0.32507749481778
                 5.025   -0.22984830758785
                 1.013     1.0953793467883
 s    1 1.00
                0.3023                   1
 p    3 1.00
                  17.7   0.062679166281506
                 3.854    0.33353656587936
                 1.046    0.74123964163973
 p    1 1.00
                0.2753                   1
 d    1 1.00
                 1.185                   1

5 0
 s    8 1.00
                  6665  0.00069158396281299
                  1000  0.0053257961529341
                   228   0.027060721042034
                 64.71    0.10165684614077
                 21.06     0.2745748236174
                 7.495    0.44829431892377
                 2.797    0.28490261071525
                0.5215   0.015194859206082
 s    8 1.00
                  6665  -0.00029326965268655
                  1000  -0.0023180354739745
                   228  -0.011499786038565
                 64.71  -0.046826727009787
                 21.06   -0.12846616875047
                 7.495   -0.30126627246289
                 2.797   -0.25563070233011
                0.5215      1.093793361012
 s    1 1.00
                0.1596                   1
 p    3 1.00
                 9.439   0.056979251590039
                 2.002    0.31320721150073
                0.5456    0.76037674173753
 p    1 1.00
                0.1517                   1
 d    1 1.00
                  0.55                   1

6 0
 s    8 1.00
                  6665  0.00069158396281299
                  1000  0.0053257961529341
                   228   0.027060721042034
                 64.71    0.10165684614077
                 21.06     0.2745748236174
                 7.495    0.44829431892377
                 2.797    0.28490261071525
                0.5215   0.015194859206082
 s    8 1.00
                  6665  -0.00029326965268655
                  1000  -0.0023180354739745
                   228  -0.011499786038565
                 64.71  -0.046826727009787
                 21.06   -0.12846616875047
                 7.495   -0.30126627246289
                 2.797   -0.25563070233011
                0.5215      1.093793361012
 s    1 1.00
                0.1596                   1
 p    3 1.00
                 9.439   0.056979251590039
                 2.002    0.31320721150073
                0.5456    0.76037674173753
 p    1 1.00
                0.1517                   1
 d    1 1.00
                  0.55                   1

7 0
 s    8 1.00
                  6665  0.00069158396281299
                  1000  0.0053257961529341
                   228   0.027060721042034
                 64.71    0.10165684614077
                 21.06     0.2745748236174
                 7.495    0.44829431892377
                 2.797    0.28490261071525
                0.5215   0.015194859206082
 s    8 1.00
                  6665  -0.00029326965268655
                  1000  -0.0023180354739745
                   228  -0.011499786038565
                 64.71  -0.046826727009787
                 21.06   -0.12846616875047
                 7.495   -0.30126627246289
                 2.797   -0.25563070233011
                0.5215      1.093793361012
 s    1 1.00
                0.1596                   1
 p    3 1.00
                 9.439   0.056979251590039
                 2.002    0.31320721150073
                0.5456    0.76037674173753
 p    1 1.00
                0.1517                   1
 d    1 1.00
                  0.55                   1

8 0
 s    3 1.00
                 13.01   0.033498726389998
                 1.962    0.23480080117413
                0.4446     0.8136829578829
 s    1 1.00
                 0.122                   1
 p    1 1.00
                 0.727                   1

9 0
 s    8 1.00
                  6665  0.00069158396281299
                  1000  0.0053257961529341
                   228   0.027060721042034
                 64.71    0.10165684614077
                 21.06     0.2745748236174
                 7.495    0.44829431892377
                 2.797    0.28490261071525
                0.5215   0.015194859206082
 s    8 1.00
                  6665  -0.00029326965268655
                  1000  -0.0023180354739745
                   228  -0.011499786038565
                 64.71  -0.046826727009787
                 21.06   -0.12846616875047
                 7.495   -0.30126627246289
                 2.797   -0.25563070233011
                0.5215      1.093793361012
 s    1 1.00
                0.1596                   1
 p    3 1.00
                 9.439   0.056979251590039
                 2.002    0.31320721150073
                0.5456    0.76037674173753
 p    1 1.00
                0.1517                   1
 d    1 1.00
                  0.55                   1

10 0
 s    3 1.00
                 13.01   0.033498726389998
                 1.962    0.23480080117413
                0.4446     0.8136829578829
 s    1 1.00
                 0.122                   1
 p    1 1.00
                 0.727                   1

11 0
 s    3 1.00
                 13.01   0.033498726389998
                 1.962    0.23480080117413
                0.4446     0.8136829578829
 s    1 1.00
                 0.122                   1
 p    1 1.00
                 0.727                   1

12 0
 s    3 1.00
                 13.01   0.033498726389998
                 1.962    0.23480080117413
                0.4446     0.8136829578829
 s    1 1.00
                 0.122                   1
 p    1 1.00
                 0.727                   1

13 0
 s    8 1.00
                  6665  0.00069158396281299
                  1000  0.0053257961529341
                   228   0.027060721042034
                 64.71    0.10165684614077
                 21.06     0.2745748236174
                 7.495    0.44829431892377
                 2.797    0.28490261071525
                0.5215   0.015194859206082
 s    8 1.00
                  6665  -0.00029326965268655
                  1000  -0.0023180354739745
                   228  -0.011499786038565
                 64.71  -0.046826727009787
                 21.06   -0.12846616875047
                 7.495   -0.30126627246289
                 2.797   -0.25563070233011
                0.5215      1.093793361012
 s    1 1.00
                0.1596                   1
 p    3 1.00
                 9.439   0.056979251590039
                 2.002    0.31320721150073
                0.5456    0.76037674173753
 p    1 1.00
                0.1517                   1
 d    1 1.00
                  0.55                   1

14 0
 s    3 1.00
                 13.01   0.033498726389998
                 1.962    0.23480080117413
                0.4446     0.8136829578829
 s    1 1.00
                 0.122                   1
 p    1 1.00
                 0.727                   1

15 0
 s    3 1.00
                 13.01   0.033498726389998
                 1.962    0.23480080117413
                0.4446     0.8136829578829
 s    1 1.00
                 0.122                   1
 p    1 1.00
                 0.727                   1

16 0
 s    8 1.00
                  6665  0.00069158396281299
                  1000  0.0053257961529341
                   228   0.027060721042034
                 64.71    0.10165684614077
                 21.06     0.2745748236174
                 7.495    0.44829431892377
                 2.797    0.28490261071525
                0.5215   0.015194859206082
 s    8 1.00
                  6665  -0.00029326965268655
                  1000  -0.0023180354739745
                   228  -0.011499786038565
                 64.71  -0.046826727009787
                 21.06   -0.12846616875047
                 7.495   -0.30126627246289
                 2.797   -0.25563070233011
                0.5215      1.093793361012
 s    1 1.00
                0.1596                   1
 p    3 1.00
                 9.439   0.056979251590039
                 2.002    0.31320721150073
                0.5456    0.76037674173753
 p    1 1.00
                0.1517                   1
 d    1 1.00
                  0.55                   1

17 0
 s    3 1.00
                 13.01   0.033498726389998
                 1.962    0.23480080117413
                0.4446     0.8136829578829
 s    1 1.00
                 0.122                   1
 p    1 1.00
                 0.727                   1

18 0
 s    3 1.00
                 13.01   0.033498726389998
                 1.962    0.23480080117413
                0.4446     0.8136829578829
 s    1 1.00
                 0.122                   1
 p    1 1.00
                 0.727                   1

19 0
 s    8 1.00
                  6665  0.00069158396281299
                  1000  0.0053257961529341
                   228   0.027060721042034
                 64.71    0.10165684614077
                 21.06     0.2745748236174
                 7.495    0.44829431892377
                 2.797    0.28490261071525
                0.5215   0.015194859206082
 s    8 1.00
                  6665  -0.00029326965268655
                  1000  -0.0023180354739745
                   228  -0.011499786038565
                 64.71  -0.046826727009787
                 21.06   -0.12846616875047
                 7.495   -0.30126627246289
                 2.797   -0.25563070233011
                0.5215      1.093793361012
 s    1 1.00
                0.1596                   1
 p    3 1.00
                 9.439   0.056979251590039
                 2.002    0.31320721150073
                0.5456    0.76037674173753
 p    1 1.00
                0.1517                   1
 d    1 1.00
                  0.55                   1

20 0
 s    3 1.00
                 13.01   0.033498726389998
                 1.962    0.23480080117413
                0.4446     0.8136829578829
 s    1 1.00
                 0.122                   1
 p    1 1.00
                 0.727                   1

21 0
 s    8 1.00
                  6665  0.00069158396281299
                  1000  0.0053257961529341
                   228   0.027060721042034
                 64.71    0.10165684614077
                 21.06     0.2745748236174
                 7.495    0.44829431892377
                 2.797    0.28490261071525
                0.5215   0.015194859206082
 s    8 1.00
                  6665  -0.00029326965268655
                  1000  -0.0023180354739745
                   228  -0.011499786038565
                 64.71  -0.046826727009787
                 21.06   -0.12846616875047
                 7.495   -0.30126627246289
                 2.797   -0.25563070233011
                0.5215      1.093793361012
 s    1 1.00
                0.1596                   1
 p    3 1.00
                 9.439   0.056979251590039
                 2.002    0.31320721150073
                0.5456    0.76037674173753
 p    1 1.00
                0.1517                   1
 d    1 1.00
                  0.55                   1

22 0
 s    3 1.00
                 13.01   0.033498726389998
                 1.962    0.23480080117413
                0.4446     0.8136829578829
 s    1 1.00
                 0.122                   1
 p    1 1.00
                 0.727                   1

23 0
 s    3 1.00
                 13.01   0.033498726389998
                 1.962    0.23480080117413
                0.4446     0.8136829578829
 s    1 1.00
                 0.122                   1
 p    1 1.00
                 0.727                   1

24 0
 s    3 1.00
                 13.01   0.033498726389998
                 1.962    0.23480080117413
                0.4446     0.8136829578829
 s    1 1.00
                 0.122                   1
 p    1 1.00
                 0.727                   1

25 0
 s    8 1.00
                  6665  0.00069158396281299
                  1000  0.0053257961529341
                   228   0.027060721042034
                 64.71    0.10165684614077
                 21.06     0.2745748236174
                 7.495    0.44829431892377
                 2.797    0.28490261071525
                0.5215   0.015194859206082
 s    8 1.00
                  6665  -0.00029326965268655
                  1000  -0.0023180354739745
                   228  -0.011499786038565
                 64.71  -0.046826727009787
                 21.06   -0.12846616875047
                 7.495   -0.30126627246289
                 2.797   -0.25563070233011
                0.5215      1.093793361012
 s    1 1.00
                0.1596                   1
 p    3 1.00
                 9.439   0.056979251590039
                 2.002    0.31320721150073
                0.5456    0.76037674173753
 p    1 1.00
                0.1517                   1
 d    1 1.00
                  0.55                   1

26 0
 s    3 1.00
                 13.01   0.033498726389998
                 1.962    0.23480080117413
                0.4446     0.8136829578829
 s    1 1.00
                 0.122                   1
 p    1 1.00
                 0.727                   1

27 0
 s    3 1.00
                 13.01   0.033498726389998
                 1.962    0.23480080117413
                0.4446     0.8136829578829
 s    1 1.00
                 0.122                   1
 p    1 1.00
                 0.727                   1

28 0
 s    8 1.00
                  6665  0.00069158396281299
                  1000  0.0053257961529341
                   228   0.027060721042034
                 64.71    0.10165684614077
                 21.06     0.2745748236174
                 7.495    0.44829431892377
                 2.797    0.28490261071525
                0.5215   0.015194859206082
 s    8 1.00
                  6665  -0.00029326965268655
                  1000  -0.0023180354739745
                   228  -0.011499786038565
                 64.71  -0.046826727009787
                 21.06   -0.12846616875047
                 7.495   -0.30126627246289
                 2.797   -0.25563070233011
                0.5215      1.093793361012
 s    1 1.00
                0.1596                   1
 p    3 1.00
                 9.439   0.056979251590039
                 2.002    0.31320721150073
                0.5456    0.76037674173753
 p    1 1.00
                0.1517                   1
 d    1 1.00
                  0.55                   1

29 0
 s    3 1.00
                 13.01   0.033498726389998
                 1.962    0.23480080117413
                0.4446     0.8136829578829
 s    1 1.00
                 0.122                   1
 p    1 1.00
                 0.727                   1

30 0
 s    3 1.00
                 13.01   0.033498726389998
                 1.962    0.23480080117413
                0.4446     0.8136829578829
 s    1 1.00
                 0.122                   1
 p    1 1.00
                 0.727                   1

31 0
 s    8 1.00
                  6665  0.00069158396281299
                  1000  0.0053257961529341
                   228   0.027060721042034
                 64.71    0.10165684614077
                 21.06     0.2745748236174
                 7.495    0.44829431892377
                 2.797    0.28490261071525
                0.5215   0.015194859206082
 s    8 1.00
                  6665  -0.00029326965268655
                  1000  -0.0023180354739745
                   228  -0.011499786038565
                 64.71  -0.046826727009787
                 21.06   -0.12846616875047
                 7.495   -0.30126627246289
                 2.797   -0.25563070233011
                0.5215      1.093793361012
 s    1 1.00
                0.1596                   1
 p    3 1.00
                 9.439   0.056979251590039
                 2.002    0.31320721150073
                0.5456    0.76037674173753
 p    1 1.00
                0.1517                   1
 d    1 1.00
                  0.55                   1

32 0
 s    3 1.00
                 13.01   0.033498726389998
                 1.962    0.23480080117413
                0.4446     0.8136829578829
 s    1 1.00
                 0.122                   1
 p    1 1.00
                 0.727                   1

33 0
 s    3 1.00
                 13.01   0.033498726389998
                 1.962    0.23480080117413
                0.4446     0.8136829578829
 s    1 1.00
                 0.122                   1
 p    1 1.00
                 0.727                   1

34 0
 s    3 1.00
                 13.01   0.033498726389998
                 1.962    0.23480080117413
                0.4446     0.8136829578829
 s    1 1.00
                 0.122                   1
 p    1 1.00
                 0.727                   1

35 0
 s    3 1.00
                 13.01   0.033498726389998
                 1.962    0.23480080117413
                0.4446     0.8136829578829
 s    1 1.00
                 0.122                   1
 p    1 1.00
                 0.727                   1

36 0
 s    3 1.00
                 13.01   0.033498726389998
                 1.962    0.23480080117413
                0.4446     0.8136829578829
 s    1 1.00
                 0.122                   1
 p    1 1.00
                 0.727                   1

37 0
 s    3 1.00
                 13.01   0.033498726389998
                 1.962    0.23480080117413
                0.4446     0.8136829578829
 s    1 1.00
                 0.122                   1
 p    1 1.00
                 0.727                   1

[5d]
[7f]
[9g]

[MO]
 Sym= A
 Ene=               0
 Spin= Alpha
 Occup=    1.00000
   1    -3.2929272134912e-05
   2    -1.1585206142855e-05
   3    4.6078476522267e-05
   4    -4.6694713646572e-08
   5    1.7243253281239e-06
   6    -3.7866974575002e-07
   7    3.1098223318559e-07
   8    -1.0841973239158e-05
   9    -3.4998459297262e-05
  10    6.6664389889187e-06
  11    1.2824140156575e-08
  12    -5.0902620756843e-07
  13    5.0321415569409e-07
  14    2.8214857621117e-08
  15    -5.3525394153234e-06
  16    -6.8770381739152e-05
  17    -1.5868370469193e-08
  18    6.7135667340025e-07
  19    -2.1301146273093e-05
  20    -2.4893179201384e-06
  21    2.8553788674979e-05
  22    1.0391393405484e-07
  23    -3.6717183859011e-06
  24    9.727407808066e-07
  25       1.0013565799466
  26    0.0019295011252537
  27    -0.0067725332732676
  28    -2.2631513234756e-06
  29    8.1665193944243e-06
  30    -0.0016375045543504
  31    -7.0038433109047e-06
  32    4.2216599202328e-06
  33    0.0018288896653806
  34    0.00013221513942683
  35    -3.4818431088627e-06
  36    1.580768307844e-06
  37    6.7731965137297e-05
  38    -0.00017638838990267
  39    0.00028683312275416
  40    0.00037541560521665
  41    0.0014269007725609
  42    1.4418451143971e-05
  43    -1.0312646358802e-05
  44    2.0554342395216e-06
  45    0.00012342136976946
  46    -8.6753728076627e-05
  47    0.0035083421591726
  48    -0.00057965368957416
  49    -1.7974632183926e-05
  50    8.5623143051244e-06
  51    3.5373887087562e-05
  52    -0.00013461249809933
  53    0.00037247345467972
  54    6.9589596205107e-05
  55    0.0014583025162944
  56    0.00020345347823383
  57    -0.00017554199007623
  58    0.00017551304828341
  59    -0.00035682144346974
  60    0.00036770282192841
  61    -0.00083472432227472
  62    -0.000118750096989
  63    0.00016681477047231
  64    -0.00015056109728067
  65    5.5571054579537e-05
  66    -0.00013476812676489
  67    0.00042772247385426
  68    0.00020876433749954
  69    0.00075851482122546
  70    -0.00043113860159689
  71    0.00033529693447755
  72    0.00034788043518842
  73    0.00082422874318279
  74    -0.00063301645830554
  75    -0.00041135631829821
  76    -0.00016545095030236
  77    -0.00014445023774196
  78    8.3791166795805e-05
  79    8.6812820999565e-05
  80    -0.00018006619598873
  81    0.0003017219896041
  82    0.00030663003843687
  83    4.5032081538403e-05
  84    -3.6159065108501e-05
  85    2.9633863114111e-05
  86    4.0962089607918e-05
  87    9.8784459256015e-05
  88    -0.00055944590264774
  89    -8.1878652969951e-06
  90    8.9598427809406e-05
  91    -8.5027783882346e-06
  92    0.00024376510800083
  93    0.00068412622635768
  94    -1.600956861232e-05
  95    2.4686851963048e-05
  96    1.8351530461598e-05
  97    -2.1514129016298e-07
  98    -2.9206552328554e-05
  99    -4.4746254305842e-05
 100    4.2678512347984e-05
 101    -0.00015634339172669
 102    1.8831804583135e-05
 103    -5.7373465043383e-06
 104    8.6884561436933e-05
 105    -0.00023090448523559
 106    -0.00036557908907246
 107    -7.5061861740735e-05
 108    1.2370357872245e-05
 109    7.5296075593696e-05
 110    0.00011176576071559
 111    -0.00010213317126241
 112    -5.6179286050098e-05
 113    1.9059902069772e-05
 114    8.3776190642445e-05
 115    0.00032952648926286
 116    4.1906486086835e-05
 117    0.00096726873769549
 118    0.00015887430724083
 119    -0.00010043671452845
 120    -0.00078798638707025
 121    0.00039408579869189
 122    -2.5080870550719e-05
 123    -0.00053288732088405
 124    -1.7167576723732e-05
 125    -2.2440472708097e-05
 126    7.2759803936024e-06
 127    6.1514516320215e-06
 128    -4.6134317764121e-07
 129    7.3309035478459e-05
 130    -0.00029618178098424
 131    4.3637330218522e-06
 132    1.1905126615938e-06
 133    2.1745157533622e-05
 134    0.00010983538856176
 135    -6.2280316511236e-05
 136    -7.8550051336311e-06
 137    -2.3826658708288e-05
 138    -2.1736872269187e-05
 139    -1.0774892237362e-05
 140    -4.9459801724512e-05
 141    0.0002649018323698
 142    7.8183609741705e-06
 143    -4.4392951218271e-05
 144    -3.6624630950854e-06
 145    -0.00023369050174015
 146    2.6128404627859e-05
 147     6.19083323195e-05
 148    -4.3058021784492e-06
 149    7.4720601444713e-06
 150    6.2565711528982e-07
 151    9.2277266847421e-06
 152    -1.0100731488645e-05
 153    -0.00058869990143429
 154    -0.00035080707676705
 155    -8.1826103669216e-06
 156    4.9982370160383e-05
 157    3.2187427707016e-05
 158    -0.00029129383826707
 159    -0.00021424443411507
 160    -6.6496898539998e-05
 161    -2.7295968825191e-05
 162    -4.7227010004615e-06
 163    -8.6693338544851e-05
 164    4.1773034097479e-06
 165    -0.00019649939916827
 166    0.00018616514729102
 167    -0.00013452801774547
 168    0.00024470855195918
 169    0.00031114407191576
 170    -0.00027932216248603
 171    4.5527574959361e-06
 172    -2.9614019632637e-05
 173    6.1340233441404e-06
 174    -1.7551933775175e-05
 175    1.730766271107e-05
 176    -5.2920540103224e-05
 177    1.2418773784102e-06
 178    0.00010405524323832
 179    -1.3790983913865e-06
 180    8.7544074326467e-07
 181    -5.5081782294535e-06
 182    2.1781251184628e-05
 183    9.8883597898286e-06
 184    -8.6119930707905e-05
 185    8.7336072064321e-06
 186    1.4090463144192e-05
 187    -2.2048696668946e-05
 188    0.00012224906344325
 189    -9.1382030545508e-05
 190    -9.0997777378955e-05
 191    4.0293208038527e-07
 192    3.8122753397416e-06
 193    -7.7949753753514e-06
 194    -3.7165847838025e-06
 195    -6.0081784373848e-06
 196    1.4420297030533e-05
 197    -4.9102241494188e-06
 198    6.5799057556112e-06
 199    2.0078645924188e-06
 200    -2.8161319004935e-06
 201    -0.00020064026530132
 202    -0.00012474476446017
 203    -1.522757862318e-05
 204    1.4420783334766e-07
 205    7.7058479795402e-06
 206    -0.00012739817361421
 207    -1.1469627218821e-05
 208    -7.4105880961154e-06
 209    1.0316663717391e-05
 210    1.7485669619135e-05
 211    -5.1326514042341e-06
 212    -1.5914614109613e-05
 213    0.00029829282362844
 214    1.1593602691285e-05
 215    2.8825433931869e-06
 216    3.5805445222324e-06
 217    0.00020976541867126
 218    -5.168117754369e-05
 219    -7.4852953043065e-05
 220    -1.331304373889e-05
 221    -6.4337155370083e-06
 222    2.4482588996712e-06
 223    1.0468386023217e-05
 224    -6.4020435107664e-06
 225    1.9361110245836e-05
 226    5.692881449795e-05
 227    -1.1231241971137e-05
 228    -9.6498978674418e-07
 229    -1.322852701803e-06
 230    1.5832432488239e-05
 231    5.9956288077579e-05
 232    -3.476471267827e-06
 233    6.4156373321126e-06
 234    1.097521268706e-05
 235    3.8523676834351e-06
 236    1.7941646169147e-07
 237    -6.6639547846852e-05
 238    -2.0550861591971e-06
 239    3.3071922582448e-06
 240    4.0230571159312e-06
 241    2.747758018153e-05
 242    -5.8544270144107e-05
 243    2.663432472954e-05
 244    1.1642218991778e-06
 245    2.451349182619e-06
 246    -1.7080308900637e-06
 247    1.8088006011044e-08
 248    -3.6710812165001e-07
 249    -1.3854122212514e-05
 250    -3.0806474184243e-06
 251    -6.3489151089769e-06
 252    -1.2982511405527e-06
 253    -1.8756247988396e-06
 254    -2.0639632933296e-05
 255    4.5082279293938e-05
 256    -3.1335139070012e-08
 257    5.7112733062682e-06
 258    -1.5434945647735e-06
 259    -4.1562720236689e-06
 260    -5.1906830559271e-06
 261    0.00010742100172556
 262    1.7689604819605e-05