[Molden Format]
made by pyscf v[2.0.1]
[Atoms] (AU)
O   1   8     0.00000000000000     0.00000000000000     9.05202446090250
H   2   1     0.00000000000000     0.00000000000000     7.22862263900153
H   3   1    -0.05031916615174     1.78353065140343     9.42789615736916
O   4   8     0.00000000000000     0.00000000000000     2.31533471513237
C   5   6     0.00000000000000     0.00000000000000     0.00000000000000
C   6   6     2.01118073026938    -1.40227222164369    -1.50774939176400
C   7   6    -2.01249334291722     1.41331050329955    -1.50315905028694
H   8   1     3.32037363730244    -2.26721897153159    -0.13599698591495
C   9   6     3.45899267434009     0.28739631745591    -3.37437943254505
H   10   1     1.07662969841332    -2.94725144642667    -2.56541439481080
H   11   1    -2.67503415753480     0.18421555839588    -3.06194479365997
H   12   1    -1.07974048864772     3.03851734677796    -2.43674295017013
C   13   6    -4.21607110578555     2.32938802552922     0.11994162256091
H   14   1     4.24440173074564     1.93368664142019    -2.34976285512790
H   15   1     2.15020713235517     1.04714335134846    -4.81494497423699
C   16   6     5.60746363007797    -1.12419643481196    -4.70268606082550
H   17   1    -3.46838323670267     3.50951302338067     1.66946842715333
H   18   1    -5.11873485366228     0.68575958301209     1.04047743976495
C   19   6    -6.18314754751344     3.80909592987882    -1.39656589068747
H   20   1     6.93011263717176    -1.87550812453645    -3.26656317360070
C   21   6     7.06356622236532     0.52877932406334    -6.57829775293605
H   22   1     4.82318879258361    -2.78573437948532    -5.70504560381835
H   23   1    -6.91582688743803     2.61304780074712    -2.95074552451969
H   24   1    -5.26532430573853     5.45420349051338    -2.31005832200284
C   25   6    -8.39941882261433     4.73263980500213     0.21800571437956
H   26   1     7.83338371486801     2.19084139882824    -5.57093109900697
H   27   1     5.73544244039420     1.27376866537418    -8.01071492370229
C   28   6     9.21124858443101    -0.89699110072176    -7.88926949186242
H   29   1    -7.66272760055236     5.92277078003992     1.77035591474408
H   30   1    -9.31497248082589     3.08753015622020     1.12614408368786
C   31   6   -10.35481709231879     6.21833079391143    -1.30905206253246
H   32   1    10.58815905329501    -1.61074586756696    -6.49512691622620
H   33   1    10.23506248045667     0.32468009384095    -9.23072870921204
H   34   1     8.47665842847139    -2.53598436989925    -8.94921964622535
H   35   1    -9.48948872868064     7.90013588951020    -2.18823918416067
H   36   1   -11.93332513000955     6.86460487874102    -0.11255798845995
H   37   1   -11.15126291841033     5.04495968327630    -2.83849898862534
[GTO]
1 0
 s    8 1.00
                 11720  0.00070964594651845
                  1759  0.0054672722921914
                 400.8   0.027823118610189
                 113.7    0.10474773971146
                 37.03    0.28292084635691
                 13.27    0.44849523869833
                 5.025    0.27081688521277
                 1.013    0.01545029160744
 s    8 1.00
                 11720  -0.00031444341168873
                  1759  -0.0024821376810179
                 400.8  -0.012316355381583
                 113.7  -0.050538917343672
                 37.03   -0.13938490331632
                 13.27   -0.32507749481778
                 5.025   -0.22984830758785
                 1.013     1.0953793467883
 s    1 1.00
                0.3023                   1
 p    3 1.00
                  17.7   0.062679166281506
                 3.854    0.33353656587936
                 1.046    0.74123964163973
 p    1 1.00
                0.2753                   1
 d    1 1.00
                 1.185                   1

2 0
 s    3 1.00
                 13.01   0.033498726389998
                 1.962    0.23480080117413
                0.4446     0.8136829578829
 s    1 1.00
                 0.122                   1
 p    1 1.00
                 0.727                   1

3 0
 s    3 1.00
                 13.01   0.033498726389998
                 1.962    0.23480080117413
                0.4446     0.8136829578829
 s    1 1.00
                 0.122                   1
 p    1 1.00
                 0.727                   1

4 0
 s    8 1.00
                 11720  0.00070964594651845
                  1759  0.0054672722921914
                 400.8   0.027823118610189
                 113.7    0.10474773971146
                 37.03    0.28292084635691
                 13.27    0.44849523869833
                 5.025    0.27081688521277
                 1.013    0.01545029160744
 s    8 1.00
                 11720  -0.00031444341168873
                  1759  -0.0024821376810179
                 400.8  -0.012316355381583
                 113.7  -0.050538917343672
                 37.03   -0.13938490331632
                 13.27   -0.32507749481778
                 5.025   -0.22984830758785
                 1.013     1.0953793467883
 s    1 1.00
                0.3023                   1
 p    3 1.00
                  17.7   0.062679166281506
                 3.854    0.33353656587936
                 1.046    0.74123964163973
 p    1 1.00
                0.2753                   1
 d    1 1.00
                 1.185                   1

5 0
 s    8 1.00
                  6665  0.00069158396281299
                  1000  0.0053257961529341
                   228   0.027060721042034
                 64.71    0.10165684614077
                 21.06     0.2745748236174
                 7.495    0.44829431892377
                 2.797    0.28490261071525
                0.5215   0.015194859206082
 s    8 1.00
                  6665  -0.00029326965268655
                  1000  -0.0023180354739745
                   228  -0.011499786038565
                 64.71  -0.046826727009787
                 21.06   -0.12846616875047
                 7.495   -0.30126627246289
                 2.797   -0.25563070233011
                0.5215      1.093793361012
 s    1 1.00
                0.1596                   1
 p    3 1.00
                 9.439   0.056979251590039
                 2.002    0.31320721150073
                0.5456    0.76037674173753
 p    1 1.00
                0.1517                   1
 d    1 1.00
                  0.55                   1

6 0
 s    8 1.00
                  6665  0.00069158396281299
                  1000  0.0053257961529341
                   228   0.027060721042034
                 64.71    0.10165684614077
                 21.06     0.2745748236174
                 7.495    0.44829431892377
                 2.797    0.28490261071525
                0.5215   0.015194859206082
 s    8 1.00
                  6665  -0.00029326965268655
                  1000  -0.0023180354739745
                   228  -0.011499786038565
                 64.71  -0.046826727009787
                 21.06   -0.12846616875047
                 7.495   -0.30126627246289
                 2.797   -0.25563070233011
                0.5215      1.093793361012
 s    1 1.00
                0.1596                   1
 p    3 1.00
                 9.439   0.056979251590039
                 2.002    0.31320721150073
                0.5456    0.76037674173753
 p    1 1.00
                0.1517                   1
 d    1 1.00
                  0.55                   1

7 0
 s    8 1.00
                  6665  0.00069158396281299
                  1000  0.0053257961529341
                   228   0.027060721042034
                 64.71    0.10165684614077
                 21.06     0.2745748236174
                 7.495    0.44829431892377
                 2.797    0.28490261071525
                0.5215   0.015194859206082
 s    8 1.00
                  6665  -0.00029326965268655
                  1000  -0.0023180354739745
                   228  -0.011499786038565
                 64.71  -0.046826727009787
                 21.06   -0.12846616875047
                 7.495   -0.30126627246289
                 2.797   -0.25563070233011
                0.5215      1.093793361012
 s    1 1.00
                0.1596                   1
 p    3 1.00
                 9.439   0.056979251590039
                 2.002    0.31320721150073
                0.5456    0.76037674173753
 p    1 1.00
                0.1517                   1
 d    1 1.00
                  0.55                   1

8 0
 s    3 1.00
                 13.01   0.033498726389998
                 1.962    0.23480080117413
                0.4446     0.8136829578829
 s    1 1.00
                 0.122                   1
 p    1 1.00
                 0.727                   1

9 0
 s    8 1.00
                  6665  0.00069158396281299
                  1000  0.0053257961529341
                   228   0.027060721042034
                 64.71    0.10165684614077
                 21.06     0.2745748236174
                 7.495    0.44829431892377
                 2.797    0.28490261071525
                0.5215   0.015194859206082
 s    8 1.00
                  6665  -0.00029326965268655
                  1000  -0.0023180354739745
                   228  -0.011499786038565
                 64.71  -0.046826727009787
                 21.06   -0.12846616875047
                 7.495   -0.30126627246289
                 2.797   -0.25563070233011
                0.5215      1.093793361012
 s    1 1.00
                0.1596                   1
 p    3 1.00
                 9.439   0.056979251590039
                 2.002    0.31320721150073
                0.5456    0.76037674173753
 p    1 1.00
                0.1517                   1
 d    1 1.00
                  0.55                   1

10 0
 s    3 1.00
                 13.01   0.033498726389998
                 1.962    0.23480080117413
                0.4446     0.8136829578829
 s    1 1.00
                 0.122                   1
 p    1 1.00
                 0.727                   1

11 0
 s    3 1.00
                 13.01   0.033498726389998
                 1.962    0.23480080117413
                0.4446     0.8136829578829
 s    1 1.00
                 0.122                   1
 p    1 1.00
                 0.727                   1

12 0
 s    3 1.00
                 13.01   0.033498726389998
                 1.962    0.23480080117413
                0.4446     0.8136829578829
 s    1 1.00
                 0.122                   1
 p    1 1.00
                 0.727                   1

13 0
 s    8 1.00
                  6665  0.00069158396281299
                  1000  0.0053257961529341
                   228   0.027060721042034
                 64.71    0.10165684614077
                 21.06     0.2745748236174
                 7.495    0.44829431892377
                 2.797    0.28490261071525
                0.5215   0.015194859206082
 s    8 1.00
                  6665  -0.00029326965268655
                  1000  -0.0023180354739745
                   228  -0.011499786038565
                 64.71  -0.046826727009787
                 21.06   -0.12846616875047
                 7.495   -0.30126627246289
                 2.797   -0.25563070233011
                0.5215      1.093793361012
 s    1 1.00
                0.1596                   1
 p    3 1.00
                 9.439   0.056979251590039
                 2.002    0.31320721150073
                0.5456    0.76037674173753
 p    1 1.00
                0.1517                   1
 d    1 1.00
                  0.55                   1

14 0
 s    3 1.00
                 13.01   0.033498726389998
                 1.962    0.23480080117413
                0.4446     0.8136829578829
 s    1 1.00
                 0.122                   1
 p    1 1.00
                 0.727                   1

15 0
 s    3 1.00
                 13.01   0.033498726389998
                 1.962    0.23480080117413
                0.4446     0.8136829578829
 s    1 1.00
                 0.122                   1
 p    1 1.00
                 0.727                   1

16 0
 s    8 1.00
                  6665  0.00069158396281299
                  1000  0.0053257961529341
                   228   0.027060721042034
                 64.71    0.10165684614077
                 21.06     0.2745748236174
                 7.495    0.44829431892377
                 2.797    0.28490261071525
                0.5215   0.015194859206082
 s    8 1.00
                  6665  -0.00029326965268655
                  1000  -0.0023180354739745
                   228  -0.011499786038565
                 64.71  -0.046826727009787
                 21.06   -0.12846616875047
                 7.495   -0.30126627246289
                 2.797   -0.25563070233011
                0.5215      1.093793361012
 s    1 1.00
                0.1596                   1
 p    3 1.00
                 9.439   0.056979251590039
                 2.002    0.31320721150073
                0.5456    0.76037674173753
 p    1 1.00
                0.1517                   1
 d    1 1.00
                  0.55                   1

17 0
 s    3 1.00
                 13.01   0.033498726389998
                 1.962    0.23480080117413
                0.4446     0.8136829578829
 s    1 1.00
                 0.122                   1
 p    1 1.00
                 0.727                   1

18 0
 s    3 1.00
                 13.01   0.033498726389998
                 1.962    0.23480080117413
                0.4446     0.8136829578829
 s    1 1.00
                 0.122                   1
 p    1 1.00
                 0.727                   1

19 0
 s    8 1.00
                  6665  0.00069158396281299
                  1000  0.0053257961529341
                   228   0.027060721042034
                 64.71    0.10165684614077
                 21.06     0.2745748236174
                 7.495    0.44829431892377
                 2.797    0.28490261071525
                0.5215   0.015194859206082
 s    8 1.00
                  6665  -0.00029326965268655
                  1000  -0.0023180354739745
                   228  -0.011499786038565
                 64.71  -0.046826727009787
                 21.06   -0.12846616875047
                 7.495   -0.30126627246289
                 2.797   -0.25563070233011
                0.5215      1.093793361012
 s    1 1.00
                0.1596                   1
 p    3 1.00
                 9.439   0.056979251590039
                 2.002    0.31320721150073
                0.5456    0.76037674173753
 p    1 1.00
                0.1517                   1
 d    1 1.00
                  0.55                   1

20 0
 s    3 1.00
                 13.01   0.033498726389998
                 1.962    0.23480080117413
                0.4446     0.8136829578829
 s    1 1.00
                 0.122                   1
 p    1 1.00
                 0.727                   1

21 0
 s    8 1.00
                  6665  0.00069158396281299
                  1000  0.0053257961529341
                   228   0.027060721042034
                 64.71    0.10165684614077
                 21.06     0.2745748236174
                 7.495    0.44829431892377
                 2.797    0.28490261071525
                0.5215   0.015194859206082
 s    8 1.00
                  6665  -0.00029326965268655
                  1000  -0.0023180354739745
                   228  -0.011499786038565
                 64.71  -0.046826727009787
                 21.06   -0.12846616875047
                 7.495   -0.30126627246289
                 2.797   -0.25563070233011
                0.5215      1.093793361012
 s    1 1.00
                0.1596                   1
 p    3 1.00
                 9.439   0.056979251590039
                 2.002    0.31320721150073
                0.5456    0.76037674173753
 p    1 1.00
                0.1517                   1
 d    1 1.00
                  0.55                   1

22 0
 s    3 1.00
                 13.01   0.033498726389998
                 1.962    0.23480080117413
                0.4446     0.8136829578829
 s    1 1.00
                 0.122                   1
 p    1 1.00
                 0.727                   1

23 0
 s    3 1.00
                 13.01   0.033498726389998
                 1.962    0.23480080117413
                0.4446     0.8136829578829
 s    1 1.00
                 0.122                   1
 p    1 1.00
                 0.727                   1

24 0
 s    3 1.00
                 13.01   0.033498726389998
                 1.962    0.23480080117413
                0.4446     0.8136829578829
 s    1 1.00
                 0.122                   1
 p    1 1.00
                 0.727                   1

25 0
 s    8 1.00
                  6665  0.00069158396281299
                  1000  0.0053257961529341
                   228   0.027060721042034
                 64.71    0.10165684614077
                 21.06     0.2745748236174
                 7.495    0.44829431892377
                 2.797    0.28490261071525
                0.5215   0.015194859206082
 s    8 1.00
                  6665  -0.00029326965268655
                  1000  -0.0023180354739745
                   228  -0.011499786038565
                 64.71  -0.046826727009787
                 21.06   -0.12846616875047
                 7.495   -0.30126627246289
                 2.797   -0.25563070233011
                0.5215      1.093793361012
 s    1 1.00
                0.1596                   1
 p    3 1.00
                 9.439   0.056979251590039
                 2.002    0.31320721150073
                0.5456    0.76037674173753
 p    1 1.00
                0.1517                   1
 d    1 1.00
                  0.55                   1

26 0
 s    3 1.00
                 13.01   0.033498726389998
                 1.962    0.23480080117413
                0.4446     0.8136829578829
 s    1 1.00
                 0.122                   1
 p    1 1.00
                 0.727                   1

27 0
 s    3 1.00
                 13.01   0.033498726389998
                 1.962    0.23480080117413
                0.4446     0.8136829578829
 s    1 1.00
                 0.122                   1
 p    1 1.00
                 0.727                   1

28 0
 s    8 1.00
                  6665  0.00069158396281299
                  1000  0.0053257961529341
                   228   0.027060721042034
                 64.71    0.10165684614077
                 21.06     0.2745748236174
                 7.495    0.44829431892377
                 2.797    0.28490261071525
                0.5215   0.015194859206082
 s    8 1.00
                  6665  -0.00029326965268655
                  1000  -0.0023180354739745
                   228  -0.011499786038565
                 64.71  -0.046826727009787
                 21.06   -0.12846616875047
                 7.495   -0.30126627246289
                 2.797   -0.25563070233011
                0.5215      1.093793361012
 s    1 1.00
                0.1596                   1
 p    3 1.00
                 9.439   0.056979251590039
                 2.002    0.31320721150073
                0.5456    0.76037674173753
 p    1 1.00
                0.1517                   1
 d    1 1.00
                  0.55                   1

29 0
 s    3 1.00
                 13.01   0.033498726389998
                 1.962    0.23480080117413
                0.4446     0.8136829578829
 s    1 1.00
                 0.122                   1
 p    1 1.00
                 0.727                   1

30 0
 s    3 1.00
                 13.01   0.033498726389998
                 1.962    0.23480080117413
                0.4446     0.8136829578829
 s    1 1.00
                 0.122                   1
 p    1 1.00
                 0.727                   1

31 0
 s    8 1.00
                  6665  0.00069158396281299
                  1000  0.0053257961529341
                   228   0.027060721042034
                 64.71    0.10165684614077
                 21.06     0.2745748236174
                 7.495    0.44829431892377
                 2.797    0.28490261071525
                0.5215   0.015194859206082
 s    8 1.00
                  6665  -0.00029326965268655
                  1000  -0.0023180354739745
                   228  -0.011499786038565
                 64.71  -0.046826727009787
                 21.06   -0.12846616875047
                 7.495   -0.30126627246289
                 2.797   -0.25563070233011
                0.5215      1.093793361012
 s    1 1.00
                0.1596                   1
 p    3 1.00
                 9.439   0.056979251590039
                 2.002    0.31320721150073
                0.5456    0.76037674173753
 p    1 1.00
                0.1517                   1
 d    1 1.00
                  0.55                   1

32 0
 s    3 1.00
                 13.01   0.033498726389998
                 1.962    0.23480080117413
                0.4446     0.8136829578829
 s    1 1.00
                 0.122                   1
 p    1 1.00
                 0.727                   1

33 0
 s    3 1.00
                 13.01   0.033498726389998
                 1.962    0.23480080117413
                0.4446     0.8136829578829
 s    1 1.00
                 0.122                   1
 p    1 1.00
                 0.727                   1

34 0
 s    3 1.00
                 13.01   0.033498726389998
                 1.962    0.23480080117413
                0.4446     0.8136829578829
 s    1 1.00
                 0.122                   1
 p    1 1.00
                 0.727                   1

35 0
 s    3 1.00
                 13.01   0.033498726389998
                 1.962    0.23480080117413
                0.4446     0.8136829578829
 s    1 1.00
                 0.122                   1
 p    1 1.00
                 0.727                   1

36 0
 s    3 1.00
                 13.01   0.033498726389998
                 1.962    0.23480080117413
                0.4446     0.8136829578829
 s    1 1.00
                 0.122                   1
 p    1 1.00
                 0.727                   1

37 0
 s    3 1.00
                 13.01   0.033498726389998
                 1.962    0.23480080117413
                0.4446     0.8136829578829
 s    1 1.00
                 0.122                   1
 p    1 1.00
                 0.727                   1

[5d]
[7f]
[9g]

[MO]
 Sym= A
 Ene=               0
 Spin= Alpha
 Occup=    1.00000
   1    0.00016478060297155
   2    4.9569063728586e-05
   3    -0.00013290619285115
   4    7.087358419865e-08
   5    -5.6976427187053e-06
   6    -1.3395011181052e-05
   7    -6.9016774446682e-07
   8    2.5320370806531e-05
   9    8.0550243929485e-05
  10    -7.6773449753355e-06
  11    5.1787927402533e-08
  12    1.9585997526472e-07
  13    -3.5178695416798e-07
  14    -1.3148199689331e-08
  15    1.7178190270751e-05
  16    0.00020374748043764
  17    1.3975573322077e-07
  18    -1.852357771361e-06
  19    4.0135738146015e-06
  20    7.306792949459e-06
  21    -6.7326577154766e-05
  22    -1.4945375525905e-07
  23    3.8742663025391e-06
  24    -1.5189622599826e-06
  25      -1.0013716418511
  26    -0.0019621849718296
  27    0.0069055856454777
  28    2.7492733111198e-06
  29    -1.0542271857256e-05
  30    0.0016221190785923
  31    6.8752812537529e-06
  32    -2.9570550043729e-06
  33    -0.0019270738003778
  34    -0.00011735620289724
  35    3.3216448226047e-06
  36    -1.7329470948613e-06
  37    -6.6917337853396e-05
  38    0.00017413779230864
  39    -0.00029910725534712
  40    -0.00040229965524096
  41    -0.0015258223801874
  42    -1.5274097091939e-05
  43    1.0381790707471e-05
  44    -2.976569002416e-05
  45    -0.00012304753609048
  46    8.8551032441527e-05
  47    -0.0036090216279691
  48    0.00055471444536198
  49    1.7765098017489e-05
  50    -8.7053481753107e-06
  51    -3.6492998830297e-05
  52    0.00013746369331169
  53    -0.00037195230851757
  54    -6.9765323633294e-05
  55    -0.0014744925419529
  56    -0.00020291511402525
  57    0.00017482472649806
  58    -0.00017577698781198
  59    0.00036018747175985
  60    -0.00037289227617645
  61    0.00087254558391258
  62    0.00011724130766824
  63    -0.00016627251211928
  64    0.00015080937139922
  65    -5.4771084482682e-05
  66    0.00013194174685688
  67    -0.00042895596091515
  68    -0.00021139513120134
  69    -0.00076654965751913
  70    0.00043226904683656
  71    -0.00033691826961877
  72    -0.00034793432027545
  73    -0.0008371753727787
  74    0.00064079597358711
  75    0.00043051975464336
  76     0.000163923164612
  77    0.00014470983160372
  78    -8.375810179281e-05
  79    -8.6092796598909e-05
  80    0.00017801603985487
  81    -0.00030389527185925
  82    -0.00031191219499355
  83    -4.5863670200644e-05
  84    3.6796138208861e-05
  85    -2.8375541226082e-05
  86    -4.1381466161125e-05
  87    -9.9339445995888e-05
  88    0.0005743918486909
  89    7.3951543775232e-06
  90    -8.904189713805e-05
  91    8.6076441243649e-06
  92    -0.0002483326141353
  93    -0.00070327563259428
  94    9.9881896324264e-06
  95    -2.5319165854147e-05
  96    -1.8603067640962e-05
  97    -5.8703284273884e-07
  98    2.8244015902965e-05
  99    4.6858193896919e-05
 100    -3.9959587730768e-05
 101    0.00016144634824469
 102    -1.6632320829005e-05
 103    6.4083233146169e-06
 104    -8.9006807132686e-05
 105    0.00023214603260554
 106    0.00036993311591385
 107    7.4586771632403e-05
 108    -9.9959934557063e-06
 109    -7.6545159773198e-05
 110    -0.00011272531280948
 111    0.00010806795352315
 112    5.5109900493584e-05
 113    -2.0347136102884e-05
 114    -8.5139175937761e-05
 115    -0.00032984574083558
 116    -4.0554236343154e-05
 117    -0.00097432954121734
 118    -0.00015708411285972
 119    9.9781683479969e-05
 120    0.00079454206246852
 121    -0.00037910103338908
 122    1.6839701277306e-05
 123    0.00055332504387734
 124    1.7055503335592e-05
 125    2.3637989393027e-05
 126    -6.0361816894981e-06
 127    -6.3855581791521e-06
 128    2.7263275265942e-07
 129    -7.2941600830583e-05
 130    0.00030735519418463
 131    -4.8119654229909e-06
 132    -1.2605482222017e-06
 133    -2.2125561255291e-05
 134    -0.00010891308292262
 135    6.1562801512139e-05
 136    8.1140496562423e-06
 137    2.4751114319561e-05
 138    2.2381527777604e-05
 139    1.1533582935487e-05
 140    5.0409913392245e-05
 141    -0.00027928357303198
 142    -7.2788713313078e-06
 143    4.4492398768012e-05
 144    3.2318392809976e-06
 145    0.00023576822366425
 146    -3.2058976801163e-05
 147    -5.890059927448e-05
 148    4.4480120326795e-06
 149    -7.568814485751e-06
 150    9.535253141712e-08
 151    -9.8107911259239e-06
 152    9.9948667417617e-06
 153    0.00059552676684053
 154    0.00033973204610642
 155    8.9376363699203e-06
 156    -4.8756741823217e-05
 157    -3.1158138392462e-05
 158    0.00029531572374259
 159    0.00021195300939419
 160    6.6366420323203e-05
 161    2.773715495717e-05
 162    4.076347082165e-06
 163    8.4250891602324e-05
 164    -8.0827439637552e-06
 165    0.00021730030719463
 166    -0.0001875933013099
 167    0.00013579860721663
 168    -0.00024698608344349
 169    -0.00030725416554571
 170    0.0002748806922316
 171    1.7677916085877e-06
 172    2.9310692588509e-05
 173    -6.0253920593177e-06
 174    1.7441128204995e-05
 175    -1.7237180378079e-05
 176    5.2633493772199e-05
 177    -7.5632309277548e-07
 178    -0.00010616657441844
 179    1.713200368747e-06
 180    -6.3522152123379e-07
 181    5.3215695894099e-06
 182    -2.2530942404014e-05
 183    -1.1175419099904e-05
 184    9.521017978457e-05
 185    -8.8667375129667e-06
 186    -1.4306414876987e-05
 187    2.2292658877103e-05
 188    -0.00012575979516069
 189    9.1227930190734e-05
 190    9.5883723472103e-05
 191    -3.5929553679603e-07
 192    -4.0535931379717e-06
 193    7.7238406088493e-06
 194    3.6646143715644e-06
 195    6.4219039633633e-06
 196    -1.4755951597194e-05
 197    5.593308418383e-06
 198    -6.5875448629215e-06
 199    -1.9826372067337e-06
 200    2.5385108373375e-06
 201    0.00020088079154325
 202    0.00012675542543896
 203    1.5523092427911e-05
 204    1.2363883696763e-07
 205    -7.7142531777343e-06
 206    0.00012747890623174
 207    1.2172527623793e-05
 208    7.1717851826878e-06
 209    -1.0244625585995e-05
 210    -1.7779062040494e-05
 211    5.2448985220783e-06
 212    1.6459994310805e-05
 213    -0.00030846574443093
 214    -1.2273544975995e-05
 215    -2.7779495254703e-06
 216    -3.5648317829379e-06
 217    -0.00020829943995152
 218    5.0542369323585e-05
 219    7.7062518186611e-05
 220    1.3462500685031e-05
 221    6.2599878729797e-06
 222    -2.4475915778383e-06
 223    -1.0608128271197e-05
 224    6.5973588553658e-06
 225    -2.0178171334932e-05
 226    -5.8635480149866e-05
 227    1.1485247264267e-05
 228    1.139169685953e-06
 229    1.3026249064498e-06
 230    -1.6287657957481e-05
 231    -5.9886570893798e-05
 232    3.5845321667132e-06
 233    -6.563624969583e-06
 234    -1.1120367838467e-05
 235    -3.9109007723423e-06
 236    -3.7358117756419e-07
 237    6.7441403099243e-05
 238    2.1201184253223e-06
 239    -3.3540942736757e-06
 240    -4.0800805252661e-06
 241    -2.8357675513618e-05
 242    5.9563610990819e-05
 243    -2.7063760131525e-05
 244    -1.2335909709105e-06
 245    -2.5252320568976e-06
 246    1.6885554678485e-06
 247    -1.0243811480291e-08
 248    3.6082368288628e-07
 249    1.3603299223702e-05
 250    5.4877777408419e-06
 251    6.224095776419e-06
 252    1.1703961318552e-06
 253    1.6239504977124e-06
 254    2.1088693130187e-05
 255    -4.4812776372982e-05
 256    -2.2479911979642e-07
 257    -5.6075496886171e-06
 258    1.4561475618484e-06
 259    3.8896900180345e-06
 260    4.3525733190492e-06
 261    -0.00010138033991355
 262    -1.7836301840742e-05