[Molden Format]
made by pyscf v[2.0.1]
[Atoms] (AU)
O   1   8     0.00000000000000     0.00000000000000     9.42996968581551
H   2   1     0.00000000000000     0.00000000000000     7.60656786391454
H   3   1    -0.05031916615174     1.78353065140343     9.80584138228218
O   4   8     0.00000000000000     0.00000000000000     2.31533471513237
C   5   6     0.00000000000000     0.00000000000000     0.00000000000000
C   6   6     2.01118073026938    -1.40227222164369    -1.50774939176400
C   7   6    -2.01249334291722     1.41331050329955    -1.50315905028694
H   8   1     3.32037363730244    -2.26721897153159    -0.13599698591495
C   9   6     3.45899267434009     0.28739631745591    -3.37437943254505
H   10   1     1.07662969841332    -2.94725144642667    -2.56541439481080
H   11   1    -2.67503415753480     0.18421555839588    -3.06194479365997
H   12   1    -1.07974048864772     3.03851734677796    -2.43674295017013
C   13   6    -4.21607110578555     2.32938802552922     0.11994162256091
H   14   1     4.24440173074564     1.93368664142019    -2.34976285512790
H   15   1     2.15020713235517     1.04714335134846    -4.81494497423699
C   16   6     5.60746363007797    -1.12419643481196    -4.70268606082550
H   17   1    -3.46838323670267     3.50951302338067     1.66946842715333
H   18   1    -5.11873485366228     0.68575958301209     1.04047743976495
C   19   6    -6.18314754751344     3.80909592987882    -1.39656589068747
H   20   1     6.93011263717176    -1.87550812453645    -3.26656317360070
C   21   6     7.06356622236532     0.52877932406334    -6.57829775293605
H   22   1     4.82318879258361    -2.78573437948532    -5.70504560381835
H   23   1    -6.91582688743803     2.61304780074712    -2.95074552451969
H   24   1    -5.26532430573853     5.45420349051338    -2.31005832200284
C   25   6    -8.39941882261433     4.73263980500213     0.21800571437956
H   26   1     7.83338371486801     2.19084139882824    -5.57093109900697
H   27   1     5.73544244039420     1.27376866537418    -8.01071492370229
C   28   6     9.21124858443101    -0.89699110072176    -7.88926949186242
H   29   1    -7.66272760055236     5.92277078003992     1.77035591474408
H   30   1    -9.31497248082589     3.08753015622020     1.12614408368786
C   31   6   -10.35481709231879     6.21833079391143    -1.30905206253246
H   32   1    10.58815905329501    -1.61074586756696    -6.49512691622620
H   33   1    10.23506248045667     0.32468009384095    -9.23072870921204
H   34   1     8.47665842847139    -2.53598436989925    -8.94921964622535
H   35   1    -9.48948872868064     7.90013588951020    -2.18823918416067
H   36   1   -11.93332513000955     6.86460487874102    -0.11255798845995
H   37   1   -11.15126291841033     5.04495968327630    -2.83849898862534
[GTO]
1 0
 s    8 1.00
                 11720  0.00070964594651845
                  1759  0.0054672722921914
                 400.8   0.027823118610189
                 113.7    0.10474773971146
                 37.03    0.28292084635691
                 13.27    0.44849523869833
                 5.025    0.27081688521277
                 1.013    0.01545029160744
 s    8 1.00
                 11720  -0.00031444341168873
                  1759  -0.0024821376810179
                 400.8  -0.012316355381583
                 113.7  -0.050538917343672
                 37.03   -0.13938490331632
                 13.27   -0.32507749481778
                 5.025   -0.22984830758785
                 1.013     1.0953793467883
 s    1 1.00
                0.3023                   1
 p    3 1.00
                  17.7   0.062679166281506
                 3.854    0.33353656587936
                 1.046    0.74123964163973
 p    1 1.00
                0.2753                   1
 d    1 1.00
                 1.185                   1

2 0
 s    3 1.00
                 13.01   0.033498726389998
                 1.962    0.23480080117413
                0.4446     0.8136829578829
 s    1 1.00
                 0.122                   1
 p    1 1.00
                 0.727                   1

3 0
 s    3 1.00
                 13.01   0.033498726389998
                 1.962    0.23480080117413
                0.4446     0.8136829578829
 s    1 1.00
                 0.122                   1
 p    1 1.00
                 0.727                   1

4 0
 s    8 1.00
                 11720  0.00070964594651845
                  1759  0.0054672722921914
                 400.8   0.027823118610189
                 113.7    0.10474773971146
                 37.03    0.28292084635691
                 13.27    0.44849523869833
                 5.025    0.27081688521277
                 1.013    0.01545029160744
 s    8 1.00
                 11720  -0.00031444341168873
                  1759  -0.0024821376810179
                 400.8  -0.012316355381583
                 113.7  -0.050538917343672
                 37.03   -0.13938490331632
                 13.27   -0.32507749481778
                 5.025   -0.22984830758785
                 1.013     1.0953793467883
 s    1 1.00
                0.3023                   1
 p    3 1.00
                  17.7   0.062679166281506
                 3.854    0.33353656587936
                 1.046    0.74123964163973
 p    1 1.00
                0.2753                   1
 d    1 1.00
                 1.185                   1

5 0
 s    8 1.00
                  6665  0.00069158396281299
                  1000  0.0053257961529341
                   228   0.027060721042034
                 64.71    0.10165684614077
                 21.06     0.2745748236174
                 7.495    0.44829431892377
                 2.797    0.28490261071525
                0.5215   0.015194859206082
 s    8 1.00
                  6665  -0.00029326965268655
                  1000  -0.0023180354739745
                   228  -0.011499786038565
                 64.71  -0.046826727009787
                 21.06   -0.12846616875047
                 7.495   -0.30126627246289
                 2.797   -0.25563070233011
                0.5215      1.093793361012
 s    1 1.00
                0.1596                   1
 p    3 1.00
                 9.439   0.056979251590039
                 2.002    0.31320721150073
                0.5456    0.76037674173753
 p    1 1.00
                0.1517                   1
 d    1 1.00
                  0.55                   1

6 0
 s    8 1.00
                  6665  0.00069158396281299
                  1000  0.0053257961529341
                   228   0.027060721042034
                 64.71    0.10165684614077
                 21.06     0.2745748236174
                 7.495    0.44829431892377
                 2.797    0.28490261071525
                0.5215   0.015194859206082
 s    8 1.00
                  6665  -0.00029326965268655
                  1000  -0.0023180354739745
                   228  -0.011499786038565
                 64.71  -0.046826727009787
                 21.06   -0.12846616875047
                 7.495   -0.30126627246289
                 2.797   -0.25563070233011
                0.5215      1.093793361012
 s    1 1.00
                0.1596                   1
 p    3 1.00
                 9.439   0.056979251590039
                 2.002    0.31320721150073
                0.5456    0.76037674173753
 p    1 1.00
                0.1517                   1
 d    1 1.00
                  0.55                   1

7 0
 s    8 1.00
                  6665  0.00069158396281299
                  1000  0.0053257961529341
                   228   0.027060721042034
                 64.71    0.10165684614077
                 21.06     0.2745748236174
                 7.495    0.44829431892377
                 2.797    0.28490261071525
                0.5215   0.015194859206082
 s    8 1.00
                  6665  -0.00029326965268655
                  1000  -0.0023180354739745
                   228  -0.011499786038565
                 64.71  -0.046826727009787
                 21.06   -0.12846616875047
                 7.495   -0.30126627246289
                 2.797   -0.25563070233011
                0.5215      1.093793361012
 s    1 1.00
                0.1596                   1
 p    3 1.00
                 9.439   0.056979251590039
                 2.002    0.31320721150073
                0.5456    0.76037674173753
 p    1 1.00
                0.1517                   1
 d    1 1.00
                  0.55                   1

8 0
 s    3 1.00
                 13.01   0.033498726389998
                 1.962    0.23480080117413
                0.4446     0.8136829578829
 s    1 1.00
                 0.122                   1
 p    1 1.00
                 0.727                   1

9 0
 s    8 1.00
                  6665  0.00069158396281299
                  1000  0.0053257961529341
                   228   0.027060721042034
                 64.71    0.10165684614077
                 21.06     0.2745748236174
                 7.495    0.44829431892377
                 2.797    0.28490261071525
                0.5215   0.015194859206082
 s    8 1.00
                  6665  -0.00029326965268655
                  1000  -0.0023180354739745
                   228  -0.011499786038565
                 64.71  -0.046826727009787
                 21.06   -0.12846616875047
                 7.495   -0.30126627246289
                 2.797   -0.25563070233011
                0.5215      1.093793361012
 s    1 1.00
                0.1596                   1
 p    3 1.00
                 9.439   0.056979251590039
                 2.002    0.31320721150073
                0.5456    0.76037674173753
 p    1 1.00
                0.1517                   1
 d    1 1.00
                  0.55                   1

10 0
 s    3 1.00
                 13.01   0.033498726389998
                 1.962    0.23480080117413
                0.4446     0.8136829578829
 s    1 1.00
                 0.122                   1
 p    1 1.00
                 0.727                   1

11 0
 s    3 1.00
                 13.01   0.033498726389998
                 1.962    0.23480080117413
                0.4446     0.8136829578829
 s    1 1.00
                 0.122                   1
 p    1 1.00
                 0.727                   1

12 0
 s    3 1.00
                 13.01   0.033498726389998
                 1.962    0.23480080117413
                0.4446     0.8136829578829
 s    1 1.00
                 0.122                   1
 p    1 1.00
                 0.727                   1

13 0
 s    8 1.00
                  6665  0.00069158396281299
                  1000  0.0053257961529341
                   228   0.027060721042034
                 64.71    0.10165684614077
                 21.06     0.2745748236174
                 7.495    0.44829431892377
                 2.797    0.28490261071525
                0.5215   0.015194859206082
 s    8 1.00
                  6665  -0.00029326965268655
                  1000  -0.0023180354739745
                   228  -0.011499786038565
                 64.71  -0.046826727009787
                 21.06   -0.12846616875047
                 7.495   -0.30126627246289
                 2.797   -0.25563070233011
                0.5215      1.093793361012
 s    1 1.00
                0.1596                   1
 p    3 1.00
                 9.439   0.056979251590039
                 2.002    0.31320721150073
                0.5456    0.76037674173753
 p    1 1.00
                0.1517                   1
 d    1 1.00
                  0.55                   1

14 0
 s    3 1.00
                 13.01   0.033498726389998
                 1.962    0.23480080117413
                0.4446     0.8136829578829
 s    1 1.00
                 0.122                   1
 p    1 1.00
                 0.727                   1

15 0
 s    3 1.00
                 13.01   0.033498726389998
                 1.962    0.23480080117413
                0.4446     0.8136829578829
 s    1 1.00
                 0.122                   1
 p    1 1.00
                 0.727                   1

16 0
 s    8 1.00
                  6665  0.00069158396281299
                  1000  0.0053257961529341
                   228   0.027060721042034
                 64.71    0.10165684614077
                 21.06     0.2745748236174
                 7.495    0.44829431892377
                 2.797    0.28490261071525
                0.5215   0.015194859206082
 s    8 1.00
                  6665  -0.00029326965268655
                  1000  -0.0023180354739745
                   228  -0.011499786038565
                 64.71  -0.046826727009787
                 21.06   -0.12846616875047
                 7.495   -0.30126627246289
                 2.797   -0.25563070233011
                0.5215      1.093793361012
 s    1 1.00
                0.1596                   1
 p    3 1.00
                 9.439   0.056979251590039
                 2.002    0.31320721150073
                0.5456    0.76037674173753
 p    1 1.00
                0.1517                   1
 d    1 1.00
                  0.55                   1

17 0
 s    3 1.00
                 13.01   0.033498726389998
                 1.962    0.23480080117413
                0.4446     0.8136829578829
 s    1 1.00
                 0.122                   1
 p    1 1.00
                 0.727                   1

18 0
 s    3 1.00
                 13.01   0.033498726389998
                 1.962    0.23480080117413
                0.4446     0.8136829578829
 s    1 1.00
                 0.122                   1
 p    1 1.00
                 0.727                   1

19 0
 s    8 1.00
                  6665  0.00069158396281299
                  1000  0.0053257961529341
                   228   0.027060721042034
                 64.71    0.10165684614077
                 21.06     0.2745748236174
                 7.495    0.44829431892377
                 2.797    0.28490261071525
                0.5215   0.015194859206082
 s    8 1.00
                  6665  -0.00029326965268655
                  1000  -0.0023180354739745
                   228  -0.011499786038565
                 64.71  -0.046826727009787
                 21.06   -0.12846616875047
                 7.495   -0.30126627246289
                 2.797   -0.25563070233011
                0.5215      1.093793361012
 s    1 1.00
                0.1596                   1
 p    3 1.00
                 9.439   0.056979251590039
                 2.002    0.31320721150073
                0.5456    0.76037674173753
 p    1 1.00
                0.1517                   1
 d    1 1.00
                  0.55                   1

20 0
 s    3 1.00
                 13.01   0.033498726389998
                 1.962    0.23480080117413
                0.4446     0.8136829578829
 s    1 1.00
                 0.122                   1
 p    1 1.00
                 0.727                   1

21 0
 s    8 1.00
                  6665  0.00069158396281299
                  1000  0.0053257961529341
                   228   0.027060721042034
                 64.71    0.10165684614077
                 21.06     0.2745748236174
                 7.495    0.44829431892377
                 2.797    0.28490261071525
                0.5215   0.015194859206082
 s    8 1.00
                  6665  -0.00029326965268655
                  1000  -0.0023180354739745
                   228  -0.011499786038565
                 64.71  -0.046826727009787
                 21.06   -0.12846616875047
                 7.495   -0.30126627246289
                 2.797   -0.25563070233011
                0.5215      1.093793361012
 s    1 1.00
                0.1596                   1
 p    3 1.00
                 9.439   0.056979251590039
                 2.002    0.31320721150073
                0.5456    0.76037674173753
 p    1 1.00
                0.1517                   1
 d    1 1.00
                  0.55                   1

22 0
 s    3 1.00
                 13.01   0.033498726389998
                 1.962    0.23480080117413
                0.4446     0.8136829578829
 s    1 1.00
                 0.122                   1
 p    1 1.00
                 0.727                   1

23 0
 s    3 1.00
                 13.01   0.033498726389998
                 1.962    0.23480080117413
                0.4446     0.8136829578829
 s    1 1.00
                 0.122                   1
 p    1 1.00
                 0.727                   1

24 0
 s    3 1.00
                 13.01   0.033498726389998
                 1.962    0.23480080117413
                0.4446     0.8136829578829
 s    1 1.00
                 0.122                   1
 p    1 1.00
                 0.727                   1

25 0
 s    8 1.00
                  6665  0.00069158396281299
                  1000  0.0053257961529341
                   228   0.027060721042034
                 64.71    0.10165684614077
                 21.06     0.2745748236174
                 7.495    0.44829431892377
                 2.797    0.28490261071525
                0.5215   0.015194859206082
 s    8 1.00
                  6665  -0.00029326965268655
                  1000  -0.0023180354739745
                   228  -0.011499786038565
                 64.71  -0.046826727009787
                 21.06   -0.12846616875047
                 7.495   -0.30126627246289
                 2.797   -0.25563070233011
                0.5215      1.093793361012
 s    1 1.00
                0.1596                   1
 p    3 1.00
                 9.439   0.056979251590039
                 2.002    0.31320721150073
                0.5456    0.76037674173753
 p    1 1.00
                0.1517                   1
 d    1 1.00
                  0.55                   1

26 0
 s    3 1.00
                 13.01   0.033498726389998
                 1.962    0.23480080117413
                0.4446     0.8136829578829
 s    1 1.00
                 0.122                   1
 p    1 1.00
                 0.727                   1

27 0
 s    3 1.00
                 13.01   0.033498726389998
                 1.962    0.23480080117413
                0.4446     0.8136829578829
 s    1 1.00
                 0.122                   1
 p    1 1.00
                 0.727                   1

28 0
 s    8 1.00
                  6665  0.00069158396281299
                  1000  0.0053257961529341
                   228   0.027060721042034
                 64.71    0.10165684614077
                 21.06     0.2745748236174
                 7.495    0.44829431892377
                 2.797    0.28490261071525
                0.5215   0.015194859206082
 s    8 1.00
                  6665  -0.00029326965268655
                  1000  -0.0023180354739745
                   228  -0.011499786038565
                 64.71  -0.046826727009787
                 21.06   -0.12846616875047
                 7.495   -0.30126627246289
                 2.797   -0.25563070233011
                0.5215      1.093793361012
 s    1 1.00
                0.1596                   1
 p    3 1.00
                 9.439   0.056979251590039
                 2.002    0.31320721150073
                0.5456    0.76037674173753
 p    1 1.00
                0.1517                   1
 d    1 1.00
                  0.55                   1

29 0
 s    3 1.00
                 13.01   0.033498726389998
                 1.962    0.23480080117413
                0.4446     0.8136829578829
 s    1 1.00
                 0.122                   1
 p    1 1.00
                 0.727                   1

30 0
 s    3 1.00
                 13.01   0.033498726389998
                 1.962    0.23480080117413
                0.4446     0.8136829578829
 s    1 1.00
                 0.122                   1
 p    1 1.00
                 0.727                   1

31 0
 s    8 1.00
                  6665  0.00069158396281299
                  1000  0.0053257961529341
                   228   0.027060721042034
                 64.71    0.10165684614077
                 21.06     0.2745748236174
                 7.495    0.44829431892377
                 2.797    0.28490261071525
                0.5215   0.015194859206082
 s    8 1.00
                  6665  -0.00029326965268655
                  1000  -0.0023180354739745
                   228  -0.011499786038565
                 64.71  -0.046826727009787
                 21.06   -0.12846616875047
                 7.495   -0.30126627246289
                 2.797   -0.25563070233011
                0.5215      1.093793361012
 s    1 1.00
                0.1596                   1
 p    3 1.00
                 9.439   0.056979251590039
                 2.002    0.31320721150073
                0.5456    0.76037674173753
 p    1 1.00
                0.1517                   1
 d    1 1.00
                  0.55                   1

32 0
 s    3 1.00
                 13.01   0.033498726389998
                 1.962    0.23480080117413
                0.4446     0.8136829578829
 s    1 1.00
                 0.122                   1
 p    1 1.00
                 0.727                   1

33 0
 s    3 1.00
                 13.01   0.033498726389998
                 1.962    0.23480080117413
                0.4446     0.8136829578829
 s    1 1.00
                 0.122                   1
 p    1 1.00
                 0.727                   1

34 0
 s    3 1.00
                 13.01   0.033498726389998
                 1.962    0.23480080117413
                0.4446     0.8136829578829
 s    1 1.00
                 0.122                   1
 p    1 1.00
                 0.727                   1

35 0
 s    3 1.00
                 13.01   0.033498726389998
                 1.962    0.23480080117413
                0.4446     0.8136829578829
 s    1 1.00
                 0.122                   1
 p    1 1.00
                 0.727                   1

36 0
 s    3 1.00
                 13.01   0.033498726389998
                 1.962    0.23480080117413
                0.4446     0.8136829578829
 s    1 1.00
                 0.122                   1
 p    1 1.00
                 0.727                   1

37 0
 s    3 1.00
                 13.01   0.033498726389998
                 1.962    0.23480080117413
                0.4446     0.8136829578829
 s    1 1.00
                 0.122                   1
 p    1 1.00
                 0.727                   1

[5d]
[7f]
[9g]

[MO]
 Sym= A
 Ene=               0
 Spin= Alpha
 Occup=    1.00000
   1    6.8058138190986e-05
   2    4.330052836548e-05
   3    -0.0001310618309265
   4    8.9665751218326e-08
   5    -5.4725124152858e-06
   6    -8.0103761143265e-06
   7    -6.2481643380805e-07
   8    2.5131740114418e-05
   9    8.5797995960511e-05
  10    -1.120384189699e-05
  11    1.9782370302331e-08
  12    5.9971561679112e-07
  13    -3.3132440538343e-07
  14    -1.0629200162771e-08
  15    1.6580743674978e-05
  16    0.00019479306334846
  17    1.6242239777735e-07
  18    -1.7333068105095e-06
  19    2.238678371979e-05
  20    8.0612523825494e-06
  21    -6.9235191067008e-05
  22    -1.7291390995615e-07
  23    5.1028877366211e-06
  24    -2.3820485656983e-06
  25      -1.0013679770625
  26    -0.0019641126838493
  27     0.006855863018332
  28    4.1767220773567e-06
  29    -8.846290935685e-06
  30    0.0016485825993431
  31    2.0016550959305e-06
  32    1.2422059347243e-06
  33    -0.0018793577465574
  34    -0.00012010269503344
  35    3.1152826563512e-06
  36    -1.5478089875097e-06
  37    -6.6970038185198e-05
  38    0.00017467011751349
  39    -0.00028484051153553
  40    -0.00038510501515768
  41    -0.0014820504376813
  42    -1.6137208151759e-05
  43    9.2924454292035e-06
  44    -5.1584811934119e-06
  45    -7.8131576473171e-05
  46    6.2620522597099e-05
  47    -0.003594663028131
  48    0.00052682846952719
  49    1.0362770441252e-05
  50    -3.6643934147276e-06
  51    -2.7514072151602e-05
  52    0.00011290244710871
  53    -0.00098309576150762
  54    9.7891211419371e-05
  55    -0.0013848129299733
  56    -7.9550765706374e-05
  57    4.5099335265335e-05
  58    4.6925556028006e-05
  59    0.00042876547986063
  60    -0.00045234023632187
  61    0.00094235672170549
  62    0.00011492265089411
  63    -0.00015102213105049
  64    0.00014720696968739
  65    -5.2572692761523e-05
  66    0.00012648833234532
  67    -0.0010838263982987
  68    3.3498136453868e-06
  69    -0.00053546804233578
  70    0.00010360050746759
  71    -0.00012643793631767
  72    4.5919223377051e-05
  73    -0.0010012824524797
  74    0.00073924861575443
  75    0.0006436358754835
  76    0.00014895788061865
  77    0.00011997200652414
  78    -8.6852271053726e-05
  79    -6.1763881300563e-05
  80    0.00015552553279145
  81    1.9739440047238e-05
  82    -0.00022336025885647
  83    -6.3705949828627e-05
  84    4.8145753510596e-05
  85    -4.5197315007118e-05
  86    8.8227816123249e-05
  87    -0.00016920647171908
  88    0.00051734653042194
  89    5.5003055201276e-05
  90    -1.3121665683692e-05
  91    4.4343820924003e-05
  92    -0.00024012543253237
  93    -0.00064831907436229
  94    4.2879832951145e-05
  95    -1.7357190759659e-05
  96    -1.600633240692e-05
  97    -5.5292001332408e-06
  98    2.2003366277055e-05
  99    4.9367188457464e-05
 100    -1.9784132604352e-05
 101    0.00014731166015878
 102    -1.0979018244984e-05
 103    6.6448170101508e-06
 104    -7.8993085313337e-05
 105    3.2750139268724e-05
 106    0.00023259730176214
 107    6.5064789128311e-05
 108    -1.25726567169e-05
 109    -7.6368798221498e-05
 110    -0.00014777951712431
 111    5.708623926651e-05
 112    4.8996002316859e-05
 113    -1.4777436534585e-05
 114    -7.4721727283241e-05
 115    -0.00033221075771596
 116    0.00014079090492158
 117    -0.0008587128024155
 118    3.5777279260746e-05
 119    -5.2732371964499e-05
 120    0.00023801119798661
 121    -0.0002905905628312
 122    -5.9252299262208e-05
 123    0.00028286796371616
 124    4.4438579624759e-06
 125    -8.4368586772978e-06
 126    -1.1869901504491e-05
 127    2.0417634097652e-05
 128    -3.6909447782339e-05
 129    -2.8393989502652e-05
 130    0.00031934583360465
 131    -4.1747339878741e-06
 132    -1.8087437562014e-06
 133    -2.403033143275e-05
 134    -0.00015751604593619
 135    7.7700882663983e-05
 136    5.4709128658789e-06
 137    2.8473879544738e-05
 138    1.8503636503596e-05
 139    -2.1193848621481e-05
 140    5.1360444826192e-05
 141    -0.0002650220258203
 142    5.3350685598735e-05
 143    6.4244717199885e-05
 144    -5.4148972029695e-05
 145    0.00025879899624871
 146    -1.9197960145988e-05
 147    -9.4221624870655e-05
 148    6.1839478084099e-06
 149    -6.1731254271818e-06
 150    -2.9881009117398e-06
 151    -1.5274775649555e-05
 152    1.336283626927e-05
 153    0.00026797593523569
 154    0.00016337079485127
 155    2.0936161642382e-05
 156    -4.0184906370665e-05
 157    -2.5693137427978e-05
 158    0.00019330665432907
 159    0.00014755201236926
 160    6.6893333131834e-05
 161    1.8656545435508e-05
 162    -7.1939299253729e-06
 163    0.00010832761411101
 164    5.3303500164467e-05
 165    0.00028185018723209
 166    -0.00011771883758626
 167    0.00012560397018823
 168    -5.4983997857854e-05
 169    -0.00029933910555007
 170    0.00027821750720761
 171    0.00011240450444567
 172    7.1167630612867e-06
 173    -1.7170468598595e-05
 174    1.3838337382804e-05
 175    -5.575976145126e-06
 176    2.5045076308836e-05
 177    -5.6169163634414e-06
 178    -0.0001017471923462
 179    2.9310218064025e-06
 180    -6.4620526643775e-07
 181    4.5624095422223e-06
 182    -8.2620947210427e-06
 183    9.5587348682344e-07
 184    9.5635073592226e-05
 185    -6.2918908567834e-05
 186    -3.3974322101476e-05
 187    6.6217365452159e-05
 188    -0.00015630789628941
 189    8.4973938442301e-05
 190    0.00011696367984167
 191    8.6246520744037e-07
 192    -5.1459108886062e-06
 193    2.868500041644e-06
 194    2.504655824087e-06
 195    1.0140405859883e-05
 196    -1.8035560721063e-05
 197    5.7282785598251e-06
 198    -5.9542424304032e-06
 199    -2.5122545577306e-06
 200    8.086139965628e-07
 201    4.6786415848241e-05
 202    1.2787359296195e-05
 203    1.2332422101713e-05
 204    -4.1960030369388e-06
 205    -1.0741455699754e-05
 206    8.9183741080387e-05
 207    -2.3363703623572e-05
 208    9.3583230388261e-06
 209    -8.3031143081534e-06
 210    -1.3372450750662e-05
 211    2.7762969778781e-05
 212    7.6909380747379e-05
 213    -0.000240530378301
 214    5.6994592291353e-05
 215    -2.2193523926544e-05
 216    -7.3911658887424e-05
 217    -0.00016968309536638
 218    4.2898310684838e-05
 219    4.0945443147087e-05
 220    5.3848127028835e-06
 221    5.6540570968965e-06
 222    -3.7234400932181e-06
 223    -4.268628479919e-06
 224    2.954281760836e-07
 225    -2.6915670938682e-05
 226    -6.165248570057e-05
 227    1.0286343802588e-05
 228    7.0255284323554e-07
 229    2.5447494225428e-06
 230    -1.3820846686462e-05
 231    -6.3379663274218e-05
 232    2.5247908865202e-06
 233    -7.2529297245512e-06
 234    -9.9439481434648e-06
 235    -3.755045604014e-06
 236    -7.9139980100233e-06
 237    6.2132851003352e-05
 238    3.6320175626339e-05
 239    -9.0304915113235e-06
 240    -3.3357571012988e-05
 241    -1.0205288965237e-05
 242    6.0487888325901e-05
 243    -4.232378278956e-05
 244    -1.5166810516068e-07
 245    -3.2131047999526e-06
 246    -5.722057169125e-07
 247    4.3443780927164e-07
 248    3.2361833331605e-06
 249    -5.5221993351936e-06
 250    -2.6922592001527e-05
 251    6.5979898197994e-06
 252    8.2043431820081e-07
 253    -5.6183950196873e-07
 254    5.8189072822932e-06
 255    -5.9962819734722e-05
 256    1.4198590969662e-06
 257    -5.8792191381241e-06
 258    -6.0418386946338e-07
 259    3.7169665451088e-06
 260    1.4391892382526e-05
 261    -9.2945069237999e-05
 262    -1.356425232965e-05
 263    -3.7089201690537e-06