[Molden Format]
made by pyscf v[2.0.1]
[Atoms] (AU)
O   1   8     0.00000000000000     0.00000000000000    10.56380536055454
H   2   1     0.00000000000000     0.00000000000000     8.74040353865358
H   3   1    -0.05031916615174     1.78353065140343    10.93967705702121
O   4   8     0.00000000000000     0.00000000000000     2.31533471513237
C   5   6     0.00000000000000     0.00000000000000     0.00000000000000
C   6   6     2.01118073026938    -1.40227222164369    -1.50774939176400
C   7   6    -2.01249334291722     1.41331050329955    -1.50315905028694
H   8   1     3.32037363730244    -2.26721897153159    -0.13599698591495
C   9   6     3.45899267434009     0.28739631745591    -3.37437943254505
H   10   1     1.07662969841332    -2.94725144642667    -2.56541439481080
H   11   1    -2.67503415753480     0.18421555839588    -3.06194479365997
H   12   1    -1.07974048864772     3.03851734677796    -2.43674295017013
C   13   6    -4.21607110578555     2.32938802552922     0.11994162256091
H   14   1     4.24440173074564     1.93368664142019    -2.34976285512790
H   15   1     2.15020713235517     1.04714335134846    -4.81494497423699
C   16   6     5.60746363007797    -1.12419643481196    -4.70268606082550
H   17   1    -3.46838323670267     3.50951302338067     1.66946842715333
H   18   1    -5.11873485366228     0.68575958301209     1.04047743976495
C   19   6    -6.18314754751344     3.80909592987882    -1.39656589068747
H   20   1     6.93011263717176    -1.87550812453645    -3.26656317360070
C   21   6     7.06356622236532     0.52877932406334    -6.57829775293605
H   22   1     4.82318879258361    -2.78573437948532    -5.70504560381835
H   23   1    -6.91582688743803     2.61304780074712    -2.95074552451969
H   24   1    -5.26532430573853     5.45420349051338    -2.31005832200284
C   25   6    -8.39941882261433     4.73263980500213     0.21800571437956
H   26   1     7.83338371486801     2.19084139882824    -5.57093109900697
H   27   1     5.73544244039420     1.27376866537418    -8.01071492370229
C   28   6     9.21124858443101    -0.89699110072176    -7.88926949186242
H   29   1    -7.66272760055236     5.92277078003992     1.77035591474408
H   30   1    -9.31497248082589     3.08753015622020     1.12614408368786
C   31   6   -10.35481709231879     6.21833079391143    -1.30905206253246
H   32   1    10.58815905329501    -1.61074586756696    -6.49512691622620
H   33   1    10.23506248045667     0.32468009384095    -9.23072870921204
H   34   1     8.47665842847139    -2.53598436989925    -8.94921964622535
H   35   1    -9.48948872868064     7.90013588951020    -2.18823918416067
H   36   1   -11.93332513000955     6.86460487874102    -0.11255798845995
H   37   1   -11.15126291841033     5.04495968327630    -2.83849898862534
[GTO]
1 0
 s    8 1.00
                 11720  0.00070964594651845
                  1759  0.0054672722921914
                 400.8   0.027823118610189
                 113.7    0.10474773971146
                 37.03    0.28292084635691
                 13.27    0.44849523869833
                 5.025    0.27081688521277
                 1.013    0.01545029160744
 s    8 1.00
                 11720  -0.00031444341168873
                  1759  -0.0024821376810179
                 400.8  -0.012316355381583
                 113.7  -0.050538917343672
                 37.03   -0.13938490331632
                 13.27   -0.32507749481778
                 5.025   -0.22984830758785
                 1.013     1.0953793467883
 s    1 1.00
                0.3023                   1
 p    3 1.00
                  17.7   0.062679166281506
                 3.854    0.33353656587936
                 1.046    0.74123964163973
 p    1 1.00
                0.2753                   1
 d    1 1.00
                 1.185                   1

2 0
 s    3 1.00
                 13.01   0.033498726389998
                 1.962    0.23480080117413
                0.4446     0.8136829578829
 s    1 1.00
                 0.122                   1
 p    1 1.00
                 0.727                   1

3 0
 s    3 1.00
                 13.01   0.033498726389998
                 1.962    0.23480080117413
                0.4446     0.8136829578829
 s    1 1.00
                 0.122                   1
 p    1 1.00
                 0.727                   1

4 0
 s    8 1.00
                 11720  0.00070964594651845
                  1759  0.0054672722921914
                 400.8   0.027823118610189
                 113.7    0.10474773971146
                 37.03    0.28292084635691
                 13.27    0.44849523869833
                 5.025    0.27081688521277
                 1.013    0.01545029160744
 s    8 1.00
                 11720  -0.00031444341168873
                  1759  -0.0024821376810179
                 400.8  -0.012316355381583
                 113.7  -0.050538917343672
                 37.03   -0.13938490331632
                 13.27   -0.32507749481778
                 5.025   -0.22984830758785
                 1.013     1.0953793467883
 s    1 1.00
                0.3023                   1
 p    3 1.00
                  17.7   0.062679166281506
                 3.854    0.33353656587936
                 1.046    0.74123964163973
 p    1 1.00
                0.2753                   1
 d    1 1.00
                 1.185                   1

5 0
 s    8 1.00
                  6665  0.00069158396281299
                  1000  0.0053257961529341
                   228   0.027060721042034
                 64.71    0.10165684614077
                 21.06     0.2745748236174
                 7.495    0.44829431892377
                 2.797    0.28490261071525
                0.5215   0.015194859206082
 s    8 1.00
                  6665  -0.00029326965268655
                  1000  -0.0023180354739745
                   228  -0.011499786038565
                 64.71  -0.046826727009787
                 21.06   -0.12846616875047
                 7.495   -0.30126627246289
                 2.797   -0.25563070233011
                0.5215      1.093793361012
 s    1 1.00
                0.1596                   1
 p    3 1.00
                 9.439   0.056979251590039
                 2.002    0.31320721150073
                0.5456    0.76037674173753
 p    1 1.00
                0.1517                   1
 d    1 1.00
                  0.55                   1

6 0
 s    8 1.00
                  6665  0.00069158396281299
                  1000  0.0053257961529341
                   228   0.027060721042034
                 64.71    0.10165684614077
                 21.06     0.2745748236174
                 7.495    0.44829431892377
                 2.797    0.28490261071525
                0.5215   0.015194859206082
 s    8 1.00
                  6665  -0.00029326965268655
                  1000  -0.0023180354739745
                   228  -0.011499786038565
                 64.71  -0.046826727009787
                 21.06   -0.12846616875047
                 7.495   -0.30126627246289
                 2.797   -0.25563070233011
                0.5215      1.093793361012
 s    1 1.00
                0.1596                   1
 p    3 1.00
                 9.439   0.056979251590039
                 2.002    0.31320721150073
                0.5456    0.76037674173753
 p    1 1.00
                0.1517                   1
 d    1 1.00
                  0.55                   1

7 0
 s    8 1.00
                  6665  0.00069158396281299
                  1000  0.0053257961529341
                   228   0.027060721042034
                 64.71    0.10165684614077
                 21.06     0.2745748236174
                 7.495    0.44829431892377
                 2.797    0.28490261071525
                0.5215   0.015194859206082
 s    8 1.00
                  6665  -0.00029326965268655
                  1000  -0.0023180354739745
                   228  -0.011499786038565
                 64.71  -0.046826727009787
                 21.06   -0.12846616875047
                 7.495   -0.30126627246289
                 2.797   -0.25563070233011
                0.5215      1.093793361012
 s    1 1.00
                0.1596                   1
 p    3 1.00
                 9.439   0.056979251590039
                 2.002    0.31320721150073
                0.5456    0.76037674173753
 p    1 1.00
                0.1517                   1
 d    1 1.00
                  0.55                   1

8 0
 s    3 1.00
                 13.01   0.033498726389998
                 1.962    0.23480080117413
                0.4446     0.8136829578829
 s    1 1.00
                 0.122                   1
 p    1 1.00
                 0.727                   1

9 0
 s    8 1.00
                  6665  0.00069158396281299
                  1000  0.0053257961529341
                   228   0.027060721042034
                 64.71    0.10165684614077
                 21.06     0.2745748236174
                 7.495    0.44829431892377
                 2.797    0.28490261071525
                0.5215   0.015194859206082
 s    8 1.00
                  6665  -0.00029326965268655
                  1000  -0.0023180354739745
                   228  -0.011499786038565
                 64.71  -0.046826727009787
                 21.06   -0.12846616875047
                 7.495   -0.30126627246289
                 2.797   -0.25563070233011
                0.5215      1.093793361012
 s    1 1.00
                0.1596                   1
 p    3 1.00
                 9.439   0.056979251590039
                 2.002    0.31320721150073
                0.5456    0.76037674173753
 p    1 1.00
                0.1517                   1
 d    1 1.00
                  0.55                   1

10 0
 s    3 1.00
                 13.01   0.033498726389998
                 1.962    0.23480080117413
                0.4446     0.8136829578829
 s    1 1.00
                 0.122                   1
 p    1 1.00
                 0.727                   1

11 0
 s    3 1.00
                 13.01   0.033498726389998
                 1.962    0.23480080117413
                0.4446     0.8136829578829
 s    1 1.00
                 0.122                   1
 p    1 1.00
                 0.727                   1

12 0
 s    3 1.00
                 13.01   0.033498726389998
                 1.962    0.23480080117413
                0.4446     0.8136829578829
 s    1 1.00
                 0.122                   1
 p    1 1.00
                 0.727                   1

13 0
 s    8 1.00
                  6665  0.00069158396281299
                  1000  0.0053257961529341
                   228   0.027060721042034
                 64.71    0.10165684614077
                 21.06     0.2745748236174
                 7.495    0.44829431892377
                 2.797    0.28490261071525
                0.5215   0.015194859206082
 s    8 1.00
                  6665  -0.00029326965268655
                  1000  -0.0023180354739745
                   228  -0.011499786038565
                 64.71  -0.046826727009787
                 21.06   -0.12846616875047
                 7.495   -0.30126627246289
                 2.797   -0.25563070233011
                0.5215      1.093793361012
 s    1 1.00
                0.1596                   1
 p    3 1.00
                 9.439   0.056979251590039
                 2.002    0.31320721150073
                0.5456    0.76037674173753
 p    1 1.00
                0.1517                   1
 d    1 1.00
                  0.55                   1

14 0
 s    3 1.00
                 13.01   0.033498726389998
                 1.962    0.23480080117413
                0.4446     0.8136829578829
 s    1 1.00
                 0.122                   1
 p    1 1.00
                 0.727                   1

15 0
 s    3 1.00
                 13.01   0.033498726389998
                 1.962    0.23480080117413
                0.4446     0.8136829578829
 s    1 1.00
                 0.122                   1
 p    1 1.00
                 0.727                   1

16 0
 s    8 1.00
                  6665  0.00069158396281299
                  1000  0.0053257961529341
                   228   0.027060721042034
                 64.71    0.10165684614077
                 21.06     0.2745748236174
                 7.495    0.44829431892377
                 2.797    0.28490261071525
                0.5215   0.015194859206082
 s    8 1.00
                  6665  -0.00029326965268655
                  1000  -0.0023180354739745
                   228  -0.011499786038565
                 64.71  -0.046826727009787
                 21.06   -0.12846616875047
                 7.495   -0.30126627246289
                 2.797   -0.25563070233011
                0.5215      1.093793361012
 s    1 1.00
                0.1596                   1
 p    3 1.00
                 9.439   0.056979251590039
                 2.002    0.31320721150073
                0.5456    0.76037674173753
 p    1 1.00
                0.1517                   1
 d    1 1.00
                  0.55                   1

17 0
 s    3 1.00
                 13.01   0.033498726389998
                 1.962    0.23480080117413
                0.4446     0.8136829578829
 s    1 1.00
                 0.122                   1
 p    1 1.00
                 0.727                   1

18 0
 s    3 1.00
                 13.01   0.033498726389998
                 1.962    0.23480080117413
                0.4446     0.8136829578829
 s    1 1.00
                 0.122                   1
 p    1 1.00
                 0.727                   1

19 0
 s    8 1.00
                  6665  0.00069158396281299
                  1000  0.0053257961529341
                   228   0.027060721042034
                 64.71    0.10165684614077
                 21.06     0.2745748236174
                 7.495    0.44829431892377
                 2.797    0.28490261071525
                0.5215   0.015194859206082
 s    8 1.00
                  6665  -0.00029326965268655
                  1000  -0.0023180354739745
                   228  -0.011499786038565
                 64.71  -0.046826727009787
                 21.06   -0.12846616875047
                 7.495   -0.30126627246289
                 2.797   -0.25563070233011
                0.5215      1.093793361012
 s    1 1.00
                0.1596                   1
 p    3 1.00
                 9.439   0.056979251590039
                 2.002    0.31320721150073
                0.5456    0.76037674173753
 p    1 1.00
                0.1517                   1
 d    1 1.00
                  0.55                   1

20 0
 s    3 1.00
                 13.01   0.033498726389998
                 1.962    0.23480080117413
                0.4446     0.8136829578829
 s    1 1.00
                 0.122                   1
 p    1 1.00
                 0.727                   1

21 0
 s    8 1.00
                  6665  0.00069158396281299
                  1000  0.0053257961529341
                   228   0.027060721042034
                 64.71    0.10165684614077
                 21.06     0.2745748236174
                 7.495    0.44829431892377
                 2.797    0.28490261071525
                0.5215   0.015194859206082
 s    8 1.00
                  6665  -0.00029326965268655
                  1000  -0.0023180354739745
                   228  -0.011499786038565
                 64.71  -0.046826727009787
                 21.06   -0.12846616875047
                 7.495   -0.30126627246289
                 2.797   -0.25563070233011
                0.5215      1.093793361012
 s    1 1.00
                0.1596                   1
 p    3 1.00
                 9.439   0.056979251590039
                 2.002    0.31320721150073
                0.5456    0.76037674173753
 p    1 1.00
                0.1517                   1
 d    1 1.00
                  0.55                   1

22 0
 s    3 1.00
                 13.01   0.033498726389998
                 1.962    0.23480080117413
                0.4446     0.8136829578829
 s    1 1.00
                 0.122                   1
 p    1 1.00
                 0.727                   1

23 0
 s    3 1.00
                 13.01   0.033498726389998
                 1.962    0.23480080117413
                0.4446     0.8136829578829
 s    1 1.00
                 0.122                   1
 p    1 1.00
                 0.727                   1

24 0
 s    3 1.00
                 13.01   0.033498726389998
                 1.962    0.23480080117413
                0.4446     0.8136829578829
 s    1 1.00
                 0.122                   1
 p    1 1.00
                 0.727                   1

25 0
 s    8 1.00
                  6665  0.00069158396281299
                  1000  0.0053257961529341
                   228   0.027060721042034
                 64.71    0.10165684614077
                 21.06     0.2745748236174
                 7.495    0.44829431892377
                 2.797    0.28490261071525
                0.5215   0.015194859206082
 s    8 1.00
                  6665  -0.00029326965268655
                  1000  -0.0023180354739745
                   228  -0.011499786038565
                 64.71  -0.046826727009787
                 21.06   -0.12846616875047
                 7.495   -0.30126627246289
                 2.797   -0.25563070233011
                0.5215      1.093793361012
 s    1 1.00
                0.1596                   1
 p    3 1.00
                 9.439   0.056979251590039
                 2.002    0.31320721150073
                0.5456    0.76037674173753
 p    1 1.00
                0.1517                   1
 d    1 1.00
                  0.55                   1

26 0
 s    3 1.00
                 13.01   0.033498726389998
                 1.962    0.23480080117413
                0.4446     0.8136829578829
 s    1 1.00
                 0.122                   1
 p    1 1.00
                 0.727                   1

27 0
 s    3 1.00
                 13.01   0.033498726389998
                 1.962    0.23480080117413
                0.4446     0.8136829578829
 s    1 1.00
                 0.122                   1
 p    1 1.00
                 0.727                   1

28 0
 s    8 1.00
                  6665  0.00069158396281299
                  1000  0.0053257961529341
                   228   0.027060721042034
                 64.71    0.10165684614077
                 21.06     0.2745748236174
                 7.495    0.44829431892377
                 2.797    0.28490261071525
                0.5215   0.015194859206082
 s    8 1.00
                  6665  -0.00029326965268655
                  1000  -0.0023180354739745
                   228  -0.011499786038565
                 64.71  -0.046826727009787
                 21.06   -0.12846616875047
                 7.495   -0.30126627246289
                 2.797   -0.25563070233011
                0.5215      1.093793361012
 s    1 1.00
                0.1596                   1
 p    3 1.00
                 9.439   0.056979251590039
                 2.002    0.31320721150073
                0.5456    0.76037674173753
 p    1 1.00
                0.1517                   1
 d    1 1.00
                  0.55                   1

29 0
 s    3 1.00
                 13.01   0.033498726389998
                 1.962    0.23480080117413
                0.4446     0.8136829578829
 s    1 1.00
                 0.122                   1
 p    1 1.00
                 0.727                   1

30 0
 s    3 1.00
                 13.01   0.033498726389998
                 1.962    0.23480080117413
                0.4446     0.8136829578829
 s    1 1.00
                 0.122                   1
 p    1 1.00
                 0.727                   1

31 0
 s    8 1.00
                  6665  0.00069158396281299
                  1000  0.0053257961529341
                   228   0.027060721042034
                 64.71    0.10165684614077
                 21.06     0.2745748236174
                 7.495    0.44829431892377
                 2.797    0.28490261071525
                0.5215   0.015194859206082
 s    8 1.00
                  6665  -0.00029326965268655
                  1000  -0.0023180354739745
                   228  -0.011499786038565
                 64.71  -0.046826727009787
                 21.06   -0.12846616875047
                 7.495   -0.30126627246289
                 2.797   -0.25563070233011
                0.5215      1.093793361012
 s    1 1.00
                0.1596                   1
 p    3 1.00
                 9.439   0.056979251590039
                 2.002    0.31320721150073
                0.5456    0.76037674173753
 p    1 1.00
                0.1517                   1
 d    1 1.00
                  0.55                   1

32 0
 s    3 1.00
                 13.01   0.033498726389998
                 1.962    0.23480080117413
                0.4446     0.8136829578829
 s    1 1.00
                 0.122                   1
 p    1 1.00
                 0.727                   1

33 0
 s    3 1.00
                 13.01   0.033498726389998
                 1.962    0.23480080117413
                0.4446     0.8136829578829
 s    1 1.00
                 0.122                   1
 p    1 1.00
                 0.727                   1

34 0
 s    3 1.00
                 13.01   0.033498726389998
                 1.962    0.23480080117413
                0.4446     0.8136829578829
 s    1 1.00
                 0.122                   1
 p    1 1.00
                 0.727                   1

35 0
 s    3 1.00
                 13.01   0.033498726389998
                 1.962    0.23480080117413
                0.4446     0.8136829578829
 s    1 1.00
                 0.122                   1
 p    1 1.00
                 0.727                   1

36 0
 s    3 1.00
                 13.01   0.033498726389998
                 1.962    0.23480080117413
                0.4446     0.8136829578829
 s    1 1.00
                 0.122                   1
 p    1 1.00
                 0.727                   1

37 0
 s    3 1.00
                 13.01   0.033498726389998
                 1.962    0.23480080117413
                0.4446     0.8136829578829
 s    1 1.00
                 0.122                   1
 p    1 1.00
                 0.727                   1

[5d]
[7f]
[9g]

[MO]
 Sym= A
 Ene=               0
 Spin= Alpha
 Occup=    1.00000
   1    5.9577040499441e-05
   2    2.1601893650949e-05
   3    -8.1277479454594e-05
   4    7.842327043356e-08
   5    -3.0782401369607e-06
   6    -2.5575344942016e-07
   7    -4.9443988980878e-07
   8    1.718113920283e-05
   9    5.8922052877715e-05
  10    -1.080965375375e-05
  11    -1.5023384167453e-08
  12    7.4756359123459e-07
  13    -5.6157459499528e-07
  14    -3.0914351433101e-08
  15    1.0349676523016e-05
  16    0.00011739477707243
  17    2.7782111872694e-08
  18    -1.0608228249234e-06
  19    3.2826965834554e-05
  20    4.8171355543691e-06
  21    -4.6361321341747e-05
  22    -1.4999336725888e-07
  23    5.222028408502e-06
  24    -1.823876724418e-06
  25      -1.0013594781069
  26    -0.001935665799231
  27    0.0067975121429988
  28    2.3859645611011e-06
  29    -8.7094389703052e-06
  30    0.0016336760311491
  31    6.9213020094869e-06
  32    -3.9775269371619e-06
  33    -0.0018443053523581
  34    -0.00012920743587259
  35    3.4436817396584e-06
  36    -1.6102734898574e-06
  37    -6.7561080498585e-05
  38    0.0001759137637938
  39    -0.00028878491945815
  40    -0.00037986090242343
  41    -0.001444309888732
  42    -1.4601476076799e-05
  43    1.0326686506423e-05
  44    -7.0361076128429e-06
  45    -0.00012272695286412
  46    8.6796677331863e-05
  47    -0.0035258363411654
  48     0.000574789105399
  49    1.7904976568635e-05
  50    -8.5598692129366e-06
  51    -3.5574932258438e-05
  52    0.0001350984509614
  53    -0.00037245088366986
  54    -6.968113047452e-05
  55    -0.001461755702895
  56    -0.00020314206535974
  57    0.00017529734649557
  58    -0.00017515559254421
  59    0.00035732511400151
  60    -0.00036868982720434
  61    0.00084128294597666
  62    0.00011844151905909
  63    -0.00016664873942917
  64    0.00015055703951662
  65    -5.540517614539e-05
  66    0.00013419359717039
  67    -0.00042799584395887
  68    -0.00020936266080034
  69    -0.0007592996713413
  70    0.00043132210265583
  71    -0.0003356071447385
  72    -0.00034777027921485
  73    -0.00082651585679317
  74    0.00063413504113206
  75     0.000414806217049
  76    0.0001651059971958
  77    0.00014447291763328
  78    -8.3769872425105e-05
  79    -8.663660279262e-05
  80    0.00017961243608992
  81    -0.00030176245941782
  82    -0.00030704053047419
  83    -4.5197754609972e-05
  84    3.6294843156455e-05
  85    -2.9432953069093e-05
  86    -4.1023540110422e-05
  87    -9.8912770680837e-05
  88    0.0005622040732462
  89     8.16246185389e-06
  90    -8.9418578766059e-05
  91    8.2759357130351e-06
  92    -0.00024439528764439
  93    -0.000687472981481
  94    1.4812157948437e-05
  95    -2.47747823674e-05
  96    -1.8381284249817e-05
  97    5.9847121952651e-08
  98    2.9020591501397e-05
  99    4.5082054310686e-05
 100    -4.2433291708759e-05
 101    0.00015705396970982
 102    -1.8423433383203e-05
 103    5.8257858977165e-06
 104    -8.7240823671254e-05
 105    0.00023100643733408
 106    0.00036620823318017
 107    7.4942222319047e-05
 108    -1.1928366116619e-05
 109    -7.5498591440745e-05
 110    -0.00011200231555085
 111    0.00010321949846378
 112    5.597449168021e-05
 113    -1.9286483705272e-05
 114    -8.3998599141385e-05
 115    -0.0003296221582547
 116    -4.1854567979015e-05
 117    -0.00096948041821964
 118    -0.00015833345779902
 119    0.00010022928703036
 120    0.00078926205638866
 121    -0.00039046634519381
 122    2.3312272037193e-05
 123    0.00053757235183698
 124    1.7170411787548e-05
 125    2.2657069377038e-05
 126    -6.959137995264e-06
 127    -6.2421127846454e-06
 128    5.216870559456e-07
 129    -7.3291234500356e-05
 130    0.00029808698373077
 131    -4.4436824615116e-06
 132    -1.1987927128215e-06
 133    -2.1818706816848e-05
 134    -0.00010953362577279
 135    6.2206888928197e-05
 136    7.9001825270808e-06
 137    2.3992692785255e-05
 138    2.1841949552564e-05
 139    1.0892022123028e-05
 140    4.9658648824932e-05
 141    -0.00026750343298538
 142    -7.8391978476861e-06
 143    4.4428678551918e-05
 144    3.6321998548021e-06
 145    0.00023401707077346
 146    -2.724050573837e-05
 147    -6.1360738438204e-05
 148    4.3246519547207e-06
 149    -7.4782111505747e-06
 150    -4.9489636561119e-07
 151    -9.3328896600318e-06
 152    1.006903939651e-05
 153    0.0005898506322764
 154    0.00034860383302353
 155    8.3471258445842e-06
 156    -4.9691703195936e-05
 157    -3.1920778351521e-05
 158    0.00029185441995376
 159    0.00021388188168887
 160    6.6423474341079e-05
 161    2.7368599115629e-05
 162    4.5592949087654e-06
 163    8.6314746626838e-05
 164    -4.9692033988881e-06
 165    0.00020153658706958
 166    -0.00018661219020235
 167    0.0001348674860159
 168    -0.00024538182077479
 169    -0.00031003561750529
 170    0.00027796901773773
 171    -3.2522458248372e-06
 172    2.9539682371937e-05
 173    -6.1047973279806e-06
 174    1.7521546712013e-05
 175    -1.7290949759454e-05
 176    5.2830305492826e-05
 177    -1.1699209778744e-06
 178    -0.00010448290399273
 179    1.4459402578444e-06
 180    -8.336753519387e-07
 181    5.4823452691743e-06
 182    -2.1913575213913e-05
 183    -1.0133879498632e-05
 184    8.7715736816956e-05
 185    -8.6873065905642e-06
 186    -1.4101007936498e-05
 187    2.2058874858217e-05
 188    -0.00012282199422794
 189    9.1346614694262e-05
 190     9.18644600628e-05
 191    -3.9636616710456e-07
 192    -3.8595451458279e-06
 193    7.7856258752692e-06
 194    3.7096061350336e-06
 195    6.0802746027038e-06
 196    -1.4463514668415e-05
 197    5.0225885946342e-06
 198    -6.5839401449228e-06
 199    -1.999935044161e-06
 200    2.7658677517378e-06
 201    0.00020084164568618
 202    0.00012516703313494
 203    1.5280141475085e-05
 204    -6.3958639872232e-08
 205    -7.6948999939272e-06
 206    0.00012753156216876
 207    1.172487944089e-05
 208    7.3346446061951e-06
 209    -1.0301383005941e-05
 210    -1.7534600844251e-05
 211    5.2043882716272e-06
 212    1.6089829319382e-05
 213    -0.00030017172892505
 214    -1.1670581448968e-05
 215    -2.9130678171367e-06
 216    -3.5356331614725e-06
 217    -0.00020950975972363
 218    5.1570302542893e-05
 219    7.5255758669845e-05
 220    1.3348172573796e-05
 221    6.3890015354059e-06
 222    -2.4482410930955e-06
 223    -1.0496613768584e-05
 224    6.4510900798401e-06
 225    -1.9484736348235e-05
 226    -5.7214047483239e-05
 227    1.1276618406383e-05
 228    9.9529917552841e-07
 229    1.316245236061e-06
 230    -1.5936334763289e-05
 231    -5.9926826948814e-05
 232    3.4962762835073e-06
 233    -6.4410197557524e-06
 234    -1.0999001836102e-05
 235     -3.8627161906e-06
 236    -1.9249287988247e-07
 237    6.6781521038175e-05
 238    2.0255111639288e-06
 239    -3.2999605033685e-06
 240    -4.0112327022102e-06
 241    -2.7656572743235e-05
 242    5.8736637496638e-05
 243    -2.6701811519847e-05
 244    -1.1785325267785e-06
 245    -2.4631293716811e-06
 246    1.7081765421989e-06
 247    -1.8445629664169e-08
 248    3.6205304388247e-07
 249    1.3870975607663e-05
 250    3.5690178793598e-06
 251    6.329075167753e-06
 252    1.2570184583731e-06
 253    1.8272597369622e-06
 254    2.0810602780516e-05
 255    -4.5002739034462e-05
 256    -1.1179186466496e-08
 257    -5.6909562374015e-06
 258    1.5309109730616e-06
 259    4.0664655251296e-06
 260    4.9593573307401e-06
 261    -0.00010632459254282
 262    -1.7770803608783e-05
 263    1.2432455022778e-05