[Molden Format]
made by pyscf v[2.0.1]
[Atoms] (AU)
O   1   8     0.00000000000000     0.00000000000000     6.40640788651141
H   2   1     0.00000000000000     0.00000000000000     4.58300606461044
H   3   1    -0.05031916615174     1.78353439551780     6.78227958297808
O   4   8     0.00000000000000     0.00000000000000     2.31533471513237
C   5   6     0.00000000000000     0.00000000000000     0.00000000000000
C   6   6     2.01118073026938    -1.40227222164369    -1.50774939176400
C   7   6    -2.01249334291722     1.41331050329955    -1.50319235519811
H   8   1     3.32037363730244    -2.26721897153159    -0.13599698591495
C   9   6     3.45899267434009     0.28739631745591    -3.37437943254505
H   10   1     1.07662969841332    -2.94725144642667    -2.56541439481080
H   11   1    -2.67503415753480     0.18421555839588    -3.06194479365997
H   12   1    -1.08005520873877     3.03851734677796    -2.43674295017013
C   13   6    -4.21607110578555     2.32938802552922     0.11994192435017
H   14   1     4.24440173074564     1.93368664387684    -2.34976285512790
H   15   1     2.18907033049676     1.04714335134846    -4.81494497423699
C   16   6     5.60746363007797    -1.12419643481196    -4.70268606082550
H   17   1    -3.46838323670267     3.50951302338067     1.66946842715333
H   18   1    -5.11873485366228     0.68575958301209     1.04047743976495
C   19   6    -6.18314754751344     3.80909592987882    -1.39656589068747
H   20   1     6.93011263717176    -1.87550812453645    -3.26656317360070
C   21   6     7.10306991577580     0.52877932406334    -6.57829775293605
H   22   1     4.82318879258361    -2.78573437948532    -5.70504560381835
H   23   1    -6.91582688743803     2.61304780074712    -2.95074552451969
H   24   1    -5.26532430573853     5.45420349051338    -2.31005832200284
C   25   6    -8.39941882261433     4.73263980500213     0.21800571437956
H   26   1     7.83338371486801     2.19084139882824    -5.57093109900697
H   27   1     5.73544244039420     1.27376866537418    -8.01071492370229
C   28   6     9.21124858443101    -0.89699110072176    -7.88926949186242
H   29   1    -7.66272760055236     5.92277078003992     1.77035591474408
H   30   1    -9.31497248082589     3.08753015622020     1.12614408368786
C   31   6   -10.35481709231879     6.21833079391143    -1.30905206253246
H   32   1    10.58815905329501    -1.61099162890610    -6.52093739071026
H   33   1    10.23506248045667     0.32468009384095    -9.23072870921204
H   34   1     8.47665842847139    -2.53598436989925    -8.94921964622535
H   35   1    -9.48948872868064     7.90013588951020    -2.18823918416067
H   36   1   -11.93332774482359     6.86460487874102    -0.11255798845995
H   37   1   -11.15126291841033     5.04495968327630    -2.83849898862534
[GTO]
1 0
 s    8 1.00
                 11720  0.00070964594651845
                  1759  0.0054672722921914
                 400.8   0.027823118610189
                 113.7    0.10474773971146
                 37.03    0.28292084635691
                 13.27    0.44849523869833
                 5.025    0.27081688521277
                 1.013    0.01545029160744
 s    8 1.00
                 11720  -0.00031444341168873
                  1759  -0.0024821376810179
                 400.8  -0.012316355381583
                 113.7  -0.050538917343672
                 37.03   -0.13938490331632
                 13.27   -0.32507749481778
                 5.025   -0.22984830758785
                 1.013     1.0953793467883
 s    1 1.00
                0.3023                   1
 p    3 1.00
                  17.7   0.062679166281506
                 3.854    0.33353656587936
                 1.046    0.74123964163973
 p    1 1.00
                0.2753                   1
 d    1 1.00
                 1.185                   1

2 0
 s    3 1.00
                 13.01   0.033498726389998
                 1.962    0.23480080117413
                0.4446     0.8136829578829
 s    1 1.00
                 0.122                   1
 p    1 1.00
                 0.727                   1

3 0
 s    3 1.00
                 13.01   0.033498726389998
                 1.962    0.23480080117413
                0.4446     0.8136829578829
 s    1 1.00
                 0.122                   1
 p    1 1.00
                 0.727                   1

4 0
 s    8 1.00
                 11720  0.00070964594651845
                  1759  0.0054672722921914
                 400.8   0.027823118610189
                 113.7    0.10474773971146
                 37.03    0.28292084635691
                 13.27    0.44849523869833
                 5.025    0.27081688521277
                 1.013    0.01545029160744
 s    8 1.00
                 11720  -0.00031444341168873
                  1759  -0.0024821376810179
                 400.8  -0.012316355381583
                 113.7  -0.050538917343672
                 37.03   -0.13938490331632
                 13.27   -0.32507749481778
                 5.025   -0.22984830758785
                 1.013     1.0953793467883
 s    1 1.00
                0.3023                   1
 p    3 1.00
                  17.7   0.062679166281506
                 3.854    0.33353656587936
                 1.046    0.74123964163973
 p    1 1.00
                0.2753                   1
 d    1 1.00
                 1.185                   1

5 0
 s    8 1.00
                  6665  0.00069158396281299
                  1000  0.0053257961529341
                   228   0.027060721042034
                 64.71    0.10165684614077
                 21.06     0.2745748236174
                 7.495    0.44829431892377
                 2.797    0.28490261071525
                0.5215   0.015194859206082
 s    8 1.00
                  6665  -0.00029326965268655
                  1000  -0.0023180354739745
                   228  -0.011499786038565
                 64.71  -0.046826727009787
                 21.06   -0.12846616875047
                 7.495   -0.30126627246289
                 2.797   -0.25563070233011
                0.5215      1.093793361012
 s    1 1.00
                0.1596                   1
 p    3 1.00
                 9.439   0.056979251590039
                 2.002    0.31320721150073
                0.5456    0.76037674173753
 p    1 1.00
                0.1517                   1
 d    1 1.00
                  0.55                   1

6 0
 s    8 1.00
                  6665  0.00069158396281299
                  1000  0.0053257961529341
                   228   0.027060721042034
                 64.71    0.10165684614077
                 21.06     0.2745748236174
                 7.495    0.44829431892377
                 2.797    0.28490261071525
                0.5215   0.015194859206082
 s    8 1.00
                  6665  -0.00029326965268655
                  1000  -0.0023180354739745
                   228  -0.011499786038565
                 64.71  -0.046826727009787
                 21.06   -0.12846616875047
                 7.495   -0.30126627246289
                 2.797   -0.25563070233011
                0.5215      1.093793361012
 s    1 1.00
                0.1596                   1
 p    3 1.00
                 9.439   0.056979251590039
                 2.002    0.31320721150073
                0.5456    0.76037674173753
 p    1 1.00
                0.1517                   1
 d    1 1.00
                  0.55                   1

7 0
 s    8 1.00
                  6665  0.00069158396281299
                  1000  0.0053257961529341
                   228   0.027060721042034
                 64.71    0.10165684614077
                 21.06     0.2745748236174
                 7.495    0.44829431892377
                 2.797    0.28490261071525
                0.5215   0.015194859206082
 s    8 1.00
                  6665  -0.00029326965268655
                  1000  -0.0023180354739745
                   228  -0.011499786038565
                 64.71  -0.046826727009787
                 21.06   -0.12846616875047
                 7.495   -0.30126627246289
                 2.797   -0.25563070233011
                0.5215      1.093793361012
 s    1 1.00
                0.1596                   1
 p    3 1.00
                 9.439   0.056979251590039
                 2.002    0.31320721150073
                0.5456    0.76037674173753
 p    1 1.00
                0.1517                   1
 d    1 1.00
                  0.55                   1

8 0
 s    3 1.00
                 13.01   0.033498726389998
                 1.962    0.23480080117413
                0.4446     0.8136829578829
 s    1 1.00
                 0.122                   1
 p    1 1.00
                 0.727                   1

9 0
 s    8 1.00
                  6665  0.00069158396281299
                  1000  0.0053257961529341
                   228   0.027060721042034
                 64.71    0.10165684614077
                 21.06     0.2745748236174
                 7.495    0.44829431892377
                 2.797    0.28490261071525
                0.5215   0.015194859206082
 s    8 1.00
                  6665  -0.00029326965268655
                  1000  -0.0023180354739745
                   228  -0.011499786038565
                 64.71  -0.046826727009787
                 21.06   -0.12846616875047
                 7.495   -0.30126627246289
                 2.797   -0.25563070233011
                0.5215      1.093793361012
 s    1 1.00
                0.1596                   1
 p    3 1.00
                 9.439   0.056979251590039
                 2.002    0.31320721150073
                0.5456    0.76037674173753
 p    1 1.00
                0.1517                   1
 d    1 1.00
                  0.55                   1

10 0
 s    3 1.00
                 13.01   0.033498726389998
                 1.962    0.23480080117413
                0.4446     0.8136829578829
 s    1 1.00
                 0.122                   1
 p    1 1.00
                 0.727                   1

11 0
 s    3 1.00
                 13.01   0.033498726389998
                 1.962    0.23480080117413
                0.4446     0.8136829578829
 s    1 1.00
                 0.122                   1
 p    1 1.00
                 0.727                   1

12 0
 s    3 1.00
                 13.01   0.033498726389998
                 1.962    0.23480080117413
                0.4446     0.8136829578829
 s    1 1.00
                 0.122                   1
 p    1 1.00
                 0.727                   1

13 0
 s    8 1.00
                  6665  0.00069158396281299
                  1000  0.0053257961529341
                   228   0.027060721042034
                 64.71    0.10165684614077
                 21.06     0.2745748236174
                 7.495    0.44829431892377
                 2.797    0.28490261071525
                0.5215   0.015194859206082
 s    8 1.00
                  6665  -0.00029326965268655
                  1000  -0.0023180354739745
                   228  -0.011499786038565
                 64.71  -0.046826727009787
                 21.06   -0.12846616875047
                 7.495   -0.30126627246289
                 2.797   -0.25563070233011
                0.5215      1.093793361012
 s    1 1.00
                0.1596                   1
 p    3 1.00
                 9.439   0.056979251590039
                 2.002    0.31320721150073
                0.5456    0.76037674173753
 p    1 1.00
                0.1517                   1
 d    1 1.00
                  0.55                   1

14 0
 s    3 1.00
                 13.01   0.033498726389998
                 1.962    0.23480080117413
                0.4446     0.8136829578829
 s    1 1.00
                 0.122                   1
 p    1 1.00
                 0.727                   1

15 0
 s    3 1.00
                 13.01   0.033498726389998
                 1.962    0.23480080117413
                0.4446     0.8136829578829
 s    1 1.00
                 0.122                   1
 p    1 1.00
                 0.727                   1

16 0
 s    8 1.00
                  6665  0.00069158396281299
                  1000  0.0053257961529341
                   228   0.027060721042034
                 64.71    0.10165684614077
                 21.06     0.2745748236174
                 7.495    0.44829431892377
                 2.797    0.28490261071525
                0.5215   0.015194859206082
 s    8 1.00
                  6665  -0.00029326965268655
                  1000  -0.0023180354739745
                   228  -0.011499786038565
                 64.71  -0.046826727009787
                 21.06   -0.12846616875047
                 7.495   -0.30126627246289
                 2.797   -0.25563070233011
                0.5215      1.093793361012
 s    1 1.00
                0.1596                   1
 p    3 1.00
                 9.439   0.056979251590039
                 2.002    0.31320721150073
                0.5456    0.76037674173753
 p    1 1.00
                0.1517                   1
 d    1 1.00
                  0.55                   1

17 0
 s    3 1.00
                 13.01   0.033498726389998
                 1.962    0.23480080117413
                0.4446     0.8136829578829
 s    1 1.00
                 0.122                   1
 p    1 1.00
                 0.727                   1

18 0
 s    3 1.00
                 13.01   0.033498726389998
                 1.962    0.23480080117413
                0.4446     0.8136829578829
 s    1 1.00
                 0.122                   1
 p    1 1.00
                 0.727                   1

19 0
 s    8 1.00
                  6665  0.00069158396281299
                  1000  0.0053257961529341
                   228   0.027060721042034
                 64.71    0.10165684614077
                 21.06     0.2745748236174
                 7.495    0.44829431892377
                 2.797    0.28490261071525
                0.5215   0.015194859206082
 s    8 1.00
                  6665  -0.00029326965268655
                  1000  -0.0023180354739745
                   228  -0.011499786038565
                 64.71  -0.046826727009787
                 21.06   -0.12846616875047
                 7.495   -0.30126627246289
                 2.797   -0.25563070233011
                0.5215      1.093793361012
 s    1 1.00
                0.1596                   1
 p    3 1.00
                 9.439   0.056979251590039
                 2.002    0.31320721150073
                0.5456    0.76037674173753
 p    1 1.00
                0.1517                   1
 d    1 1.00
                  0.55                   1

20 0
 s    3 1.00
                 13.01   0.033498726389998
                 1.962    0.23480080117413
                0.4446     0.8136829578829
 s    1 1.00
                 0.122                   1
 p    1 1.00
                 0.727                   1

21 0
 s    8 1.00
                  6665  0.00069158396281299
                  1000  0.0053257961529341
                   228   0.027060721042034
                 64.71    0.10165684614077
                 21.06     0.2745748236174
                 7.495    0.44829431892377
                 2.797    0.28490261071525
                0.5215   0.015194859206082
 s    8 1.00
                  6665  -0.00029326965268655
                  1000  -0.0023180354739745
                   228  -0.011499786038565
                 64.71  -0.046826727009787
                 21.06   -0.12846616875047
                 7.495   -0.30126627246289
                 2.797   -0.25563070233011
                0.5215      1.093793361012
 s    1 1.00
                0.1596                   1
 p    3 1.00
                 9.439   0.056979251590039
                 2.002    0.31320721150073
                0.5456    0.76037674173753
 p    1 1.00
                0.1517                   1
 d    1 1.00
                  0.55                   1

22 0
 s    3 1.00
                 13.01   0.033498726389998
                 1.962    0.23480080117413
                0.4446     0.8136829578829
 s    1 1.00
                 0.122                   1
 p    1 1.00
                 0.727                   1

23 0
 s    3 1.00
                 13.01   0.033498726389998
                 1.962    0.23480080117413
                0.4446     0.8136829578829
 s    1 1.00
                 0.122                   1
 p    1 1.00
                 0.727                   1

24 0
 s    3 1.00
                 13.01   0.033498726389998
                 1.962    0.23480080117413
                0.4446     0.8136829578829
 s    1 1.00
                 0.122                   1
 p    1 1.00
                 0.727                   1

25 0
 s    8 1.00
                  6665  0.00069158396281299
                  1000  0.0053257961529341
                   228   0.027060721042034
                 64.71    0.10165684614077
                 21.06     0.2745748236174
                 7.495    0.44829431892377
                 2.797    0.28490261071525
                0.5215   0.015194859206082
 s    8 1.00
                  6665  -0.00029326965268655
                  1000  -0.0023180354739745
                   228  -0.011499786038565
                 64.71  -0.046826727009787
                 21.06   -0.12846616875047
                 7.495   -0.30126627246289
                 2.797   -0.25563070233011
                0.5215      1.093793361012
 s    1 1.00
                0.1596                   1
 p    3 1.00
                 9.439   0.056979251590039
                 2.002    0.31320721150073
                0.5456    0.76037674173753
 p    1 1.00
                0.1517                   1
 d    1 1.00
                  0.55                   1

26 0
 s    3 1.00
                 13.01   0.033498726389998
                 1.962    0.23480080117413
                0.4446     0.8136829578829
 s    1 1.00
                 0.122                   1
 p    1 1.00
                 0.727                   1

27 0
 s    3 1.00
                 13.01   0.033498726389998
                 1.962    0.23480080117413
                0.4446     0.8136829578829
 s    1 1.00
                 0.122                   1
 p    1 1.00
                 0.727                   1

28 0
 s    8 1.00
                  6665  0.00069158396281299
                  1000  0.0053257961529341
                   228   0.027060721042034
                 64.71    0.10165684614077
                 21.06     0.2745748236174
                 7.495    0.44829431892377
                 2.797    0.28490261071525
                0.5215   0.015194859206082
 s    8 1.00
                  6665  -0.00029326965268655
                  1000  -0.0023180354739745
                   228  -0.011499786038565
                 64.71  -0.046826727009787
                 21.06   -0.12846616875047
                 7.495   -0.30126627246289
                 2.797   -0.25563070233011
                0.5215      1.093793361012
 s    1 1.00
                0.1596                   1
 p    3 1.00
                 9.439   0.056979251590039
                 2.002    0.31320721150073
                0.5456    0.76037674173753
 p    1 1.00
                0.1517                   1
 d    1 1.00
                  0.55                   1

29 0
 s    3 1.00
                 13.01   0.033498726389998
                 1.962    0.23480080117413
                0.4446     0.8136829578829
 s    1 1.00
                 0.122                   1
 p    1 1.00
                 0.727                   1

30 0
 s    3 1.00
                 13.01   0.033498726389998
                 1.962    0.23480080117413
                0.4446     0.8136829578829
 s    1 1.00
                 0.122                   1
 p    1 1.00
                 0.727                   1

31 0
 s    8 1.00
                  6665  0.00069158396281299
                  1000  0.0053257961529341
                   228   0.027060721042034
                 64.71    0.10165684614077
                 21.06     0.2745748236174
                 7.495    0.44829431892377
                 2.797    0.28490261071525
                0.5215   0.015194859206082
 s    8 1.00
                  6665  -0.00029326965268655
                  1000  -0.0023180354739745
                   228  -0.011499786038565
                 64.71  -0.046826727009787
                 21.06   -0.12846616875047
                 7.495   -0.30126627246289
                 2.797   -0.25563070233011
                0.5215      1.093793361012
 s    1 1.00
                0.1596                   1
 p    3 1.00
                 9.439   0.056979251590039
                 2.002    0.31320721150073
                0.5456    0.76037674173753
 p    1 1.00
                0.1517                   1
 d    1 1.00
                  0.55                   1

32 0
 s    3 1.00
                 13.01   0.033498726389998
                 1.962    0.23480080117413
                0.4446     0.8136829578829
 s    1 1.00
                 0.122                   1
 p    1 1.00
                 0.727                   1

33 0
 s    3 1.00
                 13.01   0.033498726389998
                 1.962    0.23480080117413
                0.4446     0.8136829578829
 s    1 1.00
                 0.122                   1
 p    1 1.00
                 0.727                   1

34 0
 s    3 1.00
                 13.01   0.033498726389998
                 1.962    0.23480080117413
                0.4446     0.8136829578829
 s    1 1.00
                 0.122                   1
 p    1 1.00
                 0.727                   1

35 0
 s    3 1.00
                 13.01   0.033498726389998
                 1.962    0.23480080117413
                0.4446     0.8136829578829
 s    1 1.00
                 0.122                   1
 p    1 1.00
                 0.727                   1

36 0
 s    3 1.00
                 13.01   0.033498726389998
                 1.962    0.23480080117413
                0.4446     0.8136829578829
 s    1 1.00
                 0.122                   1
 p    1 1.00
                 0.727                   1

37 0
 s    3 1.00
                 13.01   0.033498726389998
                 1.962    0.23480080117413
                0.4446     0.8136829578829
 s    1 1.00
                 0.122                   1
 p    1 1.00
                 0.727                   1

[5d]
[7f]
[9g]

[MO]
 Sym= A
 Ene=               0
 Spin= Alpha
 Occup=    1.00000
   1    0.00013297325583821
   2    2.7896696345464e-05
   3    0.00029840775313148
   4    -1.6343641314626e-06
   5    9.4439695867845e-07
   6    -0.00012408101093769
   7    3.3970687826456e-06
   8    8.5509316397812e-06
   9    -0.00024292068669099
  10    0.00010976712246362
  11    2.0312270543691e-07
  12    -1.6466143400914e-06
  13    -5.0131679328062e-06
  14    -3.0152646182891e-07
  15    -5.7019070207663e-05
  16    6.9698662026925e-05
  17    1.3130888720892e-06
  18    -5.2212135197418e-06
  19    -0.00039502666091238
  20    -3.7627933601099e-05
  21    3.5781187941658e-05
  22    -3.7401796143216e-07
  23    -8.7711115741976e-06
  24    5.5389771347646e-06
  25      -1.0014267672331
  26    -0.0022154037028984
  27    0.0068786478266134
  28    4.3424607487244e-06
  29    -1.853258897991e-05
  30       0.0014803172469
  31    -1.1083687039633e-06
  32    3.8567787101565e-06
  33    -0.0022357639112217
  34    -0.00023423863621861
  35    2.8049923054296e-06
  36    -6.8908320925473e-07
  37    -5.9460331332214e-05
  38    0.00015759603641918
  39    -0.00031883026760202
  40    -0.00041302613182702
  41    -0.0018233461464707
  42    -1.5744715884573e-05
  43    9.2596003496316e-06
  44    -5.4529874399433e-05
  45    -7.3321527113252e-05
  46    6.4216343276365e-05
  47    -0.0036175434095269
  48    0.00053104162042047
  49    1.2137171029538e-05
  50    -5.3126517536526e-06
  51    -3.9321314816212e-05
  52    0.00014512711532538
  53    -0.00033053470773839
  54    -0.00017408117928914
  55    -0.0015242941307707
  56    -0.000148895025333
  57    0.00011586089025031
  58    0.00010125806181758
  59    0.00033718006536893
  60    -0.00039404497281464
  61    0.0010133174926592
  62    0.00011466403907764
  63    -0.00016686474898655
  64    0.00015491654753018
  65    -4.6503485370052e-05
  66    0.00011409786660171
  67    -0.00046958561975374
  68    -0.00031153662642223
  69    -0.00067428836306501
  70    0.00029604081718274
  71    -0.00024081500232765
  72    -2.6547209226715e-06
  73    -0.00085454935063709
  74    0.00063763307708313
  75    0.00063637812839081
  76    0.00014364530543454
  77    0.00014553114538252
  78    -9.9104150695132e-05
  79    -6.7641432586454e-05
  80    0.00015706736412884
  81    -0.00013758467337407
  82    -0.00022824155226777
  83    -5.2251779398992e-05
  84    4.2356020668917e-05
  85    -3.3315258999488e-05
  86    -4.4123008205918e-05
  87    -7.8815639086944e-05
  88    0.00059192412043798
  89    0.00014740632090895
  90    -4.745203236965e-05
  91    -0.00021094905896985
  92    -0.00019198972198971
  93    -0.00066307142372611
  94    -7.363443236453e-05
  95    -2.0754150829809e-05
  96    -1.0099925126274e-05
  97    8.6824938333859e-06
  98    3.0126723967942e-05
  99    2.6772148039871e-05
 100    -0.00021484943145172
 101    0.00010324707620923
 102    -2.0006306478535e-05
 103    -8.4091316116497e-06
 104    -8.9135672553325e-05
 105    -8.5483499462794e-05
 106    0.00022575185244277
 107    5.966052879028e-05
 108    -2.117312453794e-05
 109    -9.0218152021947e-05
 110    -0.00028426208796848
 111    7.3878941595826e-05
 112    5.838531437867e-05
 113    -2.9382808833156e-06
 114    -8.3034430218661e-05
 115    -0.00040676830345515
 116    -6.2949019199223e-05
 117    -0.0010402520808338
 118    -0.00012481967245775
 119    -1.5616115669986e-05
 120    0.00040942946239689
 121    -0.00032971701164793
 122    -6.0007868566962e-05
 123    0.0003888775265888
 124    5.2770347209784e-06
 125    1.1348973917017e-05
 126    -1.7105032662639e-05
 127    7.7687917068003e-06
 128    -1.9559346293868e-05
 129    -9.7352671107387e-05
 130    0.00028238089085444
 131    -1.4038277380881e-06
 132    3.6393764294964e-07
 133    -2.8591048454923e-05
 134    -8.9510604315479e-06
 135    9.6545086416471e-05
 136    1.9529800202021e-05
 137    2.2403025965084e-05
 138    1.8671612663032e-05
 139    -1.5598126748307e-05
 140    7.7951145079095e-05
 141    -0.00022757943963387
 142    -0.00015993439434319
 143    7.3321639368947e-05
 144    8.3876708378444e-05
 145    0.0001162880454427
 146    -2.5108386740524e-05
 147    -1.0987234051185e-05
 148    -3.0494420417897e-06
 149    -9.4294249904963e-06
 150     9.30008091456e-06
 151    -6.797687742847e-06
 152    -4.5216212515751e-06
 153    0.00025381140689375
 154     0.000186202253036
 155    1.9820313082385e-05
 156    -3.4621237498452e-05
 157    -1.8413008402273e-05
 158    0.00019394806968163
 159    0.00018257977438812
 160    6.1275917704271e-05
 161    1.7209612926332e-05
 162    -4.1987941580976e-06
 163    1.9174033786749e-05
 164    1.8843361276192e-05
 165    0.00033008972356216
 166    -0.00011939479335617
 167    0.00010085379443894
 168    -0.00016279554909659
 169    -0.00024098428413406
 170    0.00023206944610029
 171    6.3293307518321e-05
 172    1.4919581031966e-05
 173    -1.2800975579941e-05
 174    1.444285471386e-05
 175    -1.4119982276054e-05
 176    3.6961332059084e-05
 177    -2.136982734569e-05
 178    -9.9587276052093e-05
 179    5.4068034242813e-08
 180    1.8894702114121e-07
 181    8.0142502713609e-06
 182    -1.551913651127e-05
 183    -2.8053916830075e-05
 184    6.2383565999246e-05
 185    6.5203782905174e-05
 186    2.0909076911584e-05
 187    -4.0237633819724e-05
 188    -8.217141865065e-05
 189    0.00011314872396253
 190    7.3570936705905e-05
 191    -1.5549428189961e-06
 192    -5.4700441826117e-06
 193    1.3882460710305e-05
 194    6.8863165258671e-06
 195    1.6388180262492e-06
 196    -6.9745868193758e-06
 197    -2.5087948814639e-06
 198    -8.067631364394e-06
 199    -1.01809202121e-07
 200    4.7416087363119e-06
 201    0.00012805487125716
 202    6.5305627865437e-05
 203    1.3912477091248e-05
 204    -6.980161113252e-07
 205    -7.4791762951335e-06
 206    0.00010749833135127
 207    -4.619882340817e-06
 208    7.770124244451e-06
 209    -8.9028149981347e-06
 210    -1.5190653278313e-05
 211    -1.8836933656211e-05
 212    1.9117968615876e-05
 213    -0.0002778119446385
 214    1.9214457629734e-05
 215    -1.1832930354839e-05
 216    -4.7806912619692e-06
 217    -0.00019169906911558
 218    5.2164144040101e-05
 219    7.3343388292813e-05
 220    9.2128568492782e-06
 221     7.54011102176e-06
 222    -2.8819588873022e-06
 223    -9.190819656322e-06
 224    4.9518362985535e-06
 225    -8.692367364317e-06
 226    -5.7781180522785e-05
 227    1.3617305203897e-05
 228    1.6154075815149e-06
 229    -1.1876438252586e-06
 230    -2.2350388518611e-05
 231    -5.5447956094263e-05
 232    4.9685998564926e-06
 233    -5.6261603634892e-06
 234    -1.3055743418345e-05
 235    -8.1551106615357e-06
 236    1.9642380867053e-05
 237    0.00011074488695551
 238    -4.2671313568519e-05
 239    1.0473399684219e-05
 240    3.148020081944e-05
 241    -6.4985025605985e-05
 242    6.2666257630717e-05
 243    5.4685129544747e-06
 244    -2.8076363685185e-06
 245    -1.7270308033692e-06
 246    4.9089359267482e-06
 247    -5.0137402309981e-07
 248    -4.1156112104976e-06
 249    1.2659357205496e-05
 250    -5.7822423463868e-06
 251    6.207179827178e-06
 252    8.067597454964e-07
 253    1.3777017688352e-06
 254    1.4876732015339e-05
 255    -5.010087538821e-05
 256    3.5737030043312e-07
 257    -6.1759757811667e-06
 258    1.6572107620966e-06
 259    1.4313533347658e-05
 260    1.4419530026375e-05
 261    -9.1892321588685e-05
 262    -3.1805296828345e-05