[Molden Format]
made by pyscf v[2.0.1]
[Atoms] (AU)
O   1   8     0.00000000000000     0.00000000000000    10.94175058546756
H   2   1     0.00000000000000     0.00000000000000     9.11834876356659
H   3   1    -0.05031916615174     1.78353065140343    11.31762228193423
O   4   8     0.00000000000000     0.00000000000000     2.31533471513237
C   5   6     0.00000000000000     0.00000000000000     0.00000000000000
C   6   6     2.01118073026938    -1.40227222164369    -1.50774939176400
C   7   6    -2.01249334291722     1.41331050329955    -1.50315905028694
H   8   1     3.32037363730244    -2.26721897153159    -0.13599698591495
C   9   6     3.45899267434009     0.28739631745591    -3.37437943254505
H   10   1     1.07662969841332    -2.94725144642667    -2.56541439481080
H   11   1    -2.67503415753480     0.18421555839588    -3.06194479365997
H   12   1    -1.07974048864772     3.03851734677796    -2.43674295017013
C   13   6    -4.21607110578555     2.32938802552922     0.11994162256091
H   14   1     4.24440173074564     1.93368664142019    -2.34976285512790
H   15   1     2.15020713235517     1.04714335134846    -4.81494497423699
C   16   6     5.60746363007797    -1.12419643481196    -4.70268606082550
H   17   1    -3.46838323670267     3.50951302338067     1.66946842715333
H   18   1    -5.11873485366228     0.68575958301209     1.04047743976495
C   19   6    -6.18314754751344     3.80909592987882    -1.39656589068747
H   20   1     6.93011263717176    -1.87550812453645    -3.26656317360070
C   21   6     7.06356622236532     0.52877932406334    -6.57829775293605
H   22   1     4.82318879258361    -2.78573437948532    -5.70504560381835
H   23   1    -6.91582688743803     2.61304780074712    -2.95074552451969
H   24   1    -5.26532430573853     5.45420349051338    -2.31005832200284
C   25   6    -8.39941882261433     4.73263980500213     0.21800571437956
H   26   1     7.83338371486801     2.19084139882824    -5.57093109900697
H   27   1     5.73544244039420     1.27376866537418    -8.01071492370229
C   28   6     9.21124858443101    -0.89699110072176    -7.88926949186242
H   29   1    -7.66272760055236     5.92277078003992     1.77035591474408
H   30   1    -9.31497248082589     3.08753015622020     1.12614408368786
C   31   6   -10.35481709231879     6.21833079391143    -1.30905206253246
H   32   1    10.58815905329501    -1.61074586756696    -6.49512691622620
H   33   1    10.23506248045667     0.32468009384095    -9.23072870921204
H   34   1     8.47665842847139    -2.53598436989925    -8.94921964622535
H   35   1    -9.48948872868064     7.90013588951020    -2.18823918416067
H   36   1   -11.93332513000955     6.86460487874102    -0.11255798845995
H   37   1   -11.15126291841033     5.04495968327630    -2.83849898862534
[GTO]
1 0
 s    8 1.00
                 11720  0.00070964594651845
                  1759  0.0054672722921914
                 400.8   0.027823118610189
                 113.7    0.10474773971146
                 37.03    0.28292084635691
                 13.27    0.44849523869833
                 5.025    0.27081688521277
                 1.013    0.01545029160744
 s    8 1.00
                 11720  -0.00031444341168873
                  1759  -0.0024821376810179
                 400.8  -0.012316355381583
                 113.7  -0.050538917343672
                 37.03   -0.13938490331632
                 13.27   -0.32507749481778
                 5.025   -0.22984830758785
                 1.013     1.0953793467883
 s    1 1.00
                0.3023                   1
 p    3 1.00
                  17.7   0.062679166281506
                 3.854    0.33353656587936
                 1.046    0.74123964163973
 p    1 1.00
                0.2753                   1
 d    1 1.00
                 1.185                   1

2 0
 s    3 1.00
                 13.01   0.033498726389998
                 1.962    0.23480080117413
                0.4446     0.8136829578829
 s    1 1.00
                 0.122                   1
 p    1 1.00
                 0.727                   1

3 0
 s    3 1.00
                 13.01   0.033498726389998
                 1.962    0.23480080117413
                0.4446     0.8136829578829
 s    1 1.00
                 0.122                   1
 p    1 1.00
                 0.727                   1

4 0
 s    8 1.00
                 11720  0.00070964594651845
                  1759  0.0054672722921914
                 400.8   0.027823118610189
                 113.7    0.10474773971146
                 37.03    0.28292084635691
                 13.27    0.44849523869833
                 5.025    0.27081688521277
                 1.013    0.01545029160744
 s    8 1.00
                 11720  -0.00031444341168873
                  1759  -0.0024821376810179
                 400.8  -0.012316355381583
                 113.7  -0.050538917343672
                 37.03   -0.13938490331632
                 13.27   -0.32507749481778
                 5.025   -0.22984830758785
                 1.013     1.0953793467883
 s    1 1.00
                0.3023                   1
 p    3 1.00
                  17.7   0.062679166281506
                 3.854    0.33353656587936
                 1.046    0.74123964163973
 p    1 1.00
                0.2753                   1
 d    1 1.00
                 1.185                   1

5 0
 s    8 1.00
                  6665  0.00069158396281299
                  1000  0.0053257961529341
                   228   0.027060721042034
                 64.71    0.10165684614077
                 21.06     0.2745748236174
                 7.495    0.44829431892377
                 2.797    0.28490261071525
                0.5215   0.015194859206082
 s    8 1.00
                  6665  -0.00029326965268655
                  1000  -0.0023180354739745
                   228  -0.011499786038565
                 64.71  -0.046826727009787
                 21.06   -0.12846616875047
                 7.495   -0.30126627246289
                 2.797   -0.25563070233011
                0.5215      1.093793361012
 s    1 1.00
                0.1596                   1
 p    3 1.00
                 9.439   0.056979251590039
                 2.002    0.31320721150073
                0.5456    0.76037674173753
 p    1 1.00
                0.1517                   1
 d    1 1.00
                  0.55                   1

6 0
 s    8 1.00
                  6665  0.00069158396281299
                  1000  0.0053257961529341
                   228   0.027060721042034
                 64.71    0.10165684614077
                 21.06     0.2745748236174
                 7.495    0.44829431892377
                 2.797    0.28490261071525
                0.5215   0.015194859206082
 s    8 1.00
                  6665  -0.00029326965268655
                  1000  -0.0023180354739745
                   228  -0.011499786038565
                 64.71  -0.046826727009787
                 21.06   -0.12846616875047
                 7.495   -0.30126627246289
                 2.797   -0.25563070233011
                0.5215      1.093793361012
 s    1 1.00
                0.1596                   1
 p    3 1.00
                 9.439   0.056979251590039
                 2.002    0.31320721150073
                0.5456    0.76037674173753
 p    1 1.00
                0.1517                   1
 d    1 1.00
                  0.55                   1

7 0
 s    8 1.00
                  6665  0.00069158396281299
                  1000  0.0053257961529341
                   228   0.027060721042034
                 64.71    0.10165684614077
                 21.06     0.2745748236174
                 7.495    0.44829431892377
                 2.797    0.28490261071525
                0.5215   0.015194859206082
 s    8 1.00
                  6665  -0.00029326965268655
                  1000  -0.0023180354739745
                   228  -0.011499786038565
                 64.71  -0.046826727009787
                 21.06   -0.12846616875047
                 7.495   -0.30126627246289
                 2.797   -0.25563070233011
                0.5215      1.093793361012
 s    1 1.00
                0.1596                   1
 p    3 1.00
                 9.439   0.056979251590039
                 2.002    0.31320721150073
                0.5456    0.76037674173753
 p    1 1.00
                0.1517                   1
 d    1 1.00
                  0.55                   1

8 0
 s    3 1.00
                 13.01   0.033498726389998
                 1.962    0.23480080117413
                0.4446     0.8136829578829
 s    1 1.00
                 0.122                   1
 p    1 1.00
                 0.727                   1

9 0
 s    8 1.00
                  6665  0.00069158396281299
                  1000  0.0053257961529341
                   228   0.027060721042034
                 64.71    0.10165684614077
                 21.06     0.2745748236174
                 7.495    0.44829431892377
                 2.797    0.28490261071525
                0.5215   0.015194859206082
 s    8 1.00
                  6665  -0.00029326965268655
                  1000  -0.0023180354739745
                   228  -0.011499786038565
                 64.71  -0.046826727009787
                 21.06   -0.12846616875047
                 7.495   -0.30126627246289
                 2.797   -0.25563070233011
                0.5215      1.093793361012
 s    1 1.00
                0.1596                   1
 p    3 1.00
                 9.439   0.056979251590039
                 2.002    0.31320721150073
                0.5456    0.76037674173753
 p    1 1.00
                0.1517                   1
 d    1 1.00
                  0.55                   1

10 0
 s    3 1.00
                 13.01   0.033498726389998
                 1.962    0.23480080117413
                0.4446     0.8136829578829
 s    1 1.00
                 0.122                   1
 p    1 1.00
                 0.727                   1

11 0
 s    3 1.00
                 13.01   0.033498726389998
                 1.962    0.23480080117413
                0.4446     0.8136829578829
 s    1 1.00
                 0.122                   1
 p    1 1.00
                 0.727                   1

12 0
 s    3 1.00
                 13.01   0.033498726389998
                 1.962    0.23480080117413
                0.4446     0.8136829578829
 s    1 1.00
                 0.122                   1
 p    1 1.00
                 0.727                   1

13 0
 s    8 1.00
                  6665  0.00069158396281299
                  1000  0.0053257961529341
                   228   0.027060721042034
                 64.71    0.10165684614077
                 21.06     0.2745748236174
                 7.495    0.44829431892377
                 2.797    0.28490261071525
                0.5215   0.015194859206082
 s    8 1.00
                  6665  -0.00029326965268655
                  1000  -0.0023180354739745
                   228  -0.011499786038565
                 64.71  -0.046826727009787
                 21.06   -0.12846616875047
                 7.495   -0.30126627246289
                 2.797   -0.25563070233011
                0.5215      1.093793361012
 s    1 1.00
                0.1596                   1
 p    3 1.00
                 9.439   0.056979251590039
                 2.002    0.31320721150073
                0.5456    0.76037674173753
 p    1 1.00
                0.1517                   1
 d    1 1.00
                  0.55                   1

14 0
 s    3 1.00
                 13.01   0.033498726389998
                 1.962    0.23480080117413
                0.4446     0.8136829578829
 s    1 1.00
                 0.122                   1
 p    1 1.00
                 0.727                   1

15 0
 s    3 1.00
                 13.01   0.033498726389998
                 1.962    0.23480080117413
                0.4446     0.8136829578829
 s    1 1.00
                 0.122                   1
 p    1 1.00
                 0.727                   1

16 0
 s    8 1.00
                  6665  0.00069158396281299
                  1000  0.0053257961529341
                   228   0.027060721042034
                 64.71    0.10165684614077
                 21.06     0.2745748236174
                 7.495    0.44829431892377
                 2.797    0.28490261071525
                0.5215   0.015194859206082
 s    8 1.00
                  6665  -0.00029326965268655
                  1000  -0.0023180354739745
                   228  -0.011499786038565
                 64.71  -0.046826727009787
                 21.06   -0.12846616875047
                 7.495   -0.30126627246289
                 2.797   -0.25563070233011
                0.5215      1.093793361012
 s    1 1.00
                0.1596                   1
 p    3 1.00
                 9.439   0.056979251590039
                 2.002    0.31320721150073
                0.5456    0.76037674173753
 p    1 1.00
                0.1517                   1
 d    1 1.00
                  0.55                   1

17 0
 s    3 1.00
                 13.01   0.033498726389998
                 1.962    0.23480080117413
                0.4446     0.8136829578829
 s    1 1.00
                 0.122                   1
 p    1 1.00
                 0.727                   1

18 0
 s    3 1.00
                 13.01   0.033498726389998
                 1.962    0.23480080117413
                0.4446     0.8136829578829
 s    1 1.00
                 0.122                   1
 p    1 1.00
                 0.727                   1

19 0
 s    8 1.00
                  6665  0.00069158396281299
                  1000  0.0053257961529341
                   228   0.027060721042034
                 64.71    0.10165684614077
                 21.06     0.2745748236174
                 7.495    0.44829431892377
                 2.797    0.28490261071525
                0.5215   0.015194859206082
 s    8 1.00
                  6665  -0.00029326965268655
                  1000  -0.0023180354739745
                   228  -0.011499786038565
                 64.71  -0.046826727009787
                 21.06   -0.12846616875047
                 7.495   -0.30126627246289
                 2.797   -0.25563070233011
                0.5215      1.093793361012
 s    1 1.00
                0.1596                   1
 p    3 1.00
                 9.439   0.056979251590039
                 2.002    0.31320721150073
                0.5456    0.76037674173753
 p    1 1.00
                0.1517                   1
 d    1 1.00
                  0.55                   1

20 0
 s    3 1.00
                 13.01   0.033498726389998
                 1.962    0.23480080117413
                0.4446     0.8136829578829
 s    1 1.00
                 0.122                   1
 p    1 1.00
                 0.727                   1

21 0
 s    8 1.00
                  6665  0.00069158396281299
                  1000  0.0053257961529341
                   228   0.027060721042034
                 64.71    0.10165684614077
                 21.06     0.2745748236174
                 7.495    0.44829431892377
                 2.797    0.28490261071525
                0.5215   0.015194859206082
 s    8 1.00
                  6665  -0.00029326965268655
                  1000  -0.0023180354739745
                   228  -0.011499786038565
                 64.71  -0.046826727009787
                 21.06   -0.12846616875047
                 7.495   -0.30126627246289
                 2.797   -0.25563070233011
                0.5215      1.093793361012
 s    1 1.00
                0.1596                   1
 p    3 1.00
                 9.439   0.056979251590039
                 2.002    0.31320721150073
                0.5456    0.76037674173753
 p    1 1.00
                0.1517                   1
 d    1 1.00
                  0.55                   1

22 0
 s    3 1.00
                 13.01   0.033498726389998
                 1.962    0.23480080117413
                0.4446     0.8136829578829
 s    1 1.00
                 0.122                   1
 p    1 1.00
                 0.727                   1

23 0
 s    3 1.00
                 13.01   0.033498726389998
                 1.962    0.23480080117413
                0.4446     0.8136829578829
 s    1 1.00
                 0.122                   1
 p    1 1.00
                 0.727                   1

24 0
 s    3 1.00
                 13.01   0.033498726389998
                 1.962    0.23480080117413
                0.4446     0.8136829578829
 s    1 1.00
                 0.122                   1
 p    1 1.00
                 0.727                   1

25 0
 s    8 1.00
                  6665  0.00069158396281299
                  1000  0.0053257961529341
                   228   0.027060721042034
                 64.71    0.10165684614077
                 21.06     0.2745748236174
                 7.495    0.44829431892377
                 2.797    0.28490261071525
                0.5215   0.015194859206082
 s    8 1.00
                  6665  -0.00029326965268655
                  1000  -0.0023180354739745
                   228  -0.011499786038565
                 64.71  -0.046826727009787
                 21.06   -0.12846616875047
                 7.495   -0.30126627246289
                 2.797   -0.25563070233011
                0.5215      1.093793361012
 s    1 1.00
                0.1596                   1
 p    3 1.00
                 9.439   0.056979251590039
                 2.002    0.31320721150073
                0.5456    0.76037674173753
 p    1 1.00
                0.1517                   1
 d    1 1.00
                  0.55                   1

26 0
 s    3 1.00
                 13.01   0.033498726389998
                 1.962    0.23480080117413
                0.4446     0.8136829578829
 s    1 1.00
                 0.122                   1
 p    1 1.00
                 0.727                   1

27 0
 s    3 1.00
                 13.01   0.033498726389998
                 1.962    0.23480080117413
                0.4446     0.8136829578829
 s    1 1.00
                 0.122                   1
 p    1 1.00
                 0.727                   1

28 0
 s    8 1.00
                  6665  0.00069158396281299
                  1000  0.0053257961529341
                   228   0.027060721042034
                 64.71    0.10165684614077
                 21.06     0.2745748236174
                 7.495    0.44829431892377
                 2.797    0.28490261071525
                0.5215   0.015194859206082
 s    8 1.00
                  6665  -0.00029326965268655
                  1000  -0.0023180354739745
                   228  -0.011499786038565
                 64.71  -0.046826727009787
                 21.06   -0.12846616875047
                 7.495   -0.30126627246289
                 2.797   -0.25563070233011
                0.5215      1.093793361012
 s    1 1.00
                0.1596                   1
 p    3 1.00
                 9.439   0.056979251590039
                 2.002    0.31320721150073
                0.5456    0.76037674173753
 p    1 1.00
                0.1517                   1
 d    1 1.00
                  0.55                   1

29 0
 s    3 1.00
                 13.01   0.033498726389998
                 1.962    0.23480080117413
                0.4446     0.8136829578829
 s    1 1.00
                 0.122                   1
 p    1 1.00
                 0.727                   1

30 0
 s    3 1.00
                 13.01   0.033498726389998
                 1.962    0.23480080117413
                0.4446     0.8136829578829
 s    1 1.00
                 0.122                   1
 p    1 1.00
                 0.727                   1

31 0
 s    8 1.00
                  6665  0.00069158396281299
                  1000  0.0053257961529341
                   228   0.027060721042034
                 64.71    0.10165684614077
                 21.06     0.2745748236174
                 7.495    0.44829431892377
                 2.797    0.28490261071525
                0.5215   0.015194859206082
 s    8 1.00
                  6665  -0.00029326965268655
                  1000  -0.0023180354739745
                   228  -0.011499786038565
                 64.71  -0.046826727009787
                 21.06   -0.12846616875047
                 7.495   -0.30126627246289
                 2.797   -0.25563070233011
                0.5215      1.093793361012
 s    1 1.00
                0.1596                   1
 p    3 1.00
                 9.439   0.056979251590039
                 2.002    0.31320721150073
                0.5456    0.76037674173753
 p    1 1.00
                0.1517                   1
 d    1 1.00
                  0.55                   1

32 0
 s    3 1.00
                 13.01   0.033498726389998
                 1.962    0.23480080117413
                0.4446     0.8136829578829
 s    1 1.00
                 0.122                   1
 p    1 1.00
                 0.727                   1

33 0
 s    3 1.00
                 13.01   0.033498726389998
                 1.962    0.23480080117413
                0.4446     0.8136829578829
 s    1 1.00
                 0.122                   1
 p    1 1.00
                 0.727                   1

34 0
 s    3 1.00
                 13.01   0.033498726389998
                 1.962    0.23480080117413
                0.4446     0.8136829578829
 s    1 1.00
                 0.122                   1
 p    1 1.00
                 0.727                   1

35 0
 s    3 1.00
                 13.01   0.033498726389998
                 1.962    0.23480080117413
                0.4446     0.8136829578829
 s    1 1.00
                 0.122                   1
 p    1 1.00
                 0.727                   1

36 0
 s    3 1.00
                 13.01   0.033498726389998
                 1.962    0.23480080117413
                0.4446     0.8136829578829
 s    1 1.00
                 0.122                   1
 p    1 1.00
                 0.727                   1

37 0
 s    3 1.00
                 13.01   0.033498726389998
                 1.962    0.23480080117413
                0.4446     0.8136829578829
 s    1 1.00
                 0.122                   1
 p    1 1.00
                 0.727                   1

[5d]
[7f]
[9g]

[MO]
 Sym= A
 Ene=               0
 Spin= Alpha
 Occup=    1.00000
   1    2.8842699716428e-05
   2    1.6018518979766e-05
   3    -6.2614441056689e-05
   4    5.9335891415227e-08
   5    -2.3743194503961e-06
   6    3.285231481341e-07
   7    -3.8834281220902e-07
   8    1.4146393072145e-05
   9    4.6818002023152e-05
  10    -8.7706418375899e-06
  11    -1.3785184452196e-08
  12    6.4163091207172e-07
  13    -5.6880857241089e-07
  14    -3.1001410595342e-08
  15    7.6346000715123e-06
  16    9.2635039305403e-05
  17    3.8588066601303e-08
  18    -8.8488014763071e-07
  19    2.7498101038089e-05
  20    3.5641667362175e-06
  21    -3.7932167755981e-05
  22    -1.3268693975125e-07
  23    4.5727813642013e-06
  24    -1.3640430922861e-06
  25      -1.0013579722018
  26    -0.0019429443263466
  27    0.0067650907260562
  28    3.9456839464724e-06
  29    -7.3619137513838e-06
  30    0.0016584412779496
  31    1.8846276127562e-06
  32    4.6304812341975e-07
  33    -0.0018120395650177
  34    -0.00013010449065735
  35    3.0987609041878e-06
  36    -1.3635631418756e-06
  37    -6.7523162214601e-05
  38    0.00017633796375044
  39    -0.0002786967439617
  40    -0.00036697419757545
  41    -0.0014024176852612
  42    -1.5798927473547e-05
  43    9.4669401738409e-06
  44    1.2870557550445e-05
  45    -7.9679418027899e-05
  46    6.2608486286325e-05
  47    -0.0035283583994174
  48    0.00054403914399882
  49    7.3602208963964e-06
  50    -1.3652918158878e-06
  51    -2.7901323982684e-05
  52    0.00011261885081108
  53    -0.00082115358950282
  54    9.2556763533244e-05
  55    -0.0013815935895685
  56    -0.00011049255088852
  57    5.4611816706098e-05
  58    5.3936136904927e-06
  59    0.00041236817899119
  60    -0.00044556984237837
  61    0.00089739275813925
  62    0.00011453847268471
  63    -0.00015291106286252
  64    0.00014865892325797
  65    -5.3946573616157e-05
  66    0.00013117651673907
  67    -0.00091404019817262
  68    -2.2766943063568e-05
  69    -0.00055671492652096
  70    8.7851088875648e-05
  71    -0.00010914649602234
  72    8.0975361958005e-05
  73    -0.00099806718584694
  74    0.00074144941494882
  75    0.00064628519074746
  76    0.0001452069045175
  77    0.00012102029732072
  78    -9.0380677747745e-05
  79    -5.9003056469178e-05
  80    0.00015440351422305
  81    -2.9323333426727e-05
  82    -0.00023971136493065
  83    -6.1121462244071e-05
  84    4.5802880223287e-05
  85    -4.3761775124758e-05
  86    5.2290052283021e-05
  87    -0.0001634841156819
  88    0.00051694095481813
  89    6.4414248930921e-05
  90    -1.579847575084e-05
  91    6.4940564783554e-05
  92    -0.00023388444468246
  93    -0.00063706236672814
  94    5.6405051314902e-05
  95    -1.8543467687657e-05
  96    -1.7605758636494e-05
  97    -2.8043333752006e-06
  98    2.231904973288e-05
  99    5.0027741399661e-05
 100    2.7713078373097e-06
 101    0.00015694041844175
 102    -1.2647658345967e-05
 103    7.9671033567566e-06
 104    -7.7902830929078e-05
 105    -1.9900512608001e-05
 106    0.00020269625106025
 107    6.3724103016598e-05
 108    -1.6629389441498e-05
 109    -7.7889506198369e-05
 110    -0.00017101261032161
 111    4.7807148919054e-05
 112    5.0693218600543e-05
 113    -1.0855089345645e-05
 114    -7.3675556655779e-05
 115    -0.00032677385735593
 116    0.00012014524953865
 117    -0.0008540974470623
 118    -1.9765548863967e-05
 119    -6.1160136703573e-05
 120    0.00011834949786507
 121    -0.00032189067810907
 122    -6.145789713908e-05
 123    0.0002097581285027
 124    1.4280673496104e-06
 125    -9.6591382003925e-06
 126    -1.8590528312039e-05
 127    2.3516808989752e-05
 128    -4.3121770612915e-05
 129    -1.1701654525554e-05
 130    0.00032242489536913
 131    -4.0646879419301e-06
 132    -2.9743398111686e-06
 133    -2.3598729080312e-05
 134    -0.00017968911461727
 135    6.0625085888694e-05
 136    5.0071379540407e-06
 137    2.8505923813725e-05
 138    1.7539452437004e-05
 139    -1.2789979605559e-05
 140    5.6465432031477e-05
 141    -0.0002520113208494
 142    4.6323724322709e-05
 143    5.9293091771606e-05
 144    -6.0027496313872e-05
 145    0.00025593396675653
 146    -1.7037803264208e-05
 147    -0.00010001702201997
 148    6.5897605039061e-06
 149    -6.7199362811955e-06
 150    -2.4247509295008e-06
 151    -1.5629512262461e-05
 152    1.424929716399e-05
 153    0.00014956683195443
 154    0.00012438527382918
 155    2.3100421985976e-05
 156    -3.5912493590932e-05
 157    -2.1336662110852e-05
 158    0.00016265340074005
 159    0.00014037199779294
 160    6.4203313100753e-05
 161    1.5288851298183e-05
 162    -8.6321284618779e-06
 163    8.6917393350369e-05
 164    6.268014583057e-05
 165    0.00028556760958193
 166    -7.6299409755542e-05
 167    9.5162494137923e-05
 168    1.7389948990915e-05
 169    -0.0002832331082842
 170     0.000265898063889
 171    0.00014690975787448
 172    3.4558909341234e-06
 173    -1.8050843457849e-05
 174    1.0860107036435e-05
 175    -4.268868527272e-06
 176    1.8901011109205e-05
 177    -1.1263725228602e-05
 178    -0.00010568071827443
 179    2.7320848549621e-06
 180    -1.0735218867495e-06
 181    4.4840294233934e-06
 182    -1.1801726533108e-05
 183    1.0213923468357e-06
 184    8.7914098852864e-05
 185    -6.7844826982774e-05
 186    -3.4117326120879e-05
 187    6.440715240061e-05
 188    -0.00015673018162266
 189    8.5356133194978e-05
 190    0.0001128844674025
 191    5.5477337156747e-07
 192    -4.8637437612784e-06
 193    2.6659501979772e-06
 194    2.6438732243165e-06
 195    1.0280534940188e-05
 196    -5.0748619455612e-06
 197    1.1656577588152e-05
 198    -5.858186915209e-06
 199    -1.7495284082548e-06
 200    1.4399183685943e-06
 201    -4.820500202844e-06
 202    -2.2174571686856e-05
 203    1.1528059334091e-05
 204    -7.1123588589511e-06
 205    -1.174853684517e-05
 206    5.9289664593222e-05
 207    -3.7302159533104e-05
 208    1.1918599129488e-05
 209    -6.6607378235332e-06
 210    -1.2235136172343e-05
 211    1.8198122495541e-05
 212    6.9071950622727e-05
 213    -0.00023257712779853
 214    5.9221591787976e-05
 215    -2.4598239179749e-05
 216    -9.4293571827093e-05
 217    -0.00017304809540626
 218    4.678014835948e-05
 219    2.7803721885419e-05
 220    2.2981660859677e-06
 221    7.3972046363853e-06
 222    -5.371223685833e-06
 223    -2.9128761338003e-06
 224    -2.5893086384227e-06
 225    -2.8830211560513e-05
 226    -6.0789887460297e-05
 227    1.0052729836069e-05
 228    8.0223586299796e-07
 229    2.6870117779214e-06
 230    -1.0555150034403e-05
 231    -6.1974376993384e-05
 232    2.6246227263282e-06
 233    -7.2837106346529e-06
 234    -9.7151137730849e-06
 235    -3.4280917147597e-06
 236    -9.2091997583501e-06
 237    6.0706223292268e-05
 238    4.0964583317822e-05
 239    -8.7390722176682e-06
 240    -3.2121535679801e-05
 241    -7.2497801724745e-06
 242    6.0176390428799e-05
 243    -4.1389623948635e-05
 244    -1.3510651148598e-07
 245    -2.9703349680076e-06
 246    -9.3953171142525e-07
 247    6.1677226830044e-07
 248    3.2297735179652e-06
 249    -2.8272972305398e-05
 250    -4.3458019033734e-05
 251    7.1682273904812e-06
 252    2.0343348320074e-06
 253    5.0126855469511e-07
 254    -7.0711696099143e-06
 255    -6.5663405517737e-05
 256    1.1354540009161e-06
 257    -6.9815336106197e-06
 258    -6.6889176015993e-07
 259    5.2221459313797e-06
 260    2.3910157122736e-05
 261    -8.8613159132778e-05
 262    -4.308052243223e-06