[Molden Format]
made by pyscf v[2.0.1]
[Atoms] (AU)
O   1   8     0.00000000000000     0.00000000000000    10.94175058546756
H   2   1     0.00000000000000     0.00000000000000     9.11834876356659
H   3   1    -0.05031916615174     1.78353065140343    11.31762228193423
O   4   8     0.00000000000000     0.00000000000000     2.31533471513237
C   5   6     0.00000000000000     0.00000000000000     0.00000000000000
C   6   6     2.01118073026938    -1.40227222164369    -1.50774939176400
C   7   6    -2.01249334291722     1.41331050329955    -1.50315905028694
H   8   1     3.32037363730244    -2.26721897153159    -0.13599698591495
C   9   6     3.45899267434009     0.28739631745591    -3.37437943254505
H   10   1     1.07662969841332    -2.94725144642667    -2.56541439481080
H   11   1    -2.67503415753480     0.18421555839588    -3.06194479365997
H   12   1    -1.07974048864772     3.03851734677796    -2.43674295017013
C   13   6    -4.21607110578555     2.32938802552922     0.11994162256091
H   14   1     4.24440173074564     1.93368664142019    -2.34976285512790
H   15   1     2.15020713235517     1.04714335134846    -4.81494497423699
C   16   6     5.60746363007797    -1.12419643481196    -4.70268606082550
H   17   1    -3.46838323670267     3.50951302338067     1.66946842715333
H   18   1    -5.11873485366228     0.68575958301209     1.04047743976495
C   19   6    -6.18314754751344     3.80909592987882    -1.39656589068747
H   20   1     6.93011263717176    -1.87550812453645    -3.26656317360070
C   21   6     7.06356622236532     0.52877932406334    -6.57829775293605
H   22   1     4.82318879258361    -2.78573437948532    -5.70504560381835
H   23   1    -6.91582688743803     2.61304780074712    -2.95074552451969
H   24   1    -5.26532430573853     5.45420349051338    -2.31005832200284
C   25   6    -8.39941882261433     4.73263980500213     0.21800571437956
H   26   1     7.83338371486801     2.19084139882824    -5.57093109900697
H   27   1     5.73544244039420     1.27376866537418    -8.01071492370229
C   28   6     9.21124858443101    -0.89699110072176    -7.88926949186242
H   29   1    -7.66272760055236     5.92277078003992     1.77035591474408
H   30   1    -9.31497248082589     3.08753015622020     1.12614408368786
C   31   6   -10.35481709231879     6.21833079391143    -1.30905206253246
H   32   1    10.58815905329501    -1.61074586756696    -6.49512691622620
H   33   1    10.23506248045667     0.32468009384095    -9.23072870921204
H   34   1     8.47665842847139    -2.53598436989925    -8.94921964622535
H   35   1    -9.48948872868064     7.90013588951020    -2.18823918416067
H   36   1   -11.93332513000955     6.86460487874102    -0.11255798845995
H   37   1   -11.15126291841033     5.04495968327630    -2.83849898862534
[GTO]
1 0
 s    8 1.00
                 11720  0.00070964594651845
                  1759  0.0054672722921914
                 400.8   0.027823118610189
                 113.7    0.10474773971146
                 37.03    0.28292084635691
                 13.27    0.44849523869833
                 5.025    0.27081688521277
                 1.013    0.01545029160744
 s    8 1.00
                 11720  -0.00031444341168873
                  1759  -0.0024821376810179
                 400.8  -0.012316355381583
                 113.7  -0.050538917343672
                 37.03   -0.13938490331632
                 13.27   -0.32507749481778
                 5.025   -0.22984830758785
                 1.013     1.0953793467883
 s    1 1.00
                0.3023                   1
 p    3 1.00
                  17.7   0.062679166281506
                 3.854    0.33353656587936
                 1.046    0.74123964163973
 p    1 1.00
                0.2753                   1
 d    1 1.00
                 1.185                   1

2 0
 s    3 1.00
                 13.01   0.033498726389998
                 1.962    0.23480080117413
                0.4446     0.8136829578829
 s    1 1.00
                 0.122                   1
 p    1 1.00
                 0.727                   1

3 0
 s    3 1.00
                 13.01   0.033498726389998
                 1.962    0.23480080117413
                0.4446     0.8136829578829
 s    1 1.00
                 0.122                   1
 p    1 1.00
                 0.727                   1

4 0
 s    8 1.00
                 11720  0.00070964594651845
                  1759  0.0054672722921914
                 400.8   0.027823118610189
                 113.7    0.10474773971146
                 37.03    0.28292084635691
                 13.27    0.44849523869833
                 5.025    0.27081688521277
                 1.013    0.01545029160744
 s    8 1.00
                 11720  -0.00031444341168873
                  1759  -0.0024821376810179
                 400.8  -0.012316355381583
                 113.7  -0.050538917343672
                 37.03   -0.13938490331632
                 13.27   -0.32507749481778
                 5.025   -0.22984830758785
                 1.013     1.0953793467883
 s    1 1.00
                0.3023                   1
 p    3 1.00
                  17.7   0.062679166281506
                 3.854    0.33353656587936
                 1.046    0.74123964163973
 p    1 1.00
                0.2753                   1
 d    1 1.00
                 1.185                   1

5 0
 s    8 1.00
                  6665  0.00069158396281299
                  1000  0.0053257961529341
                   228   0.027060721042034
                 64.71    0.10165684614077
                 21.06     0.2745748236174
                 7.495    0.44829431892377
                 2.797    0.28490261071525
                0.5215   0.015194859206082
 s    8 1.00
                  6665  -0.00029326965268655
                  1000  -0.0023180354739745
                   228  -0.011499786038565
                 64.71  -0.046826727009787
                 21.06   -0.12846616875047
                 7.495   -0.30126627246289
                 2.797   -0.25563070233011
                0.5215      1.093793361012
 s    1 1.00
                0.1596                   1
 p    3 1.00
                 9.439   0.056979251590039
                 2.002    0.31320721150073
                0.5456    0.76037674173753
 p    1 1.00
                0.1517                   1
 d    1 1.00
                  0.55                   1

6 0
 s    8 1.00
                  6665  0.00069158396281299
                  1000  0.0053257961529341
                   228   0.027060721042034
                 64.71    0.10165684614077
                 21.06     0.2745748236174
                 7.495    0.44829431892377
                 2.797    0.28490261071525
                0.5215   0.015194859206082
 s    8 1.00
                  6665  -0.00029326965268655
                  1000  -0.0023180354739745
                   228  -0.011499786038565
                 64.71  -0.046826727009787
                 21.06   -0.12846616875047
                 7.495   -0.30126627246289
                 2.797   -0.25563070233011
                0.5215      1.093793361012
 s    1 1.00
                0.1596                   1
 p    3 1.00
                 9.439   0.056979251590039
                 2.002    0.31320721150073
                0.5456    0.76037674173753
 p    1 1.00
                0.1517                   1
 d    1 1.00
                  0.55                   1

7 0
 s    8 1.00
                  6665  0.00069158396281299
                  1000  0.0053257961529341
                   228   0.027060721042034
                 64.71    0.10165684614077
                 21.06     0.2745748236174
                 7.495    0.44829431892377
                 2.797    0.28490261071525
                0.5215   0.015194859206082
 s    8 1.00
                  6665  -0.00029326965268655
                  1000  -0.0023180354739745
                   228  -0.011499786038565
                 64.71  -0.046826727009787
                 21.06   -0.12846616875047
                 7.495   -0.30126627246289
                 2.797   -0.25563070233011
                0.5215      1.093793361012
 s    1 1.00
                0.1596                   1
 p    3 1.00
                 9.439   0.056979251590039
                 2.002    0.31320721150073
                0.5456    0.76037674173753
 p    1 1.00
                0.1517                   1
 d    1 1.00
                  0.55                   1

8 0
 s    3 1.00
                 13.01   0.033498726389998
                 1.962    0.23480080117413
                0.4446     0.8136829578829
 s    1 1.00
                 0.122                   1
 p    1 1.00
                 0.727                   1

9 0
 s    8 1.00
                  6665  0.00069158396281299
                  1000  0.0053257961529341
                   228   0.027060721042034
                 64.71    0.10165684614077
                 21.06     0.2745748236174
                 7.495    0.44829431892377
                 2.797    0.28490261071525
                0.5215   0.015194859206082
 s    8 1.00
                  6665  -0.00029326965268655
                  1000  -0.0023180354739745
                   228  -0.011499786038565
                 64.71  -0.046826727009787
                 21.06   -0.12846616875047
                 7.495   -0.30126627246289
                 2.797   -0.25563070233011
                0.5215      1.093793361012
 s    1 1.00
                0.1596                   1
 p    3 1.00
                 9.439   0.056979251590039
                 2.002    0.31320721150073
                0.5456    0.76037674173753
 p    1 1.00
                0.1517                   1
 d    1 1.00
                  0.55                   1

10 0
 s    3 1.00
                 13.01   0.033498726389998
                 1.962    0.23480080117413
                0.4446     0.8136829578829
 s    1 1.00
                 0.122                   1
 p    1 1.00
                 0.727                   1

11 0
 s    3 1.00
                 13.01   0.033498726389998
                 1.962    0.23480080117413
                0.4446     0.8136829578829
 s    1 1.00
                 0.122                   1
 p    1 1.00
                 0.727                   1

12 0
 s    3 1.00
                 13.01   0.033498726389998
                 1.962    0.23480080117413
                0.4446     0.8136829578829
 s    1 1.00
                 0.122                   1
 p    1 1.00
                 0.727                   1

13 0
 s    8 1.00
                  6665  0.00069158396281299
                  1000  0.0053257961529341
                   228   0.027060721042034
                 64.71    0.10165684614077
                 21.06     0.2745748236174
                 7.495    0.44829431892377
                 2.797    0.28490261071525
                0.5215   0.015194859206082
 s    8 1.00
                  6665  -0.00029326965268655
                  1000  -0.0023180354739745
                   228  -0.011499786038565
                 64.71  -0.046826727009787
                 21.06   -0.12846616875047
                 7.495   -0.30126627246289
                 2.797   -0.25563070233011
                0.5215      1.093793361012
 s    1 1.00
                0.1596                   1
 p    3 1.00
                 9.439   0.056979251590039
                 2.002    0.31320721150073
                0.5456    0.76037674173753
 p    1 1.00
                0.1517                   1
 d    1 1.00
                  0.55                   1

14 0
 s    3 1.00
                 13.01   0.033498726389998
                 1.962    0.23480080117413
                0.4446     0.8136829578829
 s    1 1.00
                 0.122                   1
 p    1 1.00
                 0.727                   1

15 0
 s    3 1.00
                 13.01   0.033498726389998
                 1.962    0.23480080117413
                0.4446     0.8136829578829
 s    1 1.00
                 0.122                   1
 p    1 1.00
                 0.727                   1

16 0
 s    8 1.00
                  6665  0.00069158396281299
                  1000  0.0053257961529341
                   228   0.027060721042034
                 64.71    0.10165684614077
                 21.06     0.2745748236174
                 7.495    0.44829431892377
                 2.797    0.28490261071525
                0.5215   0.015194859206082
 s    8 1.00
                  6665  -0.00029326965268655
                  1000  -0.0023180354739745
                   228  -0.011499786038565
                 64.71  -0.046826727009787
                 21.06   -0.12846616875047
                 7.495   -0.30126627246289
                 2.797   -0.25563070233011
                0.5215      1.093793361012
 s    1 1.00
                0.1596                   1
 p    3 1.00
                 9.439   0.056979251590039
                 2.002    0.31320721150073
                0.5456    0.76037674173753
 p    1 1.00
                0.1517                   1
 d    1 1.00
                  0.55                   1

17 0
 s    3 1.00
                 13.01   0.033498726389998
                 1.962    0.23480080117413
                0.4446     0.8136829578829
 s    1 1.00
                 0.122                   1
 p    1 1.00
                 0.727                   1

18 0
 s    3 1.00
                 13.01   0.033498726389998
                 1.962    0.23480080117413
                0.4446     0.8136829578829
 s    1 1.00
                 0.122                   1
 p    1 1.00
                 0.727                   1

19 0
 s    8 1.00
                  6665  0.00069158396281299
                  1000  0.0053257961529341
                   228   0.027060721042034
                 64.71    0.10165684614077
                 21.06     0.2745748236174
                 7.495    0.44829431892377
                 2.797    0.28490261071525
                0.5215   0.015194859206082
 s    8 1.00
                  6665  -0.00029326965268655
                  1000  -0.0023180354739745
                   228  -0.011499786038565
                 64.71  -0.046826727009787
                 21.06   -0.12846616875047
                 7.495   -0.30126627246289
                 2.797   -0.25563070233011
                0.5215      1.093793361012
 s    1 1.00
                0.1596                   1
 p    3 1.00
                 9.439   0.056979251590039
                 2.002    0.31320721150073
                0.5456    0.76037674173753
 p    1 1.00
                0.1517                   1
 d    1 1.00
                  0.55                   1

20 0
 s    3 1.00
                 13.01   0.033498726389998
                 1.962    0.23480080117413
                0.4446     0.8136829578829
 s    1 1.00
                 0.122                   1
 p    1 1.00
                 0.727                   1

21 0
 s    8 1.00
                  6665  0.00069158396281299
                  1000  0.0053257961529341
                   228   0.027060721042034
                 64.71    0.10165684614077
                 21.06     0.2745748236174
                 7.495    0.44829431892377
                 2.797    0.28490261071525
                0.5215   0.015194859206082
 s    8 1.00
                  6665  -0.00029326965268655
                  1000  -0.0023180354739745
                   228  -0.011499786038565
                 64.71  -0.046826727009787
                 21.06   -0.12846616875047
                 7.495   -0.30126627246289
                 2.797   -0.25563070233011
                0.5215      1.093793361012
 s    1 1.00
                0.1596                   1
 p    3 1.00
                 9.439   0.056979251590039
                 2.002    0.31320721150073
                0.5456    0.76037674173753
 p    1 1.00
                0.1517                   1
 d    1 1.00
                  0.55                   1

22 0
 s    3 1.00
                 13.01   0.033498726389998
                 1.962    0.23480080117413
                0.4446     0.8136829578829
 s    1 1.00
                 0.122                   1
 p    1 1.00
                 0.727                   1

23 0
 s    3 1.00
                 13.01   0.033498726389998
                 1.962    0.23480080117413
                0.4446     0.8136829578829
 s    1 1.00
                 0.122                   1
 p    1 1.00
                 0.727                   1

24 0
 s    3 1.00
                 13.01   0.033498726389998
                 1.962    0.23480080117413
                0.4446     0.8136829578829
 s    1 1.00
                 0.122                   1
 p    1 1.00
                 0.727                   1

25 0
 s    8 1.00
                  6665  0.00069158396281299
                  1000  0.0053257961529341
                   228   0.027060721042034
                 64.71    0.10165684614077
                 21.06     0.2745748236174
                 7.495    0.44829431892377
                 2.797    0.28490261071525
                0.5215   0.015194859206082
 s    8 1.00
                  6665  -0.00029326965268655
                  1000  -0.0023180354739745
                   228  -0.011499786038565
                 64.71  -0.046826727009787
                 21.06   -0.12846616875047
                 7.495   -0.30126627246289
                 2.797   -0.25563070233011
                0.5215      1.093793361012
 s    1 1.00
                0.1596                   1
 p    3 1.00
                 9.439   0.056979251590039
                 2.002    0.31320721150073
                0.5456    0.76037674173753
 p    1 1.00
                0.1517                   1
 d    1 1.00
                  0.55                   1

26 0
 s    3 1.00
                 13.01   0.033498726389998
                 1.962    0.23480080117413
                0.4446     0.8136829578829
 s    1 1.00
                 0.122                   1
 p    1 1.00
                 0.727                   1

27 0
 s    3 1.00
                 13.01   0.033498726389998
                 1.962    0.23480080117413
                0.4446     0.8136829578829
 s    1 1.00
                 0.122                   1
 p    1 1.00
                 0.727                   1

28 0
 s    8 1.00
                  6665  0.00069158396281299
                  1000  0.0053257961529341
                   228   0.027060721042034
                 64.71    0.10165684614077
                 21.06     0.2745748236174
                 7.495    0.44829431892377
                 2.797    0.28490261071525
                0.5215   0.015194859206082
 s    8 1.00
                  6665  -0.00029326965268655
                  1000  -0.0023180354739745
                   228  -0.011499786038565
                 64.71  -0.046826727009787
                 21.06   -0.12846616875047
                 7.495   -0.30126627246289
                 2.797   -0.25563070233011
                0.5215      1.093793361012
 s    1 1.00
                0.1596                   1
 p    3 1.00
                 9.439   0.056979251590039
                 2.002    0.31320721150073
                0.5456    0.76037674173753
 p    1 1.00
                0.1517                   1
 d    1 1.00
                  0.55                   1

29 0
 s    3 1.00
                 13.01   0.033498726389998
                 1.962    0.23480080117413
                0.4446     0.8136829578829
 s    1 1.00
                 0.122                   1
 p    1 1.00
                 0.727                   1

30 0
 s    3 1.00
                 13.01   0.033498726389998
                 1.962    0.23480080117413
                0.4446     0.8136829578829
 s    1 1.00
                 0.122                   1
 p    1 1.00
                 0.727                   1

31 0
 s    8 1.00
                  6665  0.00069158396281299
                  1000  0.0053257961529341
                   228   0.027060721042034
                 64.71    0.10165684614077
                 21.06     0.2745748236174
                 7.495    0.44829431892377
                 2.797    0.28490261071525
                0.5215   0.015194859206082
 s    8 1.00
                  6665  -0.00029326965268655
                  1000  -0.0023180354739745
                   228  -0.011499786038565
                 64.71  -0.046826727009787
                 21.06   -0.12846616875047
                 7.495   -0.30126627246289
                 2.797   -0.25563070233011
                0.5215      1.093793361012
 s    1 1.00
                0.1596                   1
 p    3 1.00
                 9.439   0.056979251590039
                 2.002    0.31320721150073
                0.5456    0.76037674173753
 p    1 1.00
                0.1517                   1
 d    1 1.00
                  0.55                   1

32 0
 s    3 1.00
                 13.01   0.033498726389998
                 1.962    0.23480080117413
                0.4446     0.8136829578829
 s    1 1.00
                 0.122                   1
 p    1 1.00
                 0.727                   1

33 0
 s    3 1.00
                 13.01   0.033498726389998
                 1.962    0.23480080117413
                0.4446     0.8136829578829
 s    1 1.00
                 0.122                   1
 p    1 1.00
                 0.727                   1

34 0
 s    3 1.00
                 13.01   0.033498726389998
                 1.962    0.23480080117413
                0.4446     0.8136829578829
 s    1 1.00
                 0.122                   1
 p    1 1.00
                 0.727                   1

35 0
 s    3 1.00
                 13.01   0.033498726389998
                 1.962    0.23480080117413
                0.4446     0.8136829578829
 s    1 1.00
                 0.122                   1
 p    1 1.00
                 0.727                   1

36 0
 s    3 1.00
                 13.01   0.033498726389998
                 1.962    0.23480080117413
                0.4446     0.8136829578829
 s    1 1.00
                 0.122                   1
 p    1 1.00
                 0.727                   1

37 0
 s    3 1.00
                 13.01   0.033498726389998
                 1.962    0.23480080117413
                0.4446     0.8136829578829
 s    1 1.00
                 0.122                   1
 p    1 1.00
                 0.727                   1

[5d]
[7f]
[9g]

[MO]
 Sym= A
 Ene=               0
 Spin= Alpha
 Occup=    1.00000
   1    2.2115183102205e-08
   2    -3.3069855947255e-09
   3    1.9931695464772e-06
   4    -1.2973568553891e-08
   5    1.805294916392e-08
   6    -4.929991741541e-08
   7    1.8124820264092e-08
   8    -2.9226361266589e-07
   9    -9.7455631408104e-07
  10    1.7575182267369e-07
  11    3.256485441672e-09
  12    -6.2513558057275e-09
  13    4.9326004560099e-11
  14    7.1726245019762e-10
  15    2.1129837027311e-07
  16    -1.976968761162e-06
  17    1.9625284002923e-08
  18    6.4089185370666e-09
  19    -6.2644413192466e-07
  20    1.6478491874787e-08
  21    4.9933219791669e-07
  22    -2.4442305336141e-09
  23    -4.4228167970047e-08
  24    3.3756587999834e-08
  25    -0.00011691273304092
  26    -0.00027357194007435
  27    -0.00026745857321417
  28    7.1990898050884e-05
  29    0.00011739213102906
  30    0.00012454654942233
  31    -2.3097882642456e-05
  32    0.00010282498890128
  33    -7.2626674732239e-07
  34    -8.5136957865028e-06
  35    3.9760338877213e-07
  36    -3.9462799397661e-05
  37    5.7470450276005e-07
  38    -1.4712312205927e-05
  39    -0.00044149067600606
  40    -0.0010083838919227
  41    -0.00061869454525094
  42    -0.00035917730865056
  43    0.00064224703973665
  44    0.00054695050194473
  45    0.00049009982790159
  46    -0.00038559615192356
  47    0.00025417366745548
  48    -0.00010690887197279
  49    -1.5026683131057e-05
  50    -0.00010529673545153
  51    -4.1973058658953e-05
  52    8.3521389319609e-05
  53      0.16326335036558
  54    0.00010481523416743
  55    -6.8125649018822e-05
  56    0.0015104175202154
  57    -0.0001356739964099
  58    0.00054088018930478
  59    0.0016112379780933
  60    0.00029527790979769
  61    -0.00053801317535543
  62    2.479583749517e-05
  63    0.0002533476669024
  64    7.0380702305112e-05
  65    2.3116708002287e-05
  66    -0.00011298703393291
  67     0.044021764550366
  68    -0.00030593556432593
  69    0.00038273606972132
  70    7.4658971528523e-05
  71    0.00080249200866747
  72    0.00079766495689522
  73    0.00089664550205575
  74    0.00025419786665384
  75    0.00043261161387274
  76    2.3187448352981e-05
  77    -2.8452877639315e-05
  78    -7.8202409237087e-05
  79    -6.9265369795015e-06
  80    2.9634374393161e-05
  81    0.00083182455536861
  82    0.00066020655641483
  83    7.5156360582124e-05
  84    4.3516569270351e-05
  85    -2.5159395638589e-05
  86      0.98764599336929
  87    0.0051702647967717
  88    -0.011665491750218
  89    -0.00011358814083095
  90    0.00014625174574877
  91    -0.00017381556249156
  92    -0.00083387213661747
  93    0.0013122686626159
  94    0.00019809408484715
  95    5.7394640410449e-05
  96    0.00036883920228298
  97    4.4859620354229e-05
  98    -9.0995439882522e-05
  99    -4.7426702094198e-06
 100    -0.0012205006356051
 101    1.9759926726376e-05
 102    -1.2384756123935e-05
 103    -8.5896571524699e-05
 104    -0.00013001700921388
 105    -0.0011668626263918
 106    -0.00040314250632547
 107    -0.00012119210870813
 108    -5.8172155275604e-05
 109    -6.7954497160876e-05
 110    4.8579080237462e-05
 111    -0.00029302645854287
 112    -3.2757851642634e-06
 113    9.5836566389714e-05
 114    1.1987880261586e-05
 115    0.0071905374058298
 116    9.6841688033841e-05
 117    0.00023002977814166
 118    0.00044168300337367
 119    -0.00019087901485911
 120    0.00011286370301727
 121    0.0003637812708791
 122    -0.00033860396807525
 123    -0.00011555602160237
 124    -1.0305645530245e-05
 125    -3.1349990750935e-05
 126    5.9572193774439e-06
 127    2.7062293901314e-05
 128    1.2915840706735e-05
 129    5.162507832857e-05
 130    0.0011222677547244
 131    0.00021378669097342
 132    0.00027858124665582
 133    0.00023276836347435
 134    0.00043627127913844
 135     0.001544106456129
 136    -0.00025494775825321
 137    5.592161124291e-05
 138    -0.00030982081683544
 139     0.030552149533447
 140    -9.902214698978e-05
 141    0.0032810321558005
 142    -0.0002729579072239
 143     7.38949200586e-06
 144    8.3569815045559e-05
 145    -0.0014116302001376
 146    0.00091636290413382
 147    0.00071662812890227
 148    2.5760207736833e-05
 149    4.6083181367108e-05
 150    -4.2706037890235e-05
 151    -4.2555024693328e-06
 152    8.2639204316112e-05
 153    0.00012089749112871
 154    4.7683161397429e-05
 155    -5.6393918360499e-06
 156    -8.8820811885479e-06
 157    -1.2149865343181e-05
 158    6.8673921393574e-05
 159    6.2989631870489e-05
 160    1.7770389387748e-05
 161    6.7383376085944e-06
 162    2.2001923593352e-08
 163    -0.009161888460443
 164    -0.00011982678958515
 165    -0.00012305067593998
 166    -0.00022950488862151
 167    4.2939619184385e-05
 168    -0.00028737496686711
 169    0.00023032068664487
 170    -9.9301138696502e-05
 171    -0.00022991536913508
 172    4.0729374750241e-06
 173    1.2303791086723e-05
 174    1.2327332428917e-05
 175    -1.3044210133946e-06
 176    1.1739021346995e-05
 177    -0.00019062715924176
 178    0.00021128411789919
 179    -4.477979677283e-05
 180    2.5857702714925e-05
 181    2.2134854394279e-05
 182    -0.00024908312712676
 183    -0.0001114149146686
 184    -0.00048653486005612
 185    0.00016841086844346
 186    4.2158425361583e-05
 187    -0.0001070416149948
 188    -0.00029245221409019
 189    0.00054340975109938
 190    8.5137221697228e-05
 191    -2.6279244696078e-05
 192    -8.590906977433e-06
 193    3.8241817401393e-05
 194    1.659346204275e-06
 195    -5.2517740550989e-05
 196    -7.4168506350661e-05
 197    0.00014201918788657
 198    -3.5112957395668e-05
 199    3.281039413301e-05
 200    2.6924301099294e-05
 201    0.00020623449431992
 202    0.00013776320030093
 203    -1.5883733502771e-05
 204    2.0947037010646e-05
 205    1.8043923094277e-05
 206    -7.23766521142e-07
 207    6.4440016467276e-05
 208    -2.3525033560857e-05
 209    -4.7867438807124e-06
 210    3.0686307783936e-06
 211    -0.003762522255738
 212    -6.2749569933501e-05
 213    0.0003433698879172
 214    3.2095528305632e-05
 215    -6.5870333248307e-06
 216    7.8532220026011e-05
 217    0.00018506013018116
 218    -0.00013095955907666
 219    -1.1342612333521e-05
 220    1.2017104105474e-05
 221    -2.0702176942254e-05
 222    1.7616642632125e-05
 223    -3.0845840217033e-06
 224    2.1313363927897e-06
 225     6.16066467036e-06
 226    -0.00022186072711782
 227    6.5460285493808e-05
 228    -1.3888195094488e-05
 229    -1.57549716709e-05
 230    -6.3428619021689e-05
 231    -0.00028586850531037
 232    3.1191518855648e-05
 233    -2.3693422564631e-05
 234    -5.8971810337498e-05
 235    -0.00043611506543856
 236    -0.00015122148504213
 237    0.00086737737114737
 238    -4.3546571046255e-05
 239    2.3915801133321e-05
 240    3.0004308478945e-05
 241    -0.0004858102577885
 242    -3.9931462618229e-06
 243    0.00042327489519157
 244    2.5952767320312e-06
 245    -2.246513507447e-05
 246    8.5790816783035e-06
 247    1.4607389892477e-05
 248    -6.8581511062547e-06
 249    6.9615321510388e-05
 250    6.4449267698622e-05
 251    -5.4866988308203e-06
 252    9.5558492015464e-08
 253    -3.3174605675233e-06
 254    9.0349726362552e-06
 255    -1.1826447244385e-05
 256    -3.286834316857e-06
 257    5.1338861837464e-06
 258    2.1355100456543e-06
 259    -0.0001667809173465
 260    -6.1156004218982e-05
 261    2.042486365261e-05
 262    -5.9072640259947e-05
 263    5.0580988173294e-05