[Molden Format]
made by pyscf v[2.0.1]
[Atoms] (AU)
O   1   8     0.00000000000000     0.00000000000000     9.42996968581551
H   2   1     0.00000000000000     0.00000000000000     7.60656786391454
H   3   1    -0.05031916615174     1.78353065140343     9.80584138228218
O   4   8     0.00000000000000     0.00000000000000     2.31533471513237
C   5   6     0.00000000000000     0.00000000000000     0.00000000000000
C   6   6     2.01118073026938    -1.40227222164369    -1.50774939176400
C   7   6    -2.01249334291722     1.41331050329955    -1.50315905028694
H   8   1     3.32037363730244    -2.26721897153159    -0.13599698591495
C   9   6     3.45899267434009     0.28739631745591    -3.37437943254505
H   10   1     1.07662969841332    -2.94725144642667    -2.56541439481080
H   11   1    -2.67503415753480     0.18421555839588    -3.06194479365997
H   12   1    -1.07974048864772     3.03851734677796    -2.43674295017013
C   13   6    -4.21607110578555     2.32938802552922     0.11994162256091
H   14   1     4.24440173074564     1.93368664142019    -2.34976285512790
H   15   1     2.15020713235517     1.04714335134846    -4.81494497423699
C   16   6     5.60746363007797    -1.12419643481196    -4.70268606082550
H   17   1    -3.46838323670267     3.50951302338067     1.66946842715333
H   18   1    -5.11873485366228     0.68575958301209     1.04047743976495
C   19   6    -6.18314754751344     3.80909592987882    -1.39656589068747
H   20   1     6.93011263717176    -1.87550812453645    -3.26656317360070
C   21   6     7.06356622236532     0.52877932406334    -6.57829775293605
H   22   1     4.82318879258361    -2.78573437948532    -5.70504560381835
H   23   1    -6.91582688743803     2.61304780074712    -2.95074552451969
H   24   1    -5.26532430573853     5.45420349051338    -2.31005832200284
C   25   6    -8.39941882261433     4.73263980500213     0.21800571437956
H   26   1     7.83338371486801     2.19084139882824    -5.57093109900697
H   27   1     5.73544244039420     1.27376866537418    -8.01071492370229
C   28   6     9.21124858443101    -0.89699110072176    -7.88926949186242
H   29   1    -7.66272760055236     5.92277078003992     1.77035591474408
H   30   1    -9.31497248082589     3.08753015622020     1.12614408368786
C   31   6   -10.35481709231879     6.21833079391143    -1.30905206253246
H   32   1    10.58815905329501    -1.61074586756696    -6.49512691622620
H   33   1    10.23506248045667     0.32468009384095    -9.23072870921204
H   34   1     8.47665842847139    -2.53598436989925    -8.94921964622535
H   35   1    -9.48948872868064     7.90013588951020    -2.18823918416067
H   36   1   -11.93332513000955     6.86460487874102    -0.11255798845995
H   37   1   -11.15126291841033     5.04495968327630    -2.83849898862534
[GTO]
1 0
 s    8 1.00
                 11720  0.00070964594651845
                  1759  0.0054672722921914
                 400.8   0.027823118610189
                 113.7    0.10474773971146
                 37.03    0.28292084635691
                 13.27    0.44849523869833
                 5.025    0.27081688521277
                 1.013    0.01545029160744
 s    8 1.00
                 11720  -0.00031444341168873
                  1759  -0.0024821376810179
                 400.8  -0.012316355381583
                 113.7  -0.050538917343672
                 37.03   -0.13938490331632
                 13.27   -0.32507749481778
                 5.025   -0.22984830758785
                 1.013     1.0953793467883
 s    1 1.00
                0.3023                   1
 p    3 1.00
                  17.7   0.062679166281506
                 3.854    0.33353656587936
                 1.046    0.74123964163973
 p    1 1.00
                0.2753                   1
 d    1 1.00
                 1.185                   1

2 0
 s    3 1.00
                 13.01   0.033498726389998
                 1.962    0.23480080117413
                0.4446     0.8136829578829
 s    1 1.00
                 0.122                   1
 p    1 1.00
                 0.727                   1

3 0
 s    3 1.00
                 13.01   0.033498726389998
                 1.962    0.23480080117413
                0.4446     0.8136829578829
 s    1 1.00
                 0.122                   1
 p    1 1.00
                 0.727                   1

4 0
 s    8 1.00
                 11720  0.00070964594651845
                  1759  0.0054672722921914
                 400.8   0.027823118610189
                 113.7    0.10474773971146
                 37.03    0.28292084635691
                 13.27    0.44849523869833
                 5.025    0.27081688521277
                 1.013    0.01545029160744
 s    8 1.00
                 11720  -0.00031444341168873
                  1759  -0.0024821376810179
                 400.8  -0.012316355381583
                 113.7  -0.050538917343672
                 37.03   -0.13938490331632
                 13.27   -0.32507749481778
                 5.025   -0.22984830758785
                 1.013     1.0953793467883
 s    1 1.00
                0.3023                   1
 p    3 1.00
                  17.7   0.062679166281506
                 3.854    0.33353656587936
                 1.046    0.74123964163973
 p    1 1.00
                0.2753                   1
 d    1 1.00
                 1.185                   1

5 0
 s    8 1.00
                  6665  0.00069158396281299
                  1000  0.0053257961529341
                   228   0.027060721042034
                 64.71    0.10165684614077
                 21.06     0.2745748236174
                 7.495    0.44829431892377
                 2.797    0.28490261071525
                0.5215   0.015194859206082
 s    8 1.00
                  6665  -0.00029326965268655
                  1000  -0.0023180354739745
                   228  -0.011499786038565
                 64.71  -0.046826727009787
                 21.06   -0.12846616875047
                 7.495   -0.30126627246289
                 2.797   -0.25563070233011
                0.5215      1.093793361012
 s    1 1.00
                0.1596                   1
 p    3 1.00
                 9.439   0.056979251590039
                 2.002    0.31320721150073
                0.5456    0.76037674173753
 p    1 1.00
                0.1517                   1
 d    1 1.00
                  0.55                   1

6 0
 s    8 1.00
                  6665  0.00069158396281299
                  1000  0.0053257961529341
                   228   0.027060721042034
                 64.71    0.10165684614077
                 21.06     0.2745748236174
                 7.495    0.44829431892377
                 2.797    0.28490261071525
                0.5215   0.015194859206082
 s    8 1.00
                  6665  -0.00029326965268655
                  1000  -0.0023180354739745
                   228  -0.011499786038565
                 64.71  -0.046826727009787
                 21.06   -0.12846616875047
                 7.495   -0.30126627246289
                 2.797   -0.25563070233011
                0.5215      1.093793361012
 s    1 1.00
                0.1596                   1
 p    3 1.00
                 9.439   0.056979251590039
                 2.002    0.31320721150073
                0.5456    0.76037674173753
 p    1 1.00
                0.1517                   1
 d    1 1.00
                  0.55                   1

7 0
 s    8 1.00
                  6665  0.00069158396281299
                  1000  0.0053257961529341
                   228   0.027060721042034
                 64.71    0.10165684614077
                 21.06     0.2745748236174
                 7.495    0.44829431892377
                 2.797    0.28490261071525
                0.5215   0.015194859206082
 s    8 1.00
                  6665  -0.00029326965268655
                  1000  -0.0023180354739745
                   228  -0.011499786038565
                 64.71  -0.046826727009787
                 21.06   -0.12846616875047
                 7.495   -0.30126627246289
                 2.797   -0.25563070233011
                0.5215      1.093793361012
 s    1 1.00
                0.1596                   1
 p    3 1.00
                 9.439   0.056979251590039
                 2.002    0.31320721150073
                0.5456    0.76037674173753
 p    1 1.00
                0.1517                   1
 d    1 1.00
                  0.55                   1

8 0
 s    3 1.00
                 13.01   0.033498726389998
                 1.962    0.23480080117413
                0.4446     0.8136829578829
 s    1 1.00
                 0.122                   1
 p    1 1.00
                 0.727                   1

9 0
 s    8 1.00
                  6665  0.00069158396281299
                  1000  0.0053257961529341
                   228   0.027060721042034
                 64.71    0.10165684614077
                 21.06     0.2745748236174
                 7.495    0.44829431892377
                 2.797    0.28490261071525
                0.5215   0.015194859206082
 s    8 1.00
                  6665  -0.00029326965268655
                  1000  -0.0023180354739745
                   228  -0.011499786038565
                 64.71  -0.046826727009787
                 21.06   -0.12846616875047
                 7.495   -0.30126627246289
                 2.797   -0.25563070233011
                0.5215      1.093793361012
 s    1 1.00
                0.1596                   1
 p    3 1.00
                 9.439   0.056979251590039
                 2.002    0.31320721150073
                0.5456    0.76037674173753
 p    1 1.00
                0.1517                   1
 d    1 1.00
                  0.55                   1

10 0
 s    3 1.00
                 13.01   0.033498726389998
                 1.962    0.23480080117413
                0.4446     0.8136829578829
 s    1 1.00
                 0.122                   1
 p    1 1.00
                 0.727                   1

11 0
 s    3 1.00
                 13.01   0.033498726389998
                 1.962    0.23480080117413
                0.4446     0.8136829578829
 s    1 1.00
                 0.122                   1
 p    1 1.00
                 0.727                   1

12 0
 s    3 1.00
                 13.01   0.033498726389998
                 1.962    0.23480080117413
                0.4446     0.8136829578829
 s    1 1.00
                 0.122                   1
 p    1 1.00
                 0.727                   1

13 0
 s    8 1.00
                  6665  0.00069158396281299
                  1000  0.0053257961529341
                   228   0.027060721042034
                 64.71    0.10165684614077
                 21.06     0.2745748236174
                 7.495    0.44829431892377
                 2.797    0.28490261071525
                0.5215   0.015194859206082
 s    8 1.00
                  6665  -0.00029326965268655
                  1000  -0.0023180354739745
                   228  -0.011499786038565
                 64.71  -0.046826727009787
                 21.06   -0.12846616875047
                 7.495   -0.30126627246289
                 2.797   -0.25563070233011
                0.5215      1.093793361012
 s    1 1.00
                0.1596                   1
 p    3 1.00
                 9.439   0.056979251590039
                 2.002    0.31320721150073
                0.5456    0.76037674173753
 p    1 1.00
                0.1517                   1
 d    1 1.00
                  0.55                   1

14 0
 s    3 1.00
                 13.01   0.033498726389998
                 1.962    0.23480080117413
                0.4446     0.8136829578829
 s    1 1.00
                 0.122                   1
 p    1 1.00
                 0.727                   1

15 0
 s    3 1.00
                 13.01   0.033498726389998
                 1.962    0.23480080117413
                0.4446     0.8136829578829
 s    1 1.00
                 0.122                   1
 p    1 1.00
                 0.727                   1

16 0
 s    8 1.00
                  6665  0.00069158396281299
                  1000  0.0053257961529341
                   228   0.027060721042034
                 64.71    0.10165684614077
                 21.06     0.2745748236174
                 7.495    0.44829431892377
                 2.797    0.28490261071525
                0.5215   0.015194859206082
 s    8 1.00
                  6665  -0.00029326965268655
                  1000  -0.0023180354739745
                   228  -0.011499786038565
                 64.71  -0.046826727009787
                 21.06   -0.12846616875047
                 7.495   -0.30126627246289
                 2.797   -0.25563070233011
                0.5215      1.093793361012
 s    1 1.00
                0.1596                   1
 p    3 1.00
                 9.439   0.056979251590039
                 2.002    0.31320721150073
                0.5456    0.76037674173753
 p    1 1.00
                0.1517                   1
 d    1 1.00
                  0.55                   1

17 0
 s    3 1.00
                 13.01   0.033498726389998
                 1.962    0.23480080117413
                0.4446     0.8136829578829
 s    1 1.00
                 0.122                   1
 p    1 1.00
                 0.727                   1

18 0
 s    3 1.00
                 13.01   0.033498726389998
                 1.962    0.23480080117413
                0.4446     0.8136829578829
 s    1 1.00
                 0.122                   1
 p    1 1.00
                 0.727                   1

19 0
 s    8 1.00
                  6665  0.00069158396281299
                  1000  0.0053257961529341
                   228   0.027060721042034
                 64.71    0.10165684614077
                 21.06     0.2745748236174
                 7.495    0.44829431892377
                 2.797    0.28490261071525
                0.5215   0.015194859206082
 s    8 1.00
                  6665  -0.00029326965268655
                  1000  -0.0023180354739745
                   228  -0.011499786038565
                 64.71  -0.046826727009787
                 21.06   -0.12846616875047
                 7.495   -0.30126627246289
                 2.797   -0.25563070233011
                0.5215      1.093793361012
 s    1 1.00
                0.1596                   1
 p    3 1.00
                 9.439   0.056979251590039
                 2.002    0.31320721150073
                0.5456    0.76037674173753
 p    1 1.00
                0.1517                   1
 d    1 1.00
                  0.55                   1

20 0
 s    3 1.00
                 13.01   0.033498726389998
                 1.962    0.23480080117413
                0.4446     0.8136829578829
 s    1 1.00
                 0.122                   1
 p    1 1.00
                 0.727                   1

21 0
 s    8 1.00
                  6665  0.00069158396281299
                  1000  0.0053257961529341
                   228   0.027060721042034
                 64.71    0.10165684614077
                 21.06     0.2745748236174
                 7.495    0.44829431892377
                 2.797    0.28490261071525
                0.5215   0.015194859206082
 s    8 1.00
                  6665  -0.00029326965268655
                  1000  -0.0023180354739745
                   228  -0.011499786038565
                 64.71  -0.046826727009787
                 21.06   -0.12846616875047
                 7.495   -0.30126627246289
                 2.797   -0.25563070233011
                0.5215      1.093793361012
 s    1 1.00
                0.1596                   1
 p    3 1.00
                 9.439   0.056979251590039
                 2.002    0.31320721150073
                0.5456    0.76037674173753
 p    1 1.00
                0.1517                   1
 d    1 1.00
                  0.55                   1

22 0
 s    3 1.00
                 13.01   0.033498726389998
                 1.962    0.23480080117413
                0.4446     0.8136829578829
 s    1 1.00
                 0.122                   1
 p    1 1.00
                 0.727                   1

23 0
 s    3 1.00
                 13.01   0.033498726389998
                 1.962    0.23480080117413
                0.4446     0.8136829578829
 s    1 1.00
                 0.122                   1
 p    1 1.00
                 0.727                   1

24 0
 s    3 1.00
                 13.01   0.033498726389998
                 1.962    0.23480080117413
                0.4446     0.8136829578829
 s    1 1.00
                 0.122                   1
 p    1 1.00
                 0.727                   1

25 0
 s    8 1.00
                  6665  0.00069158396281299
                  1000  0.0053257961529341
                   228   0.027060721042034
                 64.71    0.10165684614077
                 21.06     0.2745748236174
                 7.495    0.44829431892377
                 2.797    0.28490261071525
                0.5215   0.015194859206082
 s    8 1.00
                  6665  -0.00029326965268655
                  1000  -0.0023180354739745
                   228  -0.011499786038565
                 64.71  -0.046826727009787
                 21.06   -0.12846616875047
                 7.495   -0.30126627246289
                 2.797   -0.25563070233011
                0.5215      1.093793361012
 s    1 1.00
                0.1596                   1
 p    3 1.00
                 9.439   0.056979251590039
                 2.002    0.31320721150073
                0.5456    0.76037674173753
 p    1 1.00
                0.1517                   1
 d    1 1.00
                  0.55                   1

26 0
 s    3 1.00
                 13.01   0.033498726389998
                 1.962    0.23480080117413
                0.4446     0.8136829578829
 s    1 1.00
                 0.122                   1
 p    1 1.00
                 0.727                   1

27 0
 s    3 1.00
                 13.01   0.033498726389998
                 1.962    0.23480080117413
                0.4446     0.8136829578829
 s    1 1.00
                 0.122                   1
 p    1 1.00
                 0.727                   1

28 0
 s    8 1.00
                  6665  0.00069158396281299
                  1000  0.0053257961529341
                   228   0.027060721042034
                 64.71    0.10165684614077
                 21.06     0.2745748236174
                 7.495    0.44829431892377
                 2.797    0.28490261071525
                0.5215   0.015194859206082
 s    8 1.00
                  6665  -0.00029326965268655
                  1000  -0.0023180354739745
                   228  -0.011499786038565
                 64.71  -0.046826727009787
                 21.06   -0.12846616875047
                 7.495   -0.30126627246289
                 2.797   -0.25563070233011
                0.5215      1.093793361012
 s    1 1.00
                0.1596                   1
 p    3 1.00
                 9.439   0.056979251590039
                 2.002    0.31320721150073
                0.5456    0.76037674173753
 p    1 1.00
                0.1517                   1
 d    1 1.00
                  0.55                   1

29 0
 s    3 1.00
                 13.01   0.033498726389998
                 1.962    0.23480080117413
                0.4446     0.8136829578829
 s    1 1.00
                 0.122                   1
 p    1 1.00
                 0.727                   1

30 0
 s    3 1.00
                 13.01   0.033498726389998
                 1.962    0.23480080117413
                0.4446     0.8136829578829
 s    1 1.00
                 0.122                   1
 p    1 1.00
                 0.727                   1

31 0
 s    8 1.00
                  6665  0.00069158396281299
                  1000  0.0053257961529341
                   228   0.027060721042034
                 64.71    0.10165684614077
                 21.06     0.2745748236174
                 7.495    0.44829431892377
                 2.797    0.28490261071525
                0.5215   0.015194859206082
 s    8 1.00
                  6665  -0.00029326965268655
                  1000  -0.0023180354739745
                   228  -0.011499786038565
                 64.71  -0.046826727009787
                 21.06   -0.12846616875047
                 7.495   -0.30126627246289
                 2.797   -0.25563070233011
                0.5215      1.093793361012
 s    1 1.00
                0.1596                   1
 p    3 1.00
                 9.439   0.056979251590039
                 2.002    0.31320721150073
                0.5456    0.76037674173753
 p    1 1.00
                0.1517                   1
 d    1 1.00
                  0.55                   1

32 0
 s    3 1.00
                 13.01   0.033498726389998
                 1.962    0.23480080117413
                0.4446     0.8136829578829
 s    1 1.00
                 0.122                   1
 p    1 1.00
                 0.727                   1

33 0
 s    3 1.00
                 13.01   0.033498726389998
                 1.962    0.23480080117413
                0.4446     0.8136829578829
 s    1 1.00
                 0.122                   1
 p    1 1.00
                 0.727                   1

34 0
 s    3 1.00
                 13.01   0.033498726389998
                 1.962    0.23480080117413
                0.4446     0.8136829578829
 s    1 1.00
                 0.122                   1
 p    1 1.00
                 0.727                   1

35 0
 s    3 1.00
                 13.01   0.033498726389998
                 1.962    0.23480080117413
                0.4446     0.8136829578829
 s    1 1.00
                 0.122                   1
 p    1 1.00
                 0.727                   1

36 0
 s    3 1.00
                 13.01   0.033498726389998
                 1.962    0.23480080117413
                0.4446     0.8136829578829
 s    1 1.00
                 0.122                   1
 p    1 1.00
                 0.727                   1

37 0
 s    3 1.00
                 13.01   0.033498726389998
                 1.962    0.23480080117413
                0.4446     0.8136829578829
 s    1 1.00
                 0.122                   1
 p    1 1.00
                 0.727                   1

[5d]
[7f]
[9g]

[MO]
 Sym= A
 Ene=               0
 Spin= Alpha
 Occup=    1.00000
   1    -2.3232603128415e-07
   2    -3.3931624763407e-07
   3    -6.7355975340813e-06
   4    1.3487344895541e-07
   5    -7.033221693923e-08
   6    3.5304679382837e-07
   7    -7.9187885439478e-08
   8    7.0454092743631e-07
   9    2.6532152796322e-06
  10    -4.8575556508715e-07
  11    -4.9091332029905e-08
  12    3.1846363129881e-08
  13    1.6084442468369e-08
  14    -3.6876387495416e-09
  15    -9.0019431327951e-07
  16    5.8141677237409e-06
  17    -3.1507054812626e-07
  18    1.4426536321853e-07
  19    1.6508848462604e-06
  20    -2.949615049372e-07
  21    -5.2214026011282e-07
  22    2.1287044961994e-08
  23    1.9673021714756e-08
  24    -9.1267851449002e-08
  25    0.00011800846704182
  26    0.00027819460742823
  27    0.00027432542179548
  28    2.530080050251e-06
  29    -0.00016918467775289
  30    -0.00012665020144464
  31    9.603506029293e-05
  32    -0.0001474124928001
  33    -6.9533517714781e-06
  34    8.2813878624483e-06
  35    -1.0397873032472e-05
  36    4.6511922583548e-05
  37    -7.0148827139691e-07
  38    1.4048814452611e-05
  39    0.0004133431587077
  40    0.00097571504302718
  41    0.00057177062551955
  42    0.00053943747560349
  43    -0.00078107483303934
  44    -0.0005357840289812
  45    -0.00070529457278557
  46    0.00050363416512844
  47    -0.00023341293465216
  48    0.00011217750786479
  49    2.2746960774563e-06
  50    0.00011658012840422
  51    3.8501219981272e-05
  52    -8.051703859153e-05
  53     -0.21364737635492
  54    -0.00039233100050037
  55    0.00091841536083521
  56    -0.0016034134421573
  57    0.00019407407121902
  58    -0.00048149706192662
  59    -0.0017298499759625
  60    -0.00011190135762482
  61    0.00059977219755713
  62    -1.957569512945e-05
  63    -0.00028075005941393
  64    -6.5053881073345e-05
  65    -1.6327968386972e-05
  66    0.00010134210866704
  67    0.0010308705026245
  68    0.00047499530161817
  69    -0.0011522309411743
  70    -0.00010456497250862
  71    -0.00081918126540477
  72    -0.0010034725423141
  73    -0.0010001862094479
  74    -0.00018989649290384
  75    -0.00062469514501264
  76    -1.5557999885101e-05
  77    2.0191997129774e-05
  78    9.3392366683148e-05
  79    -1.4082491620039e-05
  80    -7.0788655859037e-07
  81    -0.00089697991478091
  82    -0.00072425720527045
  83    -9.0776145772494e-05
  84    -3.8845331518447e-05
  85    1.3885951857512e-05
  86     -0.97900623772672
  87    -0.005113311934208
  88     0.011332139992527
  89    0.00012671562588266
  90    -0.00013698487429913
  91    0.00010472467398081
  92    0.00085075618753374
  93    -0.0012289757862146
  94    -0.00030375599842798
  95    -5.5833933327174e-05
  96    -0.00036579499551749
  97    -5.0824968180658e-05
  98    9.049564942781e-05
  99    4.8419671738226e-06
 100    0.0011881691381374
 101    -8.6907493089607e-05
 102    2.7197132455659e-05
 103    9.9308061577381e-05
 104    0.00014429463377241
 105    0.0012998654907039
 106    0.00052910820083466
 107    0.00011704050026391
 108    4.5681303985468e-05
 109    5.6986811240126e-05
 110    -3.1178015651468e-05
 111    0.0003785586557263
 112    1.7906141691074e-05
 113    -8.2273457311558e-05
 114    -2.3798370946081e-05
 115    -0.00089359672395303
 116    -4.0657089157645e-05
 117    -0.00013071327154155
 118    -0.00039870079731749
 119    0.00022044101247278
 120    0.00012436695270104
 121    -0.0003338407185366
 122    0.00034933328959156
 123    0.00017337996470335
 124    1.8711229200138e-05
 125    4.1570190012156e-05
 126    8.7407866390949e-07
 127    -4.2201718647919e-05
 128    9.163659946476e-06
 129    -6.6162527904309e-05
 130    -0.0011356634049793
 131    -0.0002051782646072
 132    -0.00027300834552341
 133    -0.00023238545593552
 134    -0.00039556610809296
 135    -0.0015488011380803
 136    0.00025383957749939
 137    -5.4545772204569e-05
 138    0.00030327909842196
 139    -0.028520816844701
 140    0.00010521017838221
 141    -0.0031999906503642
 142    0.00024441471921923
 143    -3.7839709853616e-06
 144    -4.5786819950466e-05
 145    0.0013577601214071
 146    -0.00087930114597184
 147    -0.00065741453808335
 148    -2.6658175527554e-05
 149    -4.4908607463979e-05
 150    4.7429322206495e-05
 151    8.0208101847257e-06
 152    -8.790632905629e-05
 153    9.6773073660516e-05
 154    7.5679502447486e-05
 155     3.40114297836e-06
 156    -1.7386636162158e-06
 157    2.0209427629742e-06
 158    -9.3169826451371e-08
 159    -1.9070648365814e-05
 160    -1.0150100112243e-05
 161    -2.3265534433697e-06
 162    2.958296482657e-06
 163     0.013553275437996
 164    0.00011065862662079
 165    -6.9878047956964e-06
 166    0.00016877938077071
 167    -2.5659415543339e-06
 168    0.00017728695214224
 169    -0.00028803331672357
 170    0.00015239806673474
 171    0.00015048560209904
 172    5.6767350929005e-06
 173    -1.3460808004926e-05
 174    -6.6160986188111e-06
 175    -1.5094371407239e-06
 176    1.8140700425406e-06
 177    0.00019703662676564
 178    -0.00019388126417344
 179    4.2659034677367e-05
 180    -2.6806855124121e-05
 181    -2.100559617706e-05
 182    0.00027370140854663
 183    0.00010829894981035
 184    0.00045740102853363
 185    -0.00014149758936111
 186    -3.1700448639143e-05
 187    8.7962935985753e-05
 188    0.0003246545635147
 189    -0.00054308596649909
 190    -0.00011322631529794
 191    2.5283339551312e-05
 192    8.7508814661806e-06
 193    -3.5634722208679e-05
 194    -1.5298441814484e-06
 195    4.9945598356161e-05
 196    6.184370679485e-05
 197    -0.00012449158117521
 198    3.3723568505849e-05
 199    -3.3601298791586e-05
 200    -2.4910314743315e-05
 201    -0.00013023974358637
 202    -8.6209898714462e-05
 203    1.5312033081337e-05
 204    -2.0065703245424e-05
 205    -1.7924094296254e-05
 206    3.5829464037045e-05
 207    -5.6527826053986e-05
 208    2.2206889877723e-05
 209    5.979288215094e-06
 210    -5.4158248140805e-06
 211    0.0034074504898706
 212    5.0930556991313e-05
 213    -0.0003439789282582
 214    -4.5487218851785e-05
 215    1.0622725897458e-05
 216    -4.689794173557e-05
 217    -0.00017409304468964
 218    0.00011474046004781
 219    3.6138055761374e-05
 220    -7.5824826491879e-06
 221    2.0563868000228e-05
 222    -1.6082144161714e-05
 223    -3.3001516361482e-07
 224    2.7704656657169e-06
 225    -9.5730270991787e-07
 226    0.00022524504455804
 227    -6.5340463992334e-05
 228    1.4186865374633e-05
 229    1.5105891772023e-05
 230    6.1523184086058e-05
 231    0.00028733720095005
 232    -3.1105074773505e-05
 233    2.4465640943866e-05
 234    5.9051585364259e-05
 235    0.00027495590207926
 236    0.00015331714571527
 237    -0.0008560429493197
 238    2.5569234136756e-05
 239    -2.0473982747052e-05
 240    -2.0545739394591e-05
 241    0.00047242050937269
 242    -7.3897084675726e-06
 243    -0.00040949760377238
 244    -2.6760194254834e-06
 245    2.2289258008861e-05
 246    -7.4220289730921e-06
 247    -1.4782491875598e-05
 248    6.3467255166981e-06
 249    -4.7645981284095e-05
 250    -4.7454240262443e-05
 251    4.976748227417e-06
 252    -2.0698126684904e-07
 253    2.3911042229838e-06
 254    3.9036315785135e-06
 255    1.6639557434378e-05
 256    2.9741009032494e-06
 257    -4.2129104645277e-06
 258    -2.4826893085001e-06
 259    0.0005746416239288
 260    5.2219589067407e-05
 261    -3.1690409424118e-05
 262    4.5990318377395e-05
 263    -4.276606360966e-05