[Molden Format]
made by pyscf v[2.0.1]
[Atoms] (AU)
O   1   8     0.00000000000000     0.00000000000000     9.05202446090250
H   2   1     0.00000000000000     0.00000000000000     7.22862263900153
H   3   1    -0.05031916615174     1.78353065140343     9.42789615736916
O   4   8     0.00000000000000     0.00000000000000     2.31533471513237
C   5   6     0.00000000000000     0.00000000000000     0.00000000000000
C   6   6     2.01118073026938    -1.40227222164369    -1.50774939176400
C   7   6    -2.01249334291722     1.41331050329955    -1.50315905028694
H   8   1     3.32037363730244    -2.26721897153159    -0.13599698591495
C   9   6     3.45899267434009     0.28739631745591    -3.37437943254505
H   10   1     1.07662969841332    -2.94725144642667    -2.56541439481080
H   11   1    -2.67503415753480     0.18421555839588    -3.06194479365997
H   12   1    -1.07974048864772     3.03851734677796    -2.43674295017013
C   13   6    -4.21607110578555     2.32938802552922     0.11994162256091
H   14   1     4.24440173074564     1.93368664142019    -2.34976285512790
H   15   1     2.15020713235517     1.04714335134846    -4.81494497423699
C   16   6     5.60746363007797    -1.12419643481196    -4.70268606082550
H   17   1    -3.46838323670267     3.50951302338067     1.66946842715333
H   18   1    -5.11873485366228     0.68575958301209     1.04047743976495
C   19   6    -6.18314754751344     3.80909592987882    -1.39656589068747
H   20   1     6.93011263717176    -1.87550812453645    -3.26656317360070
C   21   6     7.06356622236532     0.52877932406334    -6.57829775293605
H   22   1     4.82318879258361    -2.78573437948532    -5.70504560381835
H   23   1    -6.91582688743803     2.61304780074712    -2.95074552451969
H   24   1    -5.26532430573853     5.45420349051338    -2.31005832200284
C   25   6    -8.39941882261433     4.73263980500213     0.21800571437956
H   26   1     7.83338371486801     2.19084139882824    -5.57093109900697
H   27   1     5.73544244039420     1.27376866537418    -8.01071492370229
C   28   6     9.21124858443101    -0.89699110072176    -7.88926949186242
H   29   1    -7.66272760055236     5.92277078003992     1.77035591474408
H   30   1    -9.31497248082589     3.08753015622020     1.12614408368786
C   31   6   -10.35481709231879     6.21833079391143    -1.30905206253246
H   32   1    10.58815905329501    -1.61074586756696    -6.49512691622620
H   33   1    10.23506248045667     0.32468009384095    -9.23072870921204
H   34   1     8.47665842847139    -2.53598436989925    -8.94921964622535
H   35   1    -9.48948872868064     7.90013588951020    -2.18823918416067
H   36   1   -11.93332513000955     6.86460487874102    -0.11255798845995
H   37   1   -11.15126291841033     5.04495968327630    -2.83849898862534
[GTO]
1 0
 s    8 1.00
                 11720  0.00070964594651845
                  1759  0.0054672722921914
                 400.8   0.027823118610189
                 113.7    0.10474773971146
                 37.03    0.28292084635691
                 13.27    0.44849523869833
                 5.025    0.27081688521277
                 1.013    0.01545029160744
 s    8 1.00
                 11720  -0.00031444341168873
                  1759  -0.0024821376810179
                 400.8  -0.012316355381583
                 113.7  -0.050538917343672
                 37.03   -0.13938490331632
                 13.27   -0.32507749481778
                 5.025   -0.22984830758785
                 1.013     1.0953793467883
 s    1 1.00
                0.3023                   1
 p    3 1.00
                  17.7   0.062679166281506
                 3.854    0.33353656587936
                 1.046    0.74123964163973
 p    1 1.00
                0.2753                   1
 d    1 1.00
                 1.185                   1

2 0
 s    3 1.00
                 13.01   0.033498726389998
                 1.962    0.23480080117413
                0.4446     0.8136829578829
 s    1 1.00
                 0.122                   1
 p    1 1.00
                 0.727                   1

3 0
 s    3 1.00
                 13.01   0.033498726389998
                 1.962    0.23480080117413
                0.4446     0.8136829578829
 s    1 1.00
                 0.122                   1
 p    1 1.00
                 0.727                   1

4 0
 s    8 1.00
                 11720  0.00070964594651845
                  1759  0.0054672722921914
                 400.8   0.027823118610189
                 113.7    0.10474773971146
                 37.03    0.28292084635691
                 13.27    0.44849523869833
                 5.025    0.27081688521277
                 1.013    0.01545029160744
 s    8 1.00
                 11720  -0.00031444341168873
                  1759  -0.0024821376810179
                 400.8  -0.012316355381583
                 113.7  -0.050538917343672
                 37.03   -0.13938490331632
                 13.27   -0.32507749481778
                 5.025   -0.22984830758785
                 1.013     1.0953793467883
 s    1 1.00
                0.3023                   1
 p    3 1.00
                  17.7   0.062679166281506
                 3.854    0.33353656587936
                 1.046    0.74123964163973
 p    1 1.00
                0.2753                   1
 d    1 1.00
                 1.185                   1

5 0
 s    8 1.00
                  6665  0.00069158396281299
                  1000  0.0053257961529341
                   228   0.027060721042034
                 64.71    0.10165684614077
                 21.06     0.2745748236174
                 7.495    0.44829431892377
                 2.797    0.28490261071525
                0.5215   0.015194859206082
 s    8 1.00
                  6665  -0.00029326965268655
                  1000  -0.0023180354739745
                   228  -0.011499786038565
                 64.71  -0.046826727009787
                 21.06   -0.12846616875047
                 7.495   -0.30126627246289
                 2.797   -0.25563070233011
                0.5215      1.093793361012
 s    1 1.00
                0.1596                   1
 p    3 1.00
                 9.439   0.056979251590039
                 2.002    0.31320721150073
                0.5456    0.76037674173753
 p    1 1.00
                0.1517                   1
 d    1 1.00
                  0.55                   1

6 0
 s    8 1.00
                  6665  0.00069158396281299
                  1000  0.0053257961529341
                   228   0.027060721042034
                 64.71    0.10165684614077
                 21.06     0.2745748236174
                 7.495    0.44829431892377
                 2.797    0.28490261071525
                0.5215   0.015194859206082
 s    8 1.00
                  6665  -0.00029326965268655
                  1000  -0.0023180354739745
                   228  -0.011499786038565
                 64.71  -0.046826727009787
                 21.06   -0.12846616875047
                 7.495   -0.30126627246289
                 2.797   -0.25563070233011
                0.5215      1.093793361012
 s    1 1.00
                0.1596                   1
 p    3 1.00
                 9.439   0.056979251590039
                 2.002    0.31320721150073
                0.5456    0.76037674173753
 p    1 1.00
                0.1517                   1
 d    1 1.00
                  0.55                   1

7 0
 s    8 1.00
                  6665  0.00069158396281299
                  1000  0.0053257961529341
                   228   0.027060721042034
                 64.71    0.10165684614077
                 21.06     0.2745748236174
                 7.495    0.44829431892377
                 2.797    0.28490261071525
                0.5215   0.015194859206082
 s    8 1.00
                  6665  -0.00029326965268655
                  1000  -0.0023180354739745
                   228  -0.011499786038565
                 64.71  -0.046826727009787
                 21.06   -0.12846616875047
                 7.495   -0.30126627246289
                 2.797   -0.25563070233011
                0.5215      1.093793361012
 s    1 1.00
                0.1596                   1
 p    3 1.00
                 9.439   0.056979251590039
                 2.002    0.31320721150073
                0.5456    0.76037674173753
 p    1 1.00
                0.1517                   1
 d    1 1.00
                  0.55                   1

8 0
 s    3 1.00
                 13.01   0.033498726389998
                 1.962    0.23480080117413
                0.4446     0.8136829578829
 s    1 1.00
                 0.122                   1
 p    1 1.00
                 0.727                   1

9 0
 s    8 1.00
                  6665  0.00069158396281299
                  1000  0.0053257961529341
                   228   0.027060721042034
                 64.71    0.10165684614077
                 21.06     0.2745748236174
                 7.495    0.44829431892377
                 2.797    0.28490261071525
                0.5215   0.015194859206082
 s    8 1.00
                  6665  -0.00029326965268655
                  1000  -0.0023180354739745
                   228  -0.011499786038565
                 64.71  -0.046826727009787
                 21.06   -0.12846616875047
                 7.495   -0.30126627246289
                 2.797   -0.25563070233011
                0.5215      1.093793361012
 s    1 1.00
                0.1596                   1
 p    3 1.00
                 9.439   0.056979251590039
                 2.002    0.31320721150073
                0.5456    0.76037674173753
 p    1 1.00
                0.1517                   1
 d    1 1.00
                  0.55                   1

10 0
 s    3 1.00
                 13.01   0.033498726389998
                 1.962    0.23480080117413
                0.4446     0.8136829578829
 s    1 1.00
                 0.122                   1
 p    1 1.00
                 0.727                   1

11 0
 s    3 1.00
                 13.01   0.033498726389998
                 1.962    0.23480080117413
                0.4446     0.8136829578829
 s    1 1.00
                 0.122                   1
 p    1 1.00
                 0.727                   1

12 0
 s    3 1.00
                 13.01   0.033498726389998
                 1.962    0.23480080117413
                0.4446     0.8136829578829
 s    1 1.00
                 0.122                   1
 p    1 1.00
                 0.727                   1

13 0
 s    8 1.00
                  6665  0.00069158396281299
                  1000  0.0053257961529341
                   228   0.027060721042034
                 64.71    0.10165684614077
                 21.06     0.2745748236174
                 7.495    0.44829431892377
                 2.797    0.28490261071525
                0.5215   0.015194859206082
 s    8 1.00
                  6665  -0.00029326965268655
                  1000  -0.0023180354739745
                   228  -0.011499786038565
                 64.71  -0.046826727009787
                 21.06   -0.12846616875047
                 7.495   -0.30126627246289
                 2.797   -0.25563070233011
                0.5215      1.093793361012
 s    1 1.00
                0.1596                   1
 p    3 1.00
                 9.439   0.056979251590039
                 2.002    0.31320721150073
                0.5456    0.76037674173753
 p    1 1.00
                0.1517                   1
 d    1 1.00
                  0.55                   1

14 0
 s    3 1.00
                 13.01   0.033498726389998
                 1.962    0.23480080117413
                0.4446     0.8136829578829
 s    1 1.00
                 0.122                   1
 p    1 1.00
                 0.727                   1

15 0
 s    3 1.00
                 13.01   0.033498726389998
                 1.962    0.23480080117413
                0.4446     0.8136829578829
 s    1 1.00
                 0.122                   1
 p    1 1.00
                 0.727                   1

16 0
 s    8 1.00
                  6665  0.00069158396281299
                  1000  0.0053257961529341
                   228   0.027060721042034
                 64.71    0.10165684614077
                 21.06     0.2745748236174
                 7.495    0.44829431892377
                 2.797    0.28490261071525
                0.5215   0.015194859206082
 s    8 1.00
                  6665  -0.00029326965268655
                  1000  -0.0023180354739745
                   228  -0.011499786038565
                 64.71  -0.046826727009787
                 21.06   -0.12846616875047
                 7.495   -0.30126627246289
                 2.797   -0.25563070233011
                0.5215      1.093793361012
 s    1 1.00
                0.1596                   1
 p    3 1.00
                 9.439   0.056979251590039
                 2.002    0.31320721150073
                0.5456    0.76037674173753
 p    1 1.00
                0.1517                   1
 d    1 1.00
                  0.55                   1

17 0
 s    3 1.00
                 13.01   0.033498726389998
                 1.962    0.23480080117413
                0.4446     0.8136829578829
 s    1 1.00
                 0.122                   1
 p    1 1.00
                 0.727                   1

18 0
 s    3 1.00
                 13.01   0.033498726389998
                 1.962    0.23480080117413
                0.4446     0.8136829578829
 s    1 1.00
                 0.122                   1
 p    1 1.00
                 0.727                   1

19 0
 s    8 1.00
                  6665  0.00069158396281299
                  1000  0.0053257961529341
                   228   0.027060721042034
                 64.71    0.10165684614077
                 21.06     0.2745748236174
                 7.495    0.44829431892377
                 2.797    0.28490261071525
                0.5215   0.015194859206082
 s    8 1.00
                  6665  -0.00029326965268655
                  1000  -0.0023180354739745
                   228  -0.011499786038565
                 64.71  -0.046826727009787
                 21.06   -0.12846616875047
                 7.495   -0.30126627246289
                 2.797   -0.25563070233011
                0.5215      1.093793361012
 s    1 1.00
                0.1596                   1
 p    3 1.00
                 9.439   0.056979251590039
                 2.002    0.31320721150073
                0.5456    0.76037674173753
 p    1 1.00
                0.1517                   1
 d    1 1.00
                  0.55                   1

20 0
 s    3 1.00
                 13.01   0.033498726389998
                 1.962    0.23480080117413
                0.4446     0.8136829578829
 s    1 1.00
                 0.122                   1
 p    1 1.00
                 0.727                   1

21 0
 s    8 1.00
                  6665  0.00069158396281299
                  1000  0.0053257961529341
                   228   0.027060721042034
                 64.71    0.10165684614077
                 21.06     0.2745748236174
                 7.495    0.44829431892377
                 2.797    0.28490261071525
                0.5215   0.015194859206082
 s    8 1.00
                  6665  -0.00029326965268655
                  1000  -0.0023180354739745
                   228  -0.011499786038565
                 64.71  -0.046826727009787
                 21.06   -0.12846616875047
                 7.495   -0.30126627246289
                 2.797   -0.25563070233011
                0.5215      1.093793361012
 s    1 1.00
                0.1596                   1
 p    3 1.00
                 9.439   0.056979251590039
                 2.002    0.31320721150073
                0.5456    0.76037674173753
 p    1 1.00
                0.1517                   1
 d    1 1.00
                  0.55                   1

22 0
 s    3 1.00
                 13.01   0.033498726389998
                 1.962    0.23480080117413
                0.4446     0.8136829578829
 s    1 1.00
                 0.122                   1
 p    1 1.00
                 0.727                   1

23 0
 s    3 1.00
                 13.01   0.033498726389998
                 1.962    0.23480080117413
                0.4446     0.8136829578829
 s    1 1.00
                 0.122                   1
 p    1 1.00
                 0.727                   1

24 0
 s    3 1.00
                 13.01   0.033498726389998
                 1.962    0.23480080117413
                0.4446     0.8136829578829
 s    1 1.00
                 0.122                   1
 p    1 1.00
                 0.727                   1

25 0
 s    8 1.00
                  6665  0.00069158396281299
                  1000  0.0053257961529341
                   228   0.027060721042034
                 64.71    0.10165684614077
                 21.06     0.2745748236174
                 7.495    0.44829431892377
                 2.797    0.28490261071525
                0.5215   0.015194859206082
 s    8 1.00
                  6665  -0.00029326965268655
                  1000  -0.0023180354739745
                   228  -0.011499786038565
                 64.71  -0.046826727009787
                 21.06   -0.12846616875047
                 7.495   -0.30126627246289
                 2.797   -0.25563070233011
                0.5215      1.093793361012
 s    1 1.00
                0.1596                   1
 p    3 1.00
                 9.439   0.056979251590039
                 2.002    0.31320721150073
                0.5456    0.76037674173753
 p    1 1.00
                0.1517                   1
 d    1 1.00
                  0.55                   1

26 0
 s    3 1.00
                 13.01   0.033498726389998
                 1.962    0.23480080117413
                0.4446     0.8136829578829
 s    1 1.00
                 0.122                   1
 p    1 1.00
                 0.727                   1

27 0
 s    3 1.00
                 13.01   0.033498726389998
                 1.962    0.23480080117413
                0.4446     0.8136829578829
 s    1 1.00
                 0.122                   1
 p    1 1.00
                 0.727                   1

28 0
 s    8 1.00
                  6665  0.00069158396281299
                  1000  0.0053257961529341
                   228   0.027060721042034
                 64.71    0.10165684614077
                 21.06     0.2745748236174
                 7.495    0.44829431892377
                 2.797    0.28490261071525
                0.5215   0.015194859206082
 s    8 1.00
                  6665  -0.00029326965268655
                  1000  -0.0023180354739745
                   228  -0.011499786038565
                 64.71  -0.046826727009787
                 21.06   -0.12846616875047
                 7.495   -0.30126627246289
                 2.797   -0.25563070233011
                0.5215      1.093793361012
 s    1 1.00
                0.1596                   1
 p    3 1.00
                 9.439   0.056979251590039
                 2.002    0.31320721150073
                0.5456    0.76037674173753
 p    1 1.00
                0.1517                   1
 d    1 1.00
                  0.55                   1

29 0
 s    3 1.00
                 13.01   0.033498726389998
                 1.962    0.23480080117413
                0.4446     0.8136829578829
 s    1 1.00
                 0.122                   1
 p    1 1.00
                 0.727                   1

30 0
 s    3 1.00
                 13.01   0.033498726389998
                 1.962    0.23480080117413
                0.4446     0.8136829578829
 s    1 1.00
                 0.122                   1
 p    1 1.00
                 0.727                   1

31 0
 s    8 1.00
                  6665  0.00069158396281299
                  1000  0.0053257961529341
                   228   0.027060721042034
                 64.71    0.10165684614077
                 21.06     0.2745748236174
                 7.495    0.44829431892377
                 2.797    0.28490261071525
                0.5215   0.015194859206082
 s    8 1.00
                  6665  -0.00029326965268655
                  1000  -0.0023180354739745
                   228  -0.011499786038565
                 64.71  -0.046826727009787
                 21.06   -0.12846616875047
                 7.495   -0.30126627246289
                 2.797   -0.25563070233011
                0.5215      1.093793361012
 s    1 1.00
                0.1596                   1
 p    3 1.00
                 9.439   0.056979251590039
                 2.002    0.31320721150073
                0.5456    0.76037674173753
 p    1 1.00
                0.1517                   1
 d    1 1.00
                  0.55                   1

32 0
 s    3 1.00
                 13.01   0.033498726389998
                 1.962    0.23480080117413
                0.4446     0.8136829578829
 s    1 1.00
                 0.122                   1
 p    1 1.00
                 0.727                   1

33 0
 s    3 1.00
                 13.01   0.033498726389998
                 1.962    0.23480080117413
                0.4446     0.8136829578829
 s    1 1.00
                 0.122                   1
 p    1 1.00
                 0.727                   1

34 0
 s    3 1.00
                 13.01   0.033498726389998
                 1.962    0.23480080117413
                0.4446     0.8136829578829
 s    1 1.00
                 0.122                   1
 p    1 1.00
                 0.727                   1

35 0
 s    3 1.00
                 13.01   0.033498726389998
                 1.962    0.23480080117413
                0.4446     0.8136829578829
 s    1 1.00
                 0.122                   1
 p    1 1.00
                 0.727                   1

36 0
 s    3 1.00
                 13.01   0.033498726389998
                 1.962    0.23480080117413
                0.4446     0.8136829578829
 s    1 1.00
                 0.122                   1
 p    1 1.00
                 0.727                   1

37 0
 s    3 1.00
                 13.01   0.033498726389998
                 1.962    0.23480080117413
                0.4446     0.8136829578829
 s    1 1.00
                 0.122                   1
 p    1 1.00
                 0.727                   1

[5d]
[7f]
[9g]

[MO]
 Sym= A
 Ene=               0
 Spin= Alpha
 Occup=    1.00000
   1    3.7732345760018e-07
   2    6.2250566571304e-07
   3    8.5483458054569e-06
   4    -1.8729472783887e-07
   5    7.3580363181115e-08
   6    -4.5919178786921e-07
   7    9.9003483557408e-08
   8    -8.9729075004649e-07
   9    -3.18091776451e-06
  10    6.3283327637835e-07
  11    1.0363525653079e-07
  12    -7.3846898454054e-08
  13    -1.2652966810432e-08
  14    5.0912522966862e-09
  15    1.2061077237934e-06
  16    -7.0187956733806e-06
  17    6.0839421339741e-07
  18    -3.4850146936698e-07
  19    -2.0913254538959e-06
  20    4.6469962151554e-07
  21    4.4320193658901e-07
  22    -1.9032390823325e-08
  23    -6.5952790834925e-08
  24    1.0093863505626e-07
  25    -0.00011671077037844
  26    -0.00027760174747146
  27    -0.00027731784837737
  28    -3.6214414631228e-05
  29    0.00019195835416065
  30    0.00012733987355346
  31    -0.00012824544039778
  32    0.00016662709612256
  33    1.1563108679807e-05
  34    -8.1785753061908e-06
  35    1.4738451429471e-05
  36    -4.9497147149621e-05
  37    7.8439889982933e-07
  38    -1.3849217867218e-05
  39    -0.00039669826947224
  40    -0.00095574548533649
  41    -0.00054221780386447
  42    -0.00061561256314115
  43    0.00083969610710527
  44    0.00052921672189566
  45    0.00079200065088526
  46    -0.00055022755966866
  47    0.00022353274801991
  48    -0.00011444785174214
  49    4.3298402362744e-06
  50    -0.00012219683356898
  51    -3.6729474338901e-05
  52    7.8688940174158e-05
  53      0.23506412855749
  54    0.00050588311956491
  55    -0.0012885264209432
  56    0.0016481104085429
  57    -0.00021916027653298
  58    0.00047922016281755
  59    0.0017818148069066
  60    3.2768147305054e-05
  61    -0.00061154237991406
  62    1.7864458209406e-05
  63    0.00029226417198852
  64    6.2377574322502e-05
  65    1.4045754644018e-05
  66    -9.7860180234425e-05
  67    -0.020294560363261
  68    -0.00055064799205611
  69    0.0014629334063828
  70    0.0001298749900858
  71    0.00081886376043432
  72    0.0010837704305168
  73    0.0010508547624945
  74    0.00015895110241378
  75    0.00069566400776262
  76    1.3376549834632e-05
  77    -1.6514732823008e-05
  78    -9.9600362331902e-05
  79    2.2386662320442e-05
  80    -1.118139812422e-05
  81    0.00093765241458336
  82    0.00075721692764892
  83    9.6936354308795e-05
  84    3.7302510120361e-05
  85    -9.1955095003517e-06
  86      0.97392813816368
  87    0.0050830508828715
  88    -0.011172756335473
  89    -0.00012472955910954
  90    0.00013469966911418
  91    -9.3356633156628e-05
  92    -0.00085306304813644
  93     0.001192317626251
  94    0.00033924651454205
  95    5.5598577194844e-05
  96    0.00036472447375636
  97    5.3703729690377e-05
  98    -8.9779875087815e-05
  99    -6.9628441038464e-06
 100    -0.0011921360916611
 101    0.00010889590570277
 102    -3.407511340847e-05
 103    -0.00010633441959561
 104    -0.00015055111556815
 105    -0.0013512616980558
 106    -0.0005803428440329
 107    -0.00011470189408204
 108    -4.0693655080843e-05
 109    -5.2267375511936e-05
 110    2.5518532612331e-05
 111    -0.00041451384560601
 112    -2.3472346230201e-05
 113    7.6142418686149e-05
 114    2.8744284674009e-05
 115    -0.0048351426926673
 116    -1.2479266975549e-05
 117    0.00013233037376243
 118    0.00038859615554455
 119    -0.00023326784493618
 120    -0.00019711755993956
 121    0.00031980090330815
 122    -0.00034862222049791
 123    -0.00019244009685594
 124    -2.1886884259018e-05
 125    -4.5807793215637e-05
 126    -2.6011256225776e-06
 127    4.8107847690013e-05
 128    -1.7089163939595e-05
 129    6.7303581530735e-05
 130    0.0011363011408217
 131    0.00020137408331706
 132    0.00027051043000555
 133    0.00023153069785447
 134    0.00038784702076233
 135    0.0015543475862587
 136    -0.00025251363565252
 137    5.3578741545856e-05
 138    -0.00029992392280551
 139     0.027418767041043
 140    -0.00010716793690581
 141    0.0031636555367914
 142    -0.00024251993443551
 143    3.7430458428185e-06
 144    3.6938481419762e-05
 145    -0.0013393421104365
 146    0.00086239428918187
 147    0.00063536481040016
 148    2.6449113093571e-05
 149    4.4386467086695e-05
 150    -4.8897989144926e-05
 151    -9.3081912363497e-06
 152    8.9059036453362e-05
 153    -0.0001738346667866
 154    -0.00012152289581712
 155    -3.3578752616675e-06
 156    4.7961447206901e-06
 157    1.1366931470397e-06
 158    -2.7827339636234e-05
 159    3.6704543479109e-07
 160    7.7238860502576e-06
 161    1.7336961478463e-06
 162    -3.9502228861911e-06
 163    -0.011030763046552
 164    -8.4511844546963e-05
 165    -4.8840961496121e-06
 166    -0.00015625878258867
 167    -6.6120916382265e-06
 168    -0.00015718368304047
 169    0.00030161523297767
 170    -0.0001664260136106
 171    -0.00013877241105583
 172    -8.383803749948e-06
 173    1.4071533544587e-05
 174    5.3484745538315e-06
 175    1.1279267163578e-06
 176    -4.092255413205e-06
 177    -0.00019992250249516
 178    0.00018669455033935
 179    -4.1980688551109e-05
 180    2.7233710379135e-05
 181    2.070674505662e-05
 182    -0.00037772764058154
 183    -0.00010926032050154
 184    -0.00044547653523822
 185    0.00013686160726561
 186    2.976132241639e-05
 187    -8.4587118377309e-05
 188    -0.00033329237279927
 189    0.00054319910668314
 190    0.00012214061913268
 191    -2.4965346525685e-05
 192    -8.999720961393e-06
 193    3.5065806347875e-05
 194    1.7430332936591e-06
 195    -4.9226288798224e-05
 196    -5.6877627214324e-05
 197    0.00011544851555247
 198    -3.3224566747023e-05
 199    3.3999142544787e-05
 200    2.4198367940729e-05
 201    0.00011821929070759
 202    8.0115280580603e-05
 203    -1.5709449772485e-05
 204    1.9389335955453e-05
 205    1.707910756491e-05
 206    -3.9417339639851e-05
 207    6.303832002075e-05
 208    -2.1512569111367e-05
 209    -5.2965610889085e-06
 210    5.4934184272894e-06
 211    -0.0024054506452011
 212    -4.0787896829599e-05
 213    0.00034805113266803
 214    5.1435951325782e-05
 215    -1.2483008971679e-05
 216    4.1766570445176e-05
 217    0.00017406074544765
 218    -0.00011007237175995
 219    -4.582744980764e-05
 220     6.51717988592e-06
 221    -2.0492191527552e-05
 222    1.5896563449697e-05
 223    8.3830381053916e-07
 224    -3.4230757009449e-06
 225    -2.9142129752934e-07
 226    -0.00022608816631279
 227    6.5352521007268e-05
 228    -1.4269502500371e-05
 229    -1.4992856201753e-05
 230    -6.199285076702e-05
 231    -0.00028816824271329
 232    3.1124722171713e-05
 233    -2.4621503999054e-05
 234    -5.9181282181016e-05
 235    -0.00024620232550985
 236    -0.00015229002620558
 237    0.00085195842763635
 238    -2.2287754644715e-05
 239    2.0044662100825e-05
 240    1.9335855825521e-05
 241    -0.00046859629799415
 242    1.2344919338612e-05
 243    0.00040497065552323
 244    2.5814620061957e-06
 245    -2.2101262603563e-05
 246    7.249733848879e-06
 247    1.4742536078656e-05
 248    -6.4553212951089e-06
 249    4.5830423187778e-05
 250    4.7439858123059e-05
 251    -4.3690411720259e-06
 252    -2.0940333651779e-07
 253    -2.1929872491374e-06
 254    -5.1714885130441e-06
 255    -1.4173062402942e-05
 256    -2.3119275325137e-06
 257    3.7170149878853e-06
 258    2.675108373782e-06
 259    -0.001031685065056
 260    -5.3385842555601e-05
 261    3.552801550779e-05
 262    -4.4204876994314e-05
 263     4.18659584337e-05