[Molden Format]
made by pyscf v[2.0.1]
[Atoms] (AU)
O   1   8     0.00000000000000     0.00000000000000    11.69764103529358
H   2   1     0.00000000000000     0.00000000000000     9.87423921339262
H   3   1    -0.05031916615174     1.78353065140343    12.07351273176025
O   4   8     0.00000000000000     0.00000000000000     2.31533471513237
C   5   6     0.00000000000000     0.00000000000000     0.00000000000000
C   6   6     2.01118073026938    -1.40227222164369    -1.50774939176400
C   7   6    -2.01249334291722     1.41331050329955    -1.50315905028694
H   8   1     3.32037363730244    -2.26721897153159    -0.13599698591495
C   9   6     3.45899267434009     0.28739631745591    -3.37437943254505
H   10   1     1.07662969841332    -2.94725144642667    -2.56541439481080
H   11   1    -2.67503415753480     0.18421555839588    -3.06194479365997
H   12   1    -1.07974048864772     3.03851734677796    -2.43674295017013
C   13   6    -4.21607110578555     2.32938802552922     0.11994162256091
H   14   1     4.24440173074564     1.93368664142019    -2.34976285512790
H   15   1     2.15020713235517     1.04714335134846    -4.81494497423699
C   16   6     5.60746363007797    -1.12419643481196    -4.70268606082550
H   17   1    -3.46838323670267     3.50951302338067     1.66946842715333
H   18   1    -5.11873485366228     0.68575958301209     1.04047743976495
C   19   6    -6.18314754751344     3.80909592987882    -1.39656589068747
H   20   1     6.93011263717176    -1.87550812453645    -3.26656317360070
C   21   6     7.06356622236532     0.52877932406334    -6.57829775293605
H   22   1     4.82318879258361    -2.78573437948532    -5.70504560381835
H   23   1    -6.91582688743803     2.61304780074712    -2.95074552451969
H   24   1    -5.26532430573853     5.45420349051338    -2.31005832200284
C   25   6    -8.39941882261433     4.73263980500213     0.21800571437956
H   26   1     7.83338371486801     2.19084139882824    -5.57093109900697
H   27   1     5.73544244039420     1.27376866537418    -8.01071492370229
C   28   6     9.21124858443101    -0.89699110072176    -7.88926949186242
H   29   1    -7.66272760055236     5.92277078003992     1.77035591474408
H   30   1    -9.31497248082589     3.08753015622020     1.12614408368786
C   31   6   -10.35481709231879     6.21833079391143    -1.30905206253246
H   32   1    10.58815905329501    -1.61074586756696    -6.49512691622620
H   33   1    10.23506248045667     0.32468009384095    -9.23072870921204
H   34   1     8.47665842847139    -2.53598436989925    -8.94921964622535
H   35   1    -9.48948872868064     7.90013588951020    -2.18823918416067
H   36   1   -11.93332513000955     6.86460487874102    -0.11255798845995
H   37   1   -11.15126291841033     5.04495968327630    -2.83849898862534
[GTO]
1 0
 s    8 1.00
                 11720  0.00070964594651845
                  1759  0.0054672722921914
                 400.8   0.027823118610189
                 113.7    0.10474773971146
                 37.03    0.28292084635691
                 13.27    0.44849523869833
                 5.025    0.27081688521277
                 1.013    0.01545029160744
 s    8 1.00
                 11720  -0.00031444341168873
                  1759  -0.0024821376810179
                 400.8  -0.012316355381583
                 113.7  -0.050538917343672
                 37.03   -0.13938490331632
                 13.27   -0.32507749481778
                 5.025   -0.22984830758785
                 1.013     1.0953793467883
 s    1 1.00
                0.3023                   1
 p    3 1.00
                  17.7   0.062679166281506
                 3.854    0.33353656587936
                 1.046    0.74123964163973
 p    1 1.00
                0.2753                   1
 d    1 1.00
                 1.185                   1

2 0
 s    3 1.00
                 13.01   0.033498726389998
                 1.962    0.23480080117413
                0.4446     0.8136829578829
 s    1 1.00
                 0.122                   1
 p    1 1.00
                 0.727                   1

3 0
 s    3 1.00
                 13.01   0.033498726389998
                 1.962    0.23480080117413
                0.4446     0.8136829578829
 s    1 1.00
                 0.122                   1
 p    1 1.00
                 0.727                   1

4 0
 s    8 1.00
                 11720  0.00070964594651845
                  1759  0.0054672722921914
                 400.8   0.027823118610189
                 113.7    0.10474773971146
                 37.03    0.28292084635691
                 13.27    0.44849523869833
                 5.025    0.27081688521277
                 1.013    0.01545029160744
 s    8 1.00
                 11720  -0.00031444341168873
                  1759  -0.0024821376810179
                 400.8  -0.012316355381583
                 113.7  -0.050538917343672
                 37.03   -0.13938490331632
                 13.27   -0.32507749481778
                 5.025   -0.22984830758785
                 1.013     1.0953793467883
 s    1 1.00
                0.3023                   1
 p    3 1.00
                  17.7   0.062679166281506
                 3.854    0.33353656587936
                 1.046    0.74123964163973
 p    1 1.00
                0.2753                   1
 d    1 1.00
                 1.185                   1

5 0
 s    8 1.00
                  6665  0.00069158396281299
                  1000  0.0053257961529341
                   228   0.027060721042034
                 64.71    0.10165684614077
                 21.06     0.2745748236174
                 7.495    0.44829431892377
                 2.797    0.28490261071525
                0.5215   0.015194859206082
 s    8 1.00
                  6665  -0.00029326965268655
                  1000  -0.0023180354739745
                   228  -0.011499786038565
                 64.71  -0.046826727009787
                 21.06   -0.12846616875047
                 7.495   -0.30126627246289
                 2.797   -0.25563070233011
                0.5215      1.093793361012
 s    1 1.00
                0.1596                   1
 p    3 1.00
                 9.439   0.056979251590039
                 2.002    0.31320721150073
                0.5456    0.76037674173753
 p    1 1.00
                0.1517                   1
 d    1 1.00
                  0.55                   1

6 0
 s    8 1.00
                  6665  0.00069158396281299
                  1000  0.0053257961529341
                   228   0.027060721042034
                 64.71    0.10165684614077
                 21.06     0.2745748236174
                 7.495    0.44829431892377
                 2.797    0.28490261071525
                0.5215   0.015194859206082
 s    8 1.00
                  6665  -0.00029326965268655
                  1000  -0.0023180354739745
                   228  -0.011499786038565
                 64.71  -0.046826727009787
                 21.06   -0.12846616875047
                 7.495   -0.30126627246289
                 2.797   -0.25563070233011
                0.5215      1.093793361012
 s    1 1.00
                0.1596                   1
 p    3 1.00
                 9.439   0.056979251590039
                 2.002    0.31320721150073
                0.5456    0.76037674173753
 p    1 1.00
                0.1517                   1
 d    1 1.00
                  0.55                   1

7 0
 s    8 1.00
                  6665  0.00069158396281299
                  1000  0.0053257961529341
                   228   0.027060721042034
                 64.71    0.10165684614077
                 21.06     0.2745748236174
                 7.495    0.44829431892377
                 2.797    0.28490261071525
                0.5215   0.015194859206082
 s    8 1.00
                  6665  -0.00029326965268655
                  1000  -0.0023180354739745
                   228  -0.011499786038565
                 64.71  -0.046826727009787
                 21.06   -0.12846616875047
                 7.495   -0.30126627246289
                 2.797   -0.25563070233011
                0.5215      1.093793361012
 s    1 1.00
                0.1596                   1
 p    3 1.00
                 9.439   0.056979251590039
                 2.002    0.31320721150073
                0.5456    0.76037674173753
 p    1 1.00
                0.1517                   1
 d    1 1.00
                  0.55                   1

8 0
 s    3 1.00
                 13.01   0.033498726389998
                 1.962    0.23480080117413
                0.4446     0.8136829578829
 s    1 1.00
                 0.122                   1
 p    1 1.00
                 0.727                   1

9 0
 s    8 1.00
                  6665  0.00069158396281299
                  1000  0.0053257961529341
                   228   0.027060721042034
                 64.71    0.10165684614077
                 21.06     0.2745748236174
                 7.495    0.44829431892377
                 2.797    0.28490261071525
                0.5215   0.015194859206082
 s    8 1.00
                  6665  -0.00029326965268655
                  1000  -0.0023180354739745
                   228  -0.011499786038565
                 64.71  -0.046826727009787
                 21.06   -0.12846616875047
                 7.495   -0.30126627246289
                 2.797   -0.25563070233011
                0.5215      1.093793361012
 s    1 1.00
                0.1596                   1
 p    3 1.00
                 9.439   0.056979251590039
                 2.002    0.31320721150073
                0.5456    0.76037674173753
 p    1 1.00
                0.1517                   1
 d    1 1.00
                  0.55                   1

10 0
 s    3 1.00
                 13.01   0.033498726389998
                 1.962    0.23480080117413
                0.4446     0.8136829578829
 s    1 1.00
                 0.122                   1
 p    1 1.00
                 0.727                   1

11 0
 s    3 1.00
                 13.01   0.033498726389998
                 1.962    0.23480080117413
                0.4446     0.8136829578829
 s    1 1.00
                 0.122                   1
 p    1 1.00
                 0.727                   1

12 0
 s    3 1.00
                 13.01   0.033498726389998
                 1.962    0.23480080117413
                0.4446     0.8136829578829
 s    1 1.00
                 0.122                   1
 p    1 1.00
                 0.727                   1

13 0
 s    8 1.00
                  6665  0.00069158396281299
                  1000  0.0053257961529341
                   228   0.027060721042034
                 64.71    0.10165684614077
                 21.06     0.2745748236174
                 7.495    0.44829431892377
                 2.797    0.28490261071525
                0.5215   0.015194859206082
 s    8 1.00
                  6665  -0.00029326965268655
                  1000  -0.0023180354739745
                   228  -0.011499786038565
                 64.71  -0.046826727009787
                 21.06   -0.12846616875047
                 7.495   -0.30126627246289
                 2.797   -0.25563070233011
                0.5215      1.093793361012
 s    1 1.00
                0.1596                   1
 p    3 1.00
                 9.439   0.056979251590039
                 2.002    0.31320721150073
                0.5456    0.76037674173753
 p    1 1.00
                0.1517                   1
 d    1 1.00
                  0.55                   1

14 0
 s    3 1.00
                 13.01   0.033498726389998
                 1.962    0.23480080117413
                0.4446     0.8136829578829
 s    1 1.00
                 0.122                   1
 p    1 1.00
                 0.727                   1

15 0
 s    3 1.00
                 13.01   0.033498726389998
                 1.962    0.23480080117413
                0.4446     0.8136829578829
 s    1 1.00
                 0.122                   1
 p    1 1.00
                 0.727                   1

16 0
 s    8 1.00
                  6665  0.00069158396281299
                  1000  0.0053257961529341
                   228   0.027060721042034
                 64.71    0.10165684614077
                 21.06     0.2745748236174
                 7.495    0.44829431892377
                 2.797    0.28490261071525
                0.5215   0.015194859206082
 s    8 1.00
                  6665  -0.00029326965268655
                  1000  -0.0023180354739745
                   228  -0.011499786038565
                 64.71  -0.046826727009787
                 21.06   -0.12846616875047
                 7.495   -0.30126627246289
                 2.797   -0.25563070233011
                0.5215      1.093793361012
 s    1 1.00
                0.1596                   1
 p    3 1.00
                 9.439   0.056979251590039
                 2.002    0.31320721150073
                0.5456    0.76037674173753
 p    1 1.00
                0.1517                   1
 d    1 1.00
                  0.55                   1

17 0
 s    3 1.00
                 13.01   0.033498726389998
                 1.962    0.23480080117413
                0.4446     0.8136829578829
 s    1 1.00
                 0.122                   1
 p    1 1.00
                 0.727                   1

18 0
 s    3 1.00
                 13.01   0.033498726389998
                 1.962    0.23480080117413
                0.4446     0.8136829578829
 s    1 1.00
                 0.122                   1
 p    1 1.00
                 0.727                   1

19 0
 s    8 1.00
                  6665  0.00069158396281299
                  1000  0.0053257961529341
                   228   0.027060721042034
                 64.71    0.10165684614077
                 21.06     0.2745748236174
                 7.495    0.44829431892377
                 2.797    0.28490261071525
                0.5215   0.015194859206082
 s    8 1.00
                  6665  -0.00029326965268655
                  1000  -0.0023180354739745
                   228  -0.011499786038565
                 64.71  -0.046826727009787
                 21.06   -0.12846616875047
                 7.495   -0.30126627246289
                 2.797   -0.25563070233011
                0.5215      1.093793361012
 s    1 1.00
                0.1596                   1
 p    3 1.00
                 9.439   0.056979251590039
                 2.002    0.31320721150073
                0.5456    0.76037674173753
 p    1 1.00
                0.1517                   1
 d    1 1.00
                  0.55                   1

20 0
 s    3 1.00
                 13.01   0.033498726389998
                 1.962    0.23480080117413
                0.4446     0.8136829578829
 s    1 1.00
                 0.122                   1
 p    1 1.00
                 0.727                   1

21 0
 s    8 1.00
                  6665  0.00069158396281299
                  1000  0.0053257961529341
                   228   0.027060721042034
                 64.71    0.10165684614077
                 21.06     0.2745748236174
                 7.495    0.44829431892377
                 2.797    0.28490261071525
                0.5215   0.015194859206082
 s    8 1.00
                  6665  -0.00029326965268655
                  1000  -0.0023180354739745
                   228  -0.011499786038565
                 64.71  -0.046826727009787
                 21.06   -0.12846616875047
                 7.495   -0.30126627246289
                 2.797   -0.25563070233011
                0.5215      1.093793361012
 s    1 1.00
                0.1596                   1
 p    3 1.00
                 9.439   0.056979251590039
                 2.002    0.31320721150073
                0.5456    0.76037674173753
 p    1 1.00
                0.1517                   1
 d    1 1.00
                  0.55                   1

22 0
 s    3 1.00
                 13.01   0.033498726389998
                 1.962    0.23480080117413
                0.4446     0.8136829578829
 s    1 1.00
                 0.122                   1
 p    1 1.00
                 0.727                   1

23 0
 s    3 1.00
                 13.01   0.033498726389998
                 1.962    0.23480080117413
                0.4446     0.8136829578829
 s    1 1.00
                 0.122                   1
 p    1 1.00
                 0.727                   1

24 0
 s    3 1.00
                 13.01   0.033498726389998
                 1.962    0.23480080117413
                0.4446     0.8136829578829
 s    1 1.00
                 0.122                   1
 p    1 1.00
                 0.727                   1

25 0
 s    8 1.00
                  6665  0.00069158396281299
                  1000  0.0053257961529341
                   228   0.027060721042034
                 64.71    0.10165684614077
                 21.06     0.2745748236174
                 7.495    0.44829431892377
                 2.797    0.28490261071525
                0.5215   0.015194859206082
 s    8 1.00
                  6665  -0.00029326965268655
                  1000  -0.0023180354739745
                   228  -0.011499786038565
                 64.71  -0.046826727009787
                 21.06   -0.12846616875047
                 7.495   -0.30126627246289
                 2.797   -0.25563070233011
                0.5215      1.093793361012
 s    1 1.00
                0.1596                   1
 p    3 1.00
                 9.439   0.056979251590039
                 2.002    0.31320721150073
                0.5456    0.76037674173753
 p    1 1.00
                0.1517                   1
 d    1 1.00
                  0.55                   1

26 0
 s    3 1.00
                 13.01   0.033498726389998
                 1.962    0.23480080117413
                0.4446     0.8136829578829
 s    1 1.00
                 0.122                   1
 p    1 1.00
                 0.727                   1

27 0
 s    3 1.00
                 13.01   0.033498726389998
                 1.962    0.23480080117413
                0.4446     0.8136829578829
 s    1 1.00
                 0.122                   1
 p    1 1.00
                 0.727                   1

28 0
 s    8 1.00
                  6665  0.00069158396281299
                  1000  0.0053257961529341
                   228   0.027060721042034
                 64.71    0.10165684614077
                 21.06     0.2745748236174
                 7.495    0.44829431892377
                 2.797    0.28490261071525
                0.5215   0.015194859206082
 s    8 1.00
                  6665  -0.00029326965268655
                  1000  -0.0023180354739745
                   228  -0.011499786038565
                 64.71  -0.046826727009787
                 21.06   -0.12846616875047
                 7.495   -0.30126627246289
                 2.797   -0.25563070233011
                0.5215      1.093793361012
 s    1 1.00
                0.1596                   1
 p    3 1.00
                 9.439   0.056979251590039
                 2.002    0.31320721150073
                0.5456    0.76037674173753
 p    1 1.00
                0.1517                   1
 d    1 1.00
                  0.55                   1

29 0
 s    3 1.00
                 13.01   0.033498726389998
                 1.962    0.23480080117413
                0.4446     0.8136829578829
 s    1 1.00
                 0.122                   1
 p    1 1.00
                 0.727                   1

30 0
 s    3 1.00
                 13.01   0.033498726389998
                 1.962    0.23480080117413
                0.4446     0.8136829578829
 s    1 1.00
                 0.122                   1
 p    1 1.00
                 0.727                   1

31 0
 s    8 1.00
                  6665  0.00069158396281299
                  1000  0.0053257961529341
                   228   0.027060721042034
                 64.71    0.10165684614077
                 21.06     0.2745748236174
                 7.495    0.44829431892377
                 2.797    0.28490261071525
                0.5215   0.015194859206082
 s    8 1.00
                  6665  -0.00029326965268655
                  1000  -0.0023180354739745
                   228  -0.011499786038565
                 64.71  -0.046826727009787
                 21.06   -0.12846616875047
                 7.495   -0.30126627246289
                 2.797   -0.25563070233011
                0.5215      1.093793361012
 s    1 1.00
                0.1596                   1
 p    3 1.00
                 9.439   0.056979251590039
                 2.002    0.31320721150073
                0.5456    0.76037674173753
 p    1 1.00
                0.1517                   1
 d    1 1.00
                  0.55                   1

32 0
 s    3 1.00
                 13.01   0.033498726389998
                 1.962    0.23480080117413
                0.4446     0.8136829578829
 s    1 1.00
                 0.122                   1
 p    1 1.00
                 0.727                   1

33 0
 s    3 1.00
                 13.01   0.033498726389998
                 1.962    0.23480080117413
                0.4446     0.8136829578829
 s    1 1.00
                 0.122                   1
 p    1 1.00
                 0.727                   1

34 0
 s    3 1.00
                 13.01   0.033498726389998
                 1.962    0.23480080117413
                0.4446     0.8136829578829
 s    1 1.00
                 0.122                   1
 p    1 1.00
                 0.727                   1

35 0
 s    3 1.00
                 13.01   0.033498726389998
                 1.962    0.23480080117413
                0.4446     0.8136829578829
 s    1 1.00
                 0.122                   1
 p    1 1.00
                 0.727                   1

36 0
 s    3 1.00
                 13.01   0.033498726389998
                 1.962    0.23480080117413
                0.4446     0.8136829578829
 s    1 1.00
                 0.122                   1
 p    1 1.00
                 0.727                   1

37 0
 s    3 1.00
                 13.01   0.033498726389998
                 1.962    0.23480080117413
                0.4446     0.8136829578829
 s    1 1.00
                 0.122                   1
 p    1 1.00
                 0.727                   1

[5d]
[7f]
[9g]

[MO]
 Sym= A
 Ene=               0
 Spin= Alpha
 Occup=    1.00000
   1    -5.1128799619824e-07
   2    -1.0971691868404e-06
   3    5.4924328841274e-06
   4    -9.6688962617446e-09
   5    8.8703071674934e-08
   6    -3.0633696092457e-08
   7    4.0756894633281e-08
   8    -1.3865735935688e-06
   9    -4.213800266737e-06
  10     4.43827145623e-07
  11    2.0647080922175e-09
  12    -2.9874971443443e-08
  13    3.3506770179271e-08
  14    2.1162364394996e-09
  15    -1.5495540120407e-07
  16    -1.1536352446203e-05
  17    4.5294955533274e-09
  18    6.104546960643e-08
  19    -1.8013989298226e-06
  20    -2.9606294031944e-07
  21    4.4827406862357e-06
  22    5.3408547790114e-09
  23    -2.4805712506245e-07
  24    1.2074351128227e-07
  25    -0.00024887635701875
  26    -0.0003642450948572
  27    -0.00038250623887529
  28    0.00019090464829176
  29    0.00017484843484613
  30    -0.00023578304989484
  31    0.0001251447733671
  32    0.00015244346575701
  33    -0.00023416313817325
  34    1.3008097834711e-05
  35    -8.3915899179295e-06
  36    -2.900547437098e-05
  37    2.2492838428449e-06
  38    -1.9494125927914e-05
  39    0.00026624414149981
  40    -0.00060098829120399
  41    0.00037372905750895
  42    -0.00029155127791758
  43    0.00038971349359979
  44    0.0004390912213271
  45    0.00018885668037376
  46    -0.00017600127255318
  47    -2.7831225624265e-05
  48    -1.1897478288768e-05
  49    -1.3047644788797e-05
  50    -2.8131102663135e-05
  51    -5.8619694155345e-05
  52    0.00013536849684301
  53      0.24991363950874
  54    0.00098699691610609
  55    -0.00080850623257487
  56    0.00048573653454153
  57    -0.00031149027075162
  58    -0.00042658982334303
  59    0.0010470259960866
  60    0.00013653926490705
  61    -0.00079991142551527
  62    1.3586477669746e-05
  63    0.00023731453252138
  64    0.00014107624423046
  65    1.1072012058292e-05
  66    -5.7347172659506e-05
  67      0.22370113094122
  68    0.0010483743051866
  69    -0.0021887266123397
  70    -5.4257103485155e-05
  71    3.3015071112769e-05
  72    -8.4492153410195e-05
  73    0.00086930061737011
  74    -0.00015012814341828
  75    -0.00039562020107936
  76    4.2109537042424e-05
  77    3.7980694640275e-05
  78    -3.2817551611642e-05
  79    -6.2296769156704e-05
  80    7.7518599325691e-05
  81    -3.0117111655017e-05
  82    0.00039242118204855
  83    0.00011009814643503
  84    -5.1287804838075e-07
  85    1.795525201161e-05
  86      0.94426070210279
  87    0.0049030310082779
  88    -0.010807157571563
  89    -0.00020961436804704
  90    0.00012007613424809
  91    0.00012729893754693
  92    -0.0008843556544288
  93     0.001085958074582
  94    0.0003461529100599
  95    1.3041675537394e-05
  96    0.00034122991443686
  97    5.9464573319294e-05
  98    -7.8383636333688e-05
  99    4.8931311570215e-05
 100    1.850855918304e-05
 101    0.00056834220254633
 102    -5.3884202859522e-06
 103    -3.2082268703928e-05
 104    -0.00012720644362875
 105    5.5090580428272e-05
 106    0.00023067641749705
 107    -0.00012098006655343
 108    -6.8557952319682e-05
 109     -4.8215021021e-05
 110    -3.1070487408191e-05
 111    -0.00014610078151453
 112    1.7421022900472e-05
 113    0.00015274883146059
 114    -2.8648170704172e-05
 115    0.00089834719574234
 116    -0.00010195202202221
 117    0.0011604652871584
 118    3.9414035151252e-05
 119    -2.553460958481e-05
 120    4.5714310088765e-06
 121    0.00051793840752124
 122    -0.00030841292137983
 123    -0.00044549131374814
 124    -2.6825219475404e-06
 125    -1.2871654047687e-05
 126    1.7090789748276e-05
 127    -5.7267692559755e-07
 128    -8.1813310533876e-06
 129    0.00019294865631664
 130    0.0012634892269706
 131    0.00020041626146387
 132    0.00025520405899654
 133    0.00023338855318396
 134    0.00017885486017212
 135    0.0012404375406306
 136    -0.0002504244466918
 137    6.2035824685989e-05
 138    -0.00029823336240284
 139     0.030546779347813
 140    -0.00010501985613144
 141    0.0029775435613339
 142    -3.6546877191723e-05
 143    3.1025027398404e-05
 144    2.2732042244288e-05
 145    -0.0012200699376132
 146    0.00081149515822742
 147    0.00073863101583924
 148    3.5895969247062e-05
 149    4.0971571404604e-05
 150    -5.1697501585659e-05
 151    -1.0974269810348e-05
 152    9.5060472166718e-05
 153    -1.9636925586182e-05
 154    0.00011429088257777
 155    -2.7505341545598e-06
 156    -7.5905162911599e-06
 157    -1.1201914518045e-05
 158    -2.899014104363e-05
 159    4.7741572534442e-05
 160    1.0527671509605e-05
 161    1.3239772871606e-05
 162    -4.2478407272537e-06
 163    0.00035192390174836
 164    -1.1119887471807e-05
 165    -0.00037531429434133
 166    -4.8875183021095e-05
 167    2.7015281095594e-05
 168    2.6354271001024e-06
 169    0.00033982438020946
 170    -0.00011400375060995
 171    -0.00022959851220041
 172     6.22027413209e-06
 173    1.2035551085905e-05
 174    -5.6120098054384e-06
 175    5.2789498749409e-07
 176    -3.0988280640984e-06
 177    -0.0001261030279914
 178    0.00015570186927733
 179    -3.2901511092147e-05
 180    3.1833003476724e-05
 181    1.0836197483645e-05
 182    -0.00019808024671097
 183    -8.7318726291096e-05
 184    -0.00032609798345729
 185    4.2732123395141e-05
 186    -1.3617932992791e-05
 187    -3.3132204381195e-05
 188    -0.00042274932241335
 189    0.00047372951180451
 190    0.00018779812562189
 191    -1.7902245169603e-05
 192    -1.0298889056279e-05
 193    2.2521531723009e-05
 194    -2.2158724701231e-06
 195    -4.0939913354589e-05
 196    -0.00013170326354949
 197    0.0001375417997269
 198    -2.9929709965932e-05
 199    3.0533796814255e-05
 200    1.6311563464928e-05
 201    -1.2620832322927e-05
 202    -1.4215858827424e-05
 203    -3.0256104326779e-05
 204    7.3113872682314e-06
 205    1.1476746050243e-05
 206    -2.0900627877418e-05
 207    1.5086919945097e-05
 208    -2.3059998026788e-05
 209    1.1106571998456e-05
 210    1.5178700126234e-05
 211    -0.00033799940577905
 212    -7.4502951076871e-05
 213    0.0004712525085133
 214    1.0579970882293e-05
 215    -2.1168098434386e-06
 216    -1.2685866425718e-05
 217    0.00033028769944442
 218    -0.00020212435046925
 219    -5.3509996653925e-05
 220    -3.5094399641427e-06
 221    -2.0596432421692e-05
 222    1.1345698851939e-05
 223    1.0067853018018e-05
 224    -9.8544209854454e-06
 225    -3.7269080399548e-05
 226    -0.00023540132389719
 227    6.2641238355793e-05
 228    -1.3323816740968e-05
 229    -1.3867257784346e-05
 230    -3.4451208837013e-05
 231    -0.00024070323543515
 232    3.1390926457358e-05
 233    -2.7190717148818e-05
 234    -5.3112940428425e-05
 235    -0.00019773331954233
 236    -0.00017159929326194
 237    0.00082931428822967
 238    1.9874834035344e-05
 239    8.6304217904004e-06
 240    -1.9929159860502e-05
 241    -0.00044194137434994
 242    1.0157336430249e-05
 243    0.00037355939579095
 244    3.1512018814597e-06
 245    -2.4135414675059e-05
 246    3.3089937999825e-06
 247    1.5615965835151e-05
 248    -3.1916271661227e-06
 249    -3.2769240714608e-05
 250    -2.1495188431525e-06
 251    -7.0167372230413e-06
 252    8.7310352388837e-06
 253    -2.0807042811136e-06
 254    -3.7677942538531e-05
 255    -1.1904619337235e-05
 256    -1.0513307935851e-05
 257    3.2738854362404e-06
 258    -2.3363218308973e-06
 259    -4.755050279751e-05
 260    -2.9781306432068e-05
 261    0.00014151763600835
 262    -6.8409270898438e-06