[Molden Format]
made by pyscf v[2.0.1]
[Atoms] (AU)
O   1   8     0.00000000000000     0.00000000000000     9.80791491072852
H   2   1     0.00000000000000     0.00000000000000     7.98451308882755
H   3   1    -0.05031916615174     1.78353065140343    10.18378660719519
O   4   8     0.00000000000000     0.00000000000000     2.31533471513237
C   5   6     0.00000000000000     0.00000000000000     0.00000000000000
C   6   6     2.01118073026938    -1.40227222164369    -1.50774939176400
C   7   6    -2.01249334291722     1.41331050329955    -1.50315905028694
H   8   1     3.32037363730244    -2.26721897153159    -0.13599698591495
C   9   6     3.45899267434009     0.28739631745591    -3.37437943254505
H   10   1     1.07662969841332    -2.94725144642667    -2.56541439481080
H   11   1    -2.67503415753480     0.18421555839588    -3.06194479365997
H   12   1    -1.07974048864772     3.03851734677796    -2.43674295017013
C   13   6    -4.21607110578555     2.32938802552922     0.11994162256091
H   14   1     4.24440173074564     1.93368664142019    -2.34976285512790
H   15   1     2.15020713235517     1.04714335134846    -4.81494497423699
C   16   6     5.60746363007797    -1.12419643481196    -4.70268606082550
H   17   1    -3.46838323670267     3.50951302338067     1.66946842715333
H   18   1    -5.11873485366228     0.68575958301209     1.04047743976495
C   19   6    -6.18314754751344     3.80909592987882    -1.39656589068747
H   20   1     6.93011263717176    -1.87550812453645    -3.26656317360070
C   21   6     7.06356622236532     0.52877932406334    -6.57829775293605
H   22   1     4.82318879258361    -2.78573437948532    -5.70504560381835
H   23   1    -6.91582688743803     2.61304780074712    -2.95074552451969
H   24   1    -5.26532430573853     5.45420349051338    -2.31005832200284
C   25   6    -8.39941882261433     4.73263980500213     0.21800571437956
H   26   1     7.83338371486801     2.19084139882824    -5.57093109900697
H   27   1     5.73544244039420     1.27376866537418    -8.01071492370229
C   28   6     9.21124858443101    -0.89699110072176    -7.88926949186242
H   29   1    -7.66272760055236     5.92277078003992     1.77035591474408
H   30   1    -9.31497248082589     3.08753015622020     1.12614408368786
C   31   6   -10.35481709231879     6.21833079391143    -1.30905206253246
H   32   1    10.58815905329501    -1.61074586756696    -6.49512691622620
H   33   1    10.23506248045667     0.32468009384095    -9.23072870921204
H   34   1     8.47665842847139    -2.53598436989925    -8.94921964622535
H   35   1    -9.48948872868064     7.90013588951020    -2.18823918416067
H   36   1   -11.93332513000955     6.86460487874102    -0.11255798845995
H   37   1   -11.15126291841033     5.04495968327630    -2.83849898862534
[GTO]
1 0
 s    8 1.00
                 11720  0.00070964594651845
                  1759  0.0054672722921914
                 400.8   0.027823118610189
                 113.7    0.10474773971146
                 37.03    0.28292084635691
                 13.27    0.44849523869833
                 5.025    0.27081688521277
                 1.013    0.01545029160744
 s    8 1.00
                 11720  -0.00031444341168873
                  1759  -0.0024821376810179
                 400.8  -0.012316355381583
                 113.7  -0.050538917343672
                 37.03   -0.13938490331632
                 13.27   -0.32507749481778
                 5.025   -0.22984830758785
                 1.013     1.0953793467883
 s    1 1.00
                0.3023                   1
 p    3 1.00
                  17.7   0.062679166281506
                 3.854    0.33353656587936
                 1.046    0.74123964163973
 p    1 1.00
                0.2753                   1
 d    1 1.00
                 1.185                   1

2 0
 s    3 1.00
                 13.01   0.033498726389998
                 1.962    0.23480080117413
                0.4446     0.8136829578829
 s    1 1.00
                 0.122                   1
 p    1 1.00
                 0.727                   1

3 0
 s    3 1.00
                 13.01   0.033498726389998
                 1.962    0.23480080117413
                0.4446     0.8136829578829
 s    1 1.00
                 0.122                   1
 p    1 1.00
                 0.727                   1

4 0
 s    8 1.00
                 11720  0.00070964594651845
                  1759  0.0054672722921914
                 400.8   0.027823118610189
                 113.7    0.10474773971146
                 37.03    0.28292084635691
                 13.27    0.44849523869833
                 5.025    0.27081688521277
                 1.013    0.01545029160744
 s    8 1.00
                 11720  -0.00031444341168873
                  1759  -0.0024821376810179
                 400.8  -0.012316355381583
                 113.7  -0.050538917343672
                 37.03   -0.13938490331632
                 13.27   -0.32507749481778
                 5.025   -0.22984830758785
                 1.013     1.0953793467883
 s    1 1.00
                0.3023                   1
 p    3 1.00
                  17.7   0.062679166281506
                 3.854    0.33353656587936
                 1.046    0.74123964163973
 p    1 1.00
                0.2753                   1
 d    1 1.00
                 1.185                   1

5 0
 s    8 1.00
                  6665  0.00069158396281299
                  1000  0.0053257961529341
                   228   0.027060721042034
                 64.71    0.10165684614077
                 21.06     0.2745748236174
                 7.495    0.44829431892377
                 2.797    0.28490261071525
                0.5215   0.015194859206082
 s    8 1.00
                  6665  -0.00029326965268655
                  1000  -0.0023180354739745
                   228  -0.011499786038565
                 64.71  -0.046826727009787
                 21.06   -0.12846616875047
                 7.495   -0.30126627246289
                 2.797   -0.25563070233011
                0.5215      1.093793361012
 s    1 1.00
                0.1596                   1
 p    3 1.00
                 9.439   0.056979251590039
                 2.002    0.31320721150073
                0.5456    0.76037674173753
 p    1 1.00
                0.1517                   1
 d    1 1.00
                  0.55                   1

6 0
 s    8 1.00
                  6665  0.00069158396281299
                  1000  0.0053257961529341
                   228   0.027060721042034
                 64.71    0.10165684614077
                 21.06     0.2745748236174
                 7.495    0.44829431892377
                 2.797    0.28490261071525
                0.5215   0.015194859206082
 s    8 1.00
                  6665  -0.00029326965268655
                  1000  -0.0023180354739745
                   228  -0.011499786038565
                 64.71  -0.046826727009787
                 21.06   -0.12846616875047
                 7.495   -0.30126627246289
                 2.797   -0.25563070233011
                0.5215      1.093793361012
 s    1 1.00
                0.1596                   1
 p    3 1.00
                 9.439   0.056979251590039
                 2.002    0.31320721150073
                0.5456    0.76037674173753
 p    1 1.00
                0.1517                   1
 d    1 1.00
                  0.55                   1

7 0
 s    8 1.00
                  6665  0.00069158396281299
                  1000  0.0053257961529341
                   228   0.027060721042034
                 64.71    0.10165684614077
                 21.06     0.2745748236174
                 7.495    0.44829431892377
                 2.797    0.28490261071525
                0.5215   0.015194859206082
 s    8 1.00
                  6665  -0.00029326965268655
                  1000  -0.0023180354739745
                   228  -0.011499786038565
                 64.71  -0.046826727009787
                 21.06   -0.12846616875047
                 7.495   -0.30126627246289
                 2.797   -0.25563070233011
                0.5215      1.093793361012
 s    1 1.00
                0.1596                   1
 p    3 1.00
                 9.439   0.056979251590039
                 2.002    0.31320721150073
                0.5456    0.76037674173753
 p    1 1.00
                0.1517                   1
 d    1 1.00
                  0.55                   1

8 0
 s    3 1.00
                 13.01   0.033498726389998
                 1.962    0.23480080117413
                0.4446     0.8136829578829
 s    1 1.00
                 0.122                   1
 p    1 1.00
                 0.727                   1

9 0
 s    8 1.00
                  6665  0.00069158396281299
                  1000  0.0053257961529341
                   228   0.027060721042034
                 64.71    0.10165684614077
                 21.06     0.2745748236174
                 7.495    0.44829431892377
                 2.797    0.28490261071525
                0.5215   0.015194859206082
 s    8 1.00
                  6665  -0.00029326965268655
                  1000  -0.0023180354739745
                   228  -0.011499786038565
                 64.71  -0.046826727009787
                 21.06   -0.12846616875047
                 7.495   -0.30126627246289
                 2.797   -0.25563070233011
                0.5215      1.093793361012
 s    1 1.00
                0.1596                   1
 p    3 1.00
                 9.439   0.056979251590039
                 2.002    0.31320721150073
                0.5456    0.76037674173753
 p    1 1.00
                0.1517                   1
 d    1 1.00
                  0.55                   1

10 0
 s    3 1.00
                 13.01   0.033498726389998
                 1.962    0.23480080117413
                0.4446     0.8136829578829
 s    1 1.00
                 0.122                   1
 p    1 1.00
                 0.727                   1

11 0
 s    3 1.00
                 13.01   0.033498726389998
                 1.962    0.23480080117413
                0.4446     0.8136829578829
 s    1 1.00
                 0.122                   1
 p    1 1.00
                 0.727                   1

12 0
 s    3 1.00
                 13.01   0.033498726389998
                 1.962    0.23480080117413
                0.4446     0.8136829578829
 s    1 1.00
                 0.122                   1
 p    1 1.00
                 0.727                   1

13 0
 s    8 1.00
                  6665  0.00069158396281299
                  1000  0.0053257961529341
                   228   0.027060721042034
                 64.71    0.10165684614077
                 21.06     0.2745748236174
                 7.495    0.44829431892377
                 2.797    0.28490261071525
                0.5215   0.015194859206082
 s    8 1.00
                  6665  -0.00029326965268655
                  1000  -0.0023180354739745
                   228  -0.011499786038565
                 64.71  -0.046826727009787
                 21.06   -0.12846616875047
                 7.495   -0.30126627246289
                 2.797   -0.25563070233011
                0.5215      1.093793361012
 s    1 1.00
                0.1596                   1
 p    3 1.00
                 9.439   0.056979251590039
                 2.002    0.31320721150073
                0.5456    0.76037674173753
 p    1 1.00
                0.1517                   1
 d    1 1.00
                  0.55                   1

14 0
 s    3 1.00
                 13.01   0.033498726389998
                 1.962    0.23480080117413
                0.4446     0.8136829578829
 s    1 1.00
                 0.122                   1
 p    1 1.00
                 0.727                   1

15 0
 s    3 1.00
                 13.01   0.033498726389998
                 1.962    0.23480080117413
                0.4446     0.8136829578829
 s    1 1.00
                 0.122                   1
 p    1 1.00
                 0.727                   1

16 0
 s    8 1.00
                  6665  0.00069158396281299
                  1000  0.0053257961529341
                   228   0.027060721042034
                 64.71    0.10165684614077
                 21.06     0.2745748236174
                 7.495    0.44829431892377
                 2.797    0.28490261071525
                0.5215   0.015194859206082
 s    8 1.00
                  6665  -0.00029326965268655
                  1000  -0.0023180354739745
                   228  -0.011499786038565
                 64.71  -0.046826727009787
                 21.06   -0.12846616875047
                 7.495   -0.30126627246289
                 2.797   -0.25563070233011
                0.5215      1.093793361012
 s    1 1.00
                0.1596                   1
 p    3 1.00
                 9.439   0.056979251590039
                 2.002    0.31320721150073
                0.5456    0.76037674173753
 p    1 1.00
                0.1517                   1
 d    1 1.00
                  0.55                   1

17 0
 s    3 1.00
                 13.01   0.033498726389998
                 1.962    0.23480080117413
                0.4446     0.8136829578829
 s    1 1.00
                 0.122                   1
 p    1 1.00
                 0.727                   1

18 0
 s    3 1.00
                 13.01   0.033498726389998
                 1.962    0.23480080117413
                0.4446     0.8136829578829
 s    1 1.00
                 0.122                   1
 p    1 1.00
                 0.727                   1

19 0
 s    8 1.00
                  6665  0.00069158396281299
                  1000  0.0053257961529341
                   228   0.027060721042034
                 64.71    0.10165684614077
                 21.06     0.2745748236174
                 7.495    0.44829431892377
                 2.797    0.28490261071525
                0.5215   0.015194859206082
 s    8 1.00
                  6665  -0.00029326965268655
                  1000  -0.0023180354739745
                   228  -0.011499786038565
                 64.71  -0.046826727009787
                 21.06   -0.12846616875047
                 7.495   -0.30126627246289
                 2.797   -0.25563070233011
                0.5215      1.093793361012
 s    1 1.00
                0.1596                   1
 p    3 1.00
                 9.439   0.056979251590039
                 2.002    0.31320721150073
                0.5456    0.76037674173753
 p    1 1.00
                0.1517                   1
 d    1 1.00
                  0.55                   1

20 0
 s    3 1.00
                 13.01   0.033498726389998
                 1.962    0.23480080117413
                0.4446     0.8136829578829
 s    1 1.00
                 0.122                   1
 p    1 1.00
                 0.727                   1

21 0
 s    8 1.00
                  6665  0.00069158396281299
                  1000  0.0053257961529341
                   228   0.027060721042034
                 64.71    0.10165684614077
                 21.06     0.2745748236174
                 7.495    0.44829431892377
                 2.797    0.28490261071525
                0.5215   0.015194859206082
 s    8 1.00
                  6665  -0.00029326965268655
                  1000  -0.0023180354739745
                   228  -0.011499786038565
                 64.71  -0.046826727009787
                 21.06   -0.12846616875047
                 7.495   -0.30126627246289
                 2.797   -0.25563070233011
                0.5215      1.093793361012
 s    1 1.00
                0.1596                   1
 p    3 1.00
                 9.439   0.056979251590039
                 2.002    0.31320721150073
                0.5456    0.76037674173753
 p    1 1.00
                0.1517                   1
 d    1 1.00
                  0.55                   1

22 0
 s    3 1.00
                 13.01   0.033498726389998
                 1.962    0.23480080117413
                0.4446     0.8136829578829
 s    1 1.00
                 0.122                   1
 p    1 1.00
                 0.727                   1

23 0
 s    3 1.00
                 13.01   0.033498726389998
                 1.962    0.23480080117413
                0.4446     0.8136829578829
 s    1 1.00
                 0.122                   1
 p    1 1.00
                 0.727                   1

24 0
 s    3 1.00
                 13.01   0.033498726389998
                 1.962    0.23480080117413
                0.4446     0.8136829578829
 s    1 1.00
                 0.122                   1
 p    1 1.00
                 0.727                   1

25 0
 s    8 1.00
                  6665  0.00069158396281299
                  1000  0.0053257961529341
                   228   0.027060721042034
                 64.71    0.10165684614077
                 21.06     0.2745748236174
                 7.495    0.44829431892377
                 2.797    0.28490261071525
                0.5215   0.015194859206082
 s    8 1.00
                  6665  -0.00029326965268655
                  1000  -0.0023180354739745
                   228  -0.011499786038565
                 64.71  -0.046826727009787
                 21.06   -0.12846616875047
                 7.495   -0.30126627246289
                 2.797   -0.25563070233011
                0.5215      1.093793361012
 s    1 1.00
                0.1596                   1
 p    3 1.00
                 9.439   0.056979251590039
                 2.002    0.31320721150073
                0.5456    0.76037674173753
 p    1 1.00
                0.1517                   1
 d    1 1.00
                  0.55                   1

26 0
 s    3 1.00
                 13.01   0.033498726389998
                 1.962    0.23480080117413
                0.4446     0.8136829578829
 s    1 1.00
                 0.122                   1
 p    1 1.00
                 0.727                   1

27 0
 s    3 1.00
                 13.01   0.033498726389998
                 1.962    0.23480080117413
                0.4446     0.8136829578829
 s    1 1.00
                 0.122                   1
 p    1 1.00
                 0.727                   1

28 0
 s    8 1.00
                  6665  0.00069158396281299
                  1000  0.0053257961529341
                   228   0.027060721042034
                 64.71    0.10165684614077
                 21.06     0.2745748236174
                 7.495    0.44829431892377
                 2.797    0.28490261071525
                0.5215   0.015194859206082
 s    8 1.00
                  6665  -0.00029326965268655
                  1000  -0.0023180354739745
                   228  -0.011499786038565
                 64.71  -0.046826727009787
                 21.06   -0.12846616875047
                 7.495   -0.30126627246289
                 2.797   -0.25563070233011
                0.5215      1.093793361012
 s    1 1.00
                0.1596                   1
 p    3 1.00
                 9.439   0.056979251590039
                 2.002    0.31320721150073
                0.5456    0.76037674173753
 p    1 1.00
                0.1517                   1
 d    1 1.00
                  0.55                   1

29 0
 s    3 1.00
                 13.01   0.033498726389998
                 1.962    0.23480080117413
                0.4446     0.8136829578829
 s    1 1.00
                 0.122                   1
 p    1 1.00
                 0.727                   1

30 0
 s    3 1.00
                 13.01   0.033498726389998
                 1.962    0.23480080117413
                0.4446     0.8136829578829
 s    1 1.00
                 0.122                   1
 p    1 1.00
                 0.727                   1

31 0
 s    8 1.00
                  6665  0.00069158396281299
                  1000  0.0053257961529341
                   228   0.027060721042034
                 64.71    0.10165684614077
                 21.06     0.2745748236174
                 7.495    0.44829431892377
                 2.797    0.28490261071525
                0.5215   0.015194859206082
 s    8 1.00
                  6665  -0.00029326965268655
                  1000  -0.0023180354739745
                   228  -0.011499786038565
                 64.71  -0.046826727009787
                 21.06   -0.12846616875047
                 7.495   -0.30126627246289
                 2.797   -0.25563070233011
                0.5215      1.093793361012
 s    1 1.00
                0.1596                   1
 p    3 1.00
                 9.439   0.056979251590039
                 2.002    0.31320721150073
                0.5456    0.76037674173753
 p    1 1.00
                0.1517                   1
 d    1 1.00
                  0.55                   1

32 0
 s    3 1.00
                 13.01   0.033498726389998
                 1.962    0.23480080117413
                0.4446     0.8136829578829
 s    1 1.00
                 0.122                   1
 p    1 1.00
                 0.727                   1

33 0
 s    3 1.00
                 13.01   0.033498726389998
                 1.962    0.23480080117413
                0.4446     0.8136829578829
 s    1 1.00
                 0.122                   1
 p    1 1.00
                 0.727                   1

34 0
 s    3 1.00
                 13.01   0.033498726389998
                 1.962    0.23480080117413
                0.4446     0.8136829578829
 s    1 1.00
                 0.122                   1
 p    1 1.00
                 0.727                   1

35 0
 s    3 1.00
                 13.01   0.033498726389998
                 1.962    0.23480080117413
                0.4446     0.8136829578829
 s    1 1.00
                 0.122                   1
 p    1 1.00
                 0.727                   1

36 0
 s    3 1.00
                 13.01   0.033498726389998
                 1.962    0.23480080117413
                0.4446     0.8136829578829
 s    1 1.00
                 0.122                   1
 p    1 1.00
                 0.727                   1

37 0
 s    3 1.00
                 13.01   0.033498726389998
                 1.962    0.23480080117413
                0.4446     0.8136829578829
 s    1 1.00
                 0.122                   1
 p    1 1.00
                 0.727                   1

[5d]
[7f]
[9g]

[MO]
 Sym= A
 Ene=               0
 Spin= Alpha
 Occup=    1.00000
   1    -1.5321075936965e-06
   2    -4.1076420212847e-06
   3    2.9901820635112e-05
   4    -4.3289004580136e-07
   5    1.0739426949513e-06
   6    -5.0918920291848e-06
   7    1.7046112001969e-08
   8    -4.8407567795509e-06
   9    -2.0844479436827e-05
  10    1.4313300336218e-06
  11    5.2071762706614e-08
  12    -1.6926764558121e-07
  13    3.0038259247004e-08
  14    3.4634677498319e-09
  15    -1.6453795857603e-07
  16    -5.5389416485643e-05
  17    2.6693079260872e-07
  18    2.8514901815593e-07
  19    -3.4489733114593e-06
  20    -1.0351088735051e-06
  21    1.6082839445914e-05
  22    -4.3051091055271e-08
  23    -2.7612217281653e-07
  24    5.6973668754091e-08
  25    -0.00045589152750577
  26    -0.00052326113122152
  27    -0.00069273718783249
  28    0.00034960802798228
  29    -1.3830667393928e-06
  30    -0.00069485764532209
  31    0.00031160172324399
  32    -1.8180502808966e-05
  33    -0.00050231196818324
  34    4.7735092738201e-05
  35    -3.6928099104724e-05
  36    -1.941533344579e-06
  37    6.7778874190572e-06
  38    -3.0990161838233e-05
  39    0.0014420033975274
  40    0.00024355847953877
  41    0.0020323064308316
  42    0.0002521422352998
  43    -2.4747049246652e-05
  44    0.00027372416301861
  45    -0.00046300987057689
  46    0.00031233120989988
  47    -0.00044999113419084
  48    1.5276135266876e-05
  49    -7.7597541492249e-05
  50    2.7960268147476e-05
  51    -5.8860532924827e-05
  52    0.00015339519456936
  53      0.30824316746743
  54    0.0015520598593237
  55    -0.001321979256418
  56    -8.4163728117958e-05
  57    7.0912010760722e-05
  58    -3.0571248966906e-06
  59    0.00050712509160672
  60    0.00022425711484247
  61    -0.00015509450501709
  62    2.7206203867986e-05
  63    0.0001739233291124
  64    0.00016747235775122
  65    3.0276448204953e-05
  66    -9.4572947818964e-05
  67      0.56507474278582
  68    0.0029019194422419
  69    -0.0072482056641632
  70    8.7909799785464e-06
  71    4.5455455410677e-05
  72    -0.00020845682860932
  73    0.00075212047183524
  74    -0.00010045699548643
  75    -0.0011709050341813
  76    4.1257636299749e-05
  77    5.4368506990256e-05
  78    -1.2250547123265e-05
  79    -0.00011622048733555
  80    0.00015928671589448
  81    -0.00012307822271138
  82    0.00036066737156745
  83     0.000105232717314
  84    1.3163694895559e-06
  85    4.8244091491567e-05
  86      0.76811357025603
  87    0.0039140047923662
  88    -0.0084257322993658
  89    -0.00011168838419838
  90    9.9361795966387e-05
  91    5.4395873903041e-05
  92    -0.00089005698121409
  93    0.00077270985190543
  94     0.000261866939895
  95    2.134401908321e-05
  96    0.00028017572948585
  97    5.6067767284159e-05
  98    -4.5845067764518e-05
  99    2.6412065978602e-05
 100    -4.4398069993831e-05
 101    0.00051315647822792
 102    -2.1262834658695e-05
 103    -6.0857491891706e-05
 104    -0.00013466454004513
 105    7.8246428415283e-05
 106    0.00061548218762995
 107    -0.00018114927695479
 108    -0.00017634028390289
 109    -0.00014509457626688
 110    5.2604647580169e-05
 111    0.00039346443404842
 112    8.318671413928e-05
 113    0.00028911700312745
 114    -6.1368888546201e-05
 115     0.010818298419005
 116    -0.00011039360509943
 117    0.0024943114894997
 118    8.5921802772215e-05
 119    -4.6680190663788e-05
 120    -2.3685416214357e-05
 121    0.0010563490267104
 122    -0.00043009809605739
 123    -0.0009032470788693
 124    -1.4164362831922e-05
 125    1.1863499070187e-05
 126    6.9820829914802e-06
 127    -1.2863465438535e-05
 128    8.9105202967938e-06
 129    0.00011734134523708
 130    0.0010185166372625
 131    0.00017957615037393
 132    0.00020208109739426
 133    0.00019132965195924
 134    8.2677699104684e-05
 135    0.00081967580012197
 136    -0.00020755887807546
 137    5.3373695643599e-05
 138    -0.00025608463110295
 139     0.024390734873581
 140    -7.1573466807904e-05
 141    0.0024641434175685
 142    -8.1930552164015e-05
 143    4.4804314825701e-05
 144    5.4953652889338e-05
 145    -0.0011286582719655
 146    0.00061580969669953
 147    0.0008045750013787
 148    2.936859271181e-05
 149    2.4592860531426e-05
 150    -3.4680585974887e-05
 151    -8.0276236808547e-06
 152    7.0578467900468e-05
 153    -5.937920161026e-05
 154    0.00018954511598644
 155    8.7627544423111e-06
 156    -2.3129404090925e-05
 157    -2.4793245366935e-05
 158    -5.6724278972627e-05
 159     0.000163207656089
 160    2.6547393171765e-05
 161    1.1418775303131e-05
 162    -1.5179157526158e-05
 163    -0.0001159063399654
 164    -3.0661443380086e-05
 165    -0.00061230629233426
 166    -6.5162376334394e-05
 167    3.8221200328571e-05
 168    -3.725327747236e-06
 169    0.0003076090562796
 170    -8.5064753481612e-05
 171    -0.00042217956669822
 172    1.1398067162941e-05
 173    -9.4540337433365e-06
 174    4.6950602267549e-07
 175    4.0586787376424e-06
 176    -4.9371483609477e-06
 177    -0.00010187157142026
 178    9.065840595359e-05
 179    -2.1051917915696e-05
 180    3.2361684042966e-05
 181    6.6590808403315e-08
 182    0.00031458646382425
 183    -9.8430333744089e-05
 184    -0.0001920854152827
 185    5.5616943734055e-05
 186    5.8286156100562e-06
 187    -4.917577528616e-05
 188    -0.00043282366063584
 189    0.00036769340198125
 190    0.00022873268444175
 191    -1.3414417759041e-05
 192    -1.291180566327e-05
 193    1.485376812983e-05
 194    -1.4074585083664e-06
 195    -2.5598038996133e-05
 196    -0.00010464566139602
 197    0.00013103654390619
 198    -1.8529098749159e-05
 199    3.3520974220953e-05
 200    6.3264087268069e-06
 201    -1.4936642386217e-05
 202    -0.0001136980246351
 203    -4.7257811451631e-05
 204    6.8063711387408e-06
 205    1.6722006572057e-05
 206    -1.8912899583283e-05
 207    -8.11062699941e-05
 208    -3.2096652923621e-05
 209    2.665512353769e-05
 210    2.3701711454678e-05
 211    6.049623173947e-05
 212    -0.00011688301419334
 213    0.00063013551772932
 214    7.6842507630513e-07
 215    3.5073083597511e-06
 216    -1.4440802921087e-05
 217    0.00055903340983238
 218    -0.00033226286418021
 219    -6.7218400605799e-06
 220    -9.0465021564757e-06
 221    -2.4860162268133e-05
 222    1.4112299666255e-05
 223    1.3176132311551e-05
 224    -1.141126499231e-05
 225    -3.8651317757215e-05
 226    -0.00017871629679157
 227    5.5917762823377e-05
 228    -1.0577081389771e-05
 229    -1.4916698692012e-05
 230    -3.9129082892302e-05
 231    -0.00016442493545783
 232    2.9948589982732e-05
 233    -2.3439899587846e-05
 234    -4.3194828995687e-05
 235    -3.7687840203466e-05
 236    -0.00014741128897705
 237    0.00076505581549355
 238    6.0135901545482e-06
 239    1.2094077790361e-05
 240    -1.0330503697565e-05
 241    -0.00040493941007988
 242    2.3511230817768e-05
 243    0.00034221512585234
 244    9.1333320403997e-07
 245    -2.1853582850127e-05
 246    4.5495557758623e-06
 247    1.2059720568321e-05
 248    -5.9922355236942e-06
 249    -5.4842652579541e-05
 250    -1.62745837349e-05
 251    -1.2797841563777e-05
 252    1.6976424618292e-05
 253    -5.6998339059081e-06
 254    -5.8276218906717e-05
 255    -1.7793183979939e-05
 256    -1.9729368793208e-05
 257    5.4505135348667e-06
 258    -7.7266410968791e-06
 259    -6.2060846561302e-05
 260    -3.9383835126193e-05
 261    0.00024475816920045
 262    -5.2925596004292e-06
 263    3.2362389120584e-06