[Molden Format]
made by pyscf v[2.0.1]
[Atoms] (AU)
O   1   8     0.00000000000000     0.00000000000000     8.29613401107647
H   2   1     0.00000000000000     0.00000000000000     6.47273218917551
H   3   1    -0.05031916615174     1.78353065140343     8.67200570754314
O   4   8     0.00000000000000     0.00000000000000     2.31533471513237
C   5   6     0.00000000000000     0.00000000000000     0.00000000000000
C   6   6     2.01118073026938    -1.40227222164369    -1.50774939176400
C   7   6    -2.01249334291722     1.41331050329955    -1.50315905028694
H   8   1     3.32037363730244    -2.26721897153159    -0.13599698591495
C   9   6     3.45899267434009     0.28739631745591    -3.37437943254505
H   10   1     1.07662969841332    -2.94725144642667    -2.56541439481080
H   11   1    -2.67503415753480     0.18421555839588    -3.06194479365997
H   12   1    -1.07974048864772     3.03851734677796    -2.43674295017013
C   13   6    -4.21607110578555     2.32938802552922     0.11994162256091
H   14   1     4.24440173074564     1.93368664142019    -2.34976285512790
H   15   1     2.15020713235517     1.04714335134846    -4.81494497423699
C   16   6     5.60746363007797    -1.12419643481196    -4.70268606082550
H   17   1    -3.46838323670267     3.50951302338067     1.66946842715333
H   18   1    -5.11873485366228     0.68575958301209     1.04047743976495
C   19   6    -6.18314754751344     3.80909592987882    -1.39656589068747
H   20   1     6.93011263717176    -1.87550812453645    -3.26656317360070
C   21   6     7.06356622236532     0.52877932406334    -6.57829775293605
H   22   1     4.82318879258361    -2.78573437948532    -5.70504560381835
H   23   1    -6.91582688743803     2.61304780074712    -2.95074552451969
H   24   1    -5.26532430573853     5.45420349051338    -2.31005832200284
C   25   6    -8.39941882261433     4.73263980500213     0.21800571437956
H   26   1     7.83338371486801     2.19084139882824    -5.57093109900697
H   27   1     5.73544244039420     1.27376866537418    -8.01071492370229
C   28   6     9.21124858443101    -0.89699110072176    -7.88926949186242
H   29   1    -7.66272760055236     5.92277078003992     1.77035591474408
H   30   1    -9.31497248082589     3.08753015622020     1.12614408368786
C   31   6   -10.35481709231879     6.21833079391143    -1.30905206253246
H   32   1    10.58815905329501    -1.61074586756696    -6.49512691622620
H   33   1    10.23506248045667     0.32468009384095    -9.23072870921204
H   34   1     8.47665842847139    -2.53598436989925    -8.94921964622535
H   35   1    -9.48948872868064     7.90013588951020    -2.18823918416067
H   36   1   -11.93332513000955     6.86460487874102    -0.11255798845995
H   37   1   -11.15126291841033     5.04495968327630    -2.83849898862534
[GTO]
1 0
 s    8 1.00
                 11720  0.00070964594651845
                  1759  0.0054672722921914
                 400.8   0.027823118610189
                 113.7    0.10474773971146
                 37.03    0.28292084635691
                 13.27    0.44849523869833
                 5.025    0.27081688521277
                 1.013    0.01545029160744
 s    8 1.00
                 11720  -0.00031444341168873
                  1759  -0.0024821376810179
                 400.8  -0.012316355381583
                 113.7  -0.050538917343672
                 37.03   -0.13938490331632
                 13.27   -0.32507749481778
                 5.025   -0.22984830758785
                 1.013     1.0953793467883
 s    1 1.00
                0.3023                   1
 p    3 1.00
                  17.7   0.062679166281506
                 3.854    0.33353656587936
                 1.046    0.74123964163973
 p    1 1.00
                0.2753                   1
 d    1 1.00
                 1.185                   1

2 0
 s    3 1.00
                 13.01   0.033498726389998
                 1.962    0.23480080117413
                0.4446     0.8136829578829
 s    1 1.00
                 0.122                   1
 p    1 1.00
                 0.727                   1

3 0
 s    3 1.00
                 13.01   0.033498726389998
                 1.962    0.23480080117413
                0.4446     0.8136829578829
 s    1 1.00
                 0.122                   1
 p    1 1.00
                 0.727                   1

4 0
 s    8 1.00
                 11720  0.00070964594651845
                  1759  0.0054672722921914
                 400.8   0.027823118610189
                 113.7    0.10474773971146
                 37.03    0.28292084635691
                 13.27    0.44849523869833
                 5.025    0.27081688521277
                 1.013    0.01545029160744
 s    8 1.00
                 11720  -0.00031444341168873
                  1759  -0.0024821376810179
                 400.8  -0.012316355381583
                 113.7  -0.050538917343672
                 37.03   -0.13938490331632
                 13.27   -0.32507749481778
                 5.025   -0.22984830758785
                 1.013     1.0953793467883
 s    1 1.00
                0.3023                   1
 p    3 1.00
                  17.7   0.062679166281506
                 3.854    0.33353656587936
                 1.046    0.74123964163973
 p    1 1.00
                0.2753                   1
 d    1 1.00
                 1.185                   1

5 0
 s    8 1.00
                  6665  0.00069158396281299
                  1000  0.0053257961529341
                   228   0.027060721042034
                 64.71    0.10165684614077
                 21.06     0.2745748236174
                 7.495    0.44829431892377
                 2.797    0.28490261071525
                0.5215   0.015194859206082
 s    8 1.00
                  6665  -0.00029326965268655
                  1000  -0.0023180354739745
                   228  -0.011499786038565
                 64.71  -0.046826727009787
                 21.06   -0.12846616875047
                 7.495   -0.30126627246289
                 2.797   -0.25563070233011
                0.5215      1.093793361012
 s    1 1.00
                0.1596                   1
 p    3 1.00
                 9.439   0.056979251590039
                 2.002    0.31320721150073
                0.5456    0.76037674173753
 p    1 1.00
                0.1517                   1
 d    1 1.00
                  0.55                   1

6 0
 s    8 1.00
                  6665  0.00069158396281299
                  1000  0.0053257961529341
                   228   0.027060721042034
                 64.71    0.10165684614077
                 21.06     0.2745748236174
                 7.495    0.44829431892377
                 2.797    0.28490261071525
                0.5215   0.015194859206082
 s    8 1.00
                  6665  -0.00029326965268655
                  1000  -0.0023180354739745
                   228  -0.011499786038565
                 64.71  -0.046826727009787
                 21.06   -0.12846616875047
                 7.495   -0.30126627246289
                 2.797   -0.25563070233011
                0.5215      1.093793361012
 s    1 1.00
                0.1596                   1
 p    3 1.00
                 9.439   0.056979251590039
                 2.002    0.31320721150073
                0.5456    0.76037674173753
 p    1 1.00
                0.1517                   1
 d    1 1.00
                  0.55                   1

7 0
 s    8 1.00
                  6665  0.00069158396281299
                  1000  0.0053257961529341
                   228   0.027060721042034
                 64.71    0.10165684614077
                 21.06     0.2745748236174
                 7.495    0.44829431892377
                 2.797    0.28490261071525
                0.5215   0.015194859206082
 s    8 1.00
                  6665  -0.00029326965268655
                  1000  -0.0023180354739745
                   228  -0.011499786038565
                 64.71  -0.046826727009787
                 21.06   -0.12846616875047
                 7.495   -0.30126627246289
                 2.797   -0.25563070233011
                0.5215      1.093793361012
 s    1 1.00
                0.1596                   1
 p    3 1.00
                 9.439   0.056979251590039
                 2.002    0.31320721150073
                0.5456    0.76037674173753
 p    1 1.00
                0.1517                   1
 d    1 1.00
                  0.55                   1

8 0
 s    3 1.00
                 13.01   0.033498726389998
                 1.962    0.23480080117413
                0.4446     0.8136829578829
 s    1 1.00
                 0.122                   1
 p    1 1.00
                 0.727                   1

9 0
 s    8 1.00
                  6665  0.00069158396281299
                  1000  0.0053257961529341
                   228   0.027060721042034
                 64.71    0.10165684614077
                 21.06     0.2745748236174
                 7.495    0.44829431892377
                 2.797    0.28490261071525
                0.5215   0.015194859206082
 s    8 1.00
                  6665  -0.00029326965268655
                  1000  -0.0023180354739745
                   228  -0.011499786038565
                 64.71  -0.046826727009787
                 21.06   -0.12846616875047
                 7.495   -0.30126627246289
                 2.797   -0.25563070233011
                0.5215      1.093793361012
 s    1 1.00
                0.1596                   1
 p    3 1.00
                 9.439   0.056979251590039
                 2.002    0.31320721150073
                0.5456    0.76037674173753
 p    1 1.00
                0.1517                   1
 d    1 1.00
                  0.55                   1

10 0
 s    3 1.00
                 13.01   0.033498726389998
                 1.962    0.23480080117413
                0.4446     0.8136829578829
 s    1 1.00
                 0.122                   1
 p    1 1.00
                 0.727                   1

11 0
 s    3 1.00
                 13.01   0.033498726389998
                 1.962    0.23480080117413
                0.4446     0.8136829578829
 s    1 1.00
                 0.122                   1
 p    1 1.00
                 0.727                   1

12 0
 s    3 1.00
                 13.01   0.033498726389998
                 1.962    0.23480080117413
                0.4446     0.8136829578829
 s    1 1.00
                 0.122                   1
 p    1 1.00
                 0.727                   1

13 0
 s    8 1.00
                  6665  0.00069158396281299
                  1000  0.0053257961529341
                   228   0.027060721042034
                 64.71    0.10165684614077
                 21.06     0.2745748236174
                 7.495    0.44829431892377
                 2.797    0.28490261071525
                0.5215   0.015194859206082
 s    8 1.00
                  6665  -0.00029326965268655
                  1000  -0.0023180354739745
                   228  -0.011499786038565
                 64.71  -0.046826727009787
                 21.06   -0.12846616875047
                 7.495   -0.30126627246289
                 2.797   -0.25563070233011
                0.5215      1.093793361012
 s    1 1.00
                0.1596                   1
 p    3 1.00
                 9.439   0.056979251590039
                 2.002    0.31320721150073
                0.5456    0.76037674173753
 p    1 1.00
                0.1517                   1
 d    1 1.00
                  0.55                   1

14 0
 s    3 1.00
                 13.01   0.033498726389998
                 1.962    0.23480080117413
                0.4446     0.8136829578829
 s    1 1.00
                 0.122                   1
 p    1 1.00
                 0.727                   1

15 0
 s    3 1.00
                 13.01   0.033498726389998
                 1.962    0.23480080117413
                0.4446     0.8136829578829
 s    1 1.00
                 0.122                   1
 p    1 1.00
                 0.727                   1

16 0
 s    8 1.00
                  6665  0.00069158396281299
                  1000  0.0053257961529341
                   228   0.027060721042034
                 64.71    0.10165684614077
                 21.06     0.2745748236174
                 7.495    0.44829431892377
                 2.797    0.28490261071525
                0.5215   0.015194859206082
 s    8 1.00
                  6665  -0.00029326965268655
                  1000  -0.0023180354739745
                   228  -0.011499786038565
                 64.71  -0.046826727009787
                 21.06   -0.12846616875047
                 7.495   -0.30126627246289
                 2.797   -0.25563070233011
                0.5215      1.093793361012
 s    1 1.00
                0.1596                   1
 p    3 1.00
                 9.439   0.056979251590039
                 2.002    0.31320721150073
                0.5456    0.76037674173753
 p    1 1.00
                0.1517                   1
 d    1 1.00
                  0.55                   1

17 0
 s    3 1.00
                 13.01   0.033498726389998
                 1.962    0.23480080117413
                0.4446     0.8136829578829
 s    1 1.00
                 0.122                   1
 p    1 1.00
                 0.727                   1

18 0
 s    3 1.00
                 13.01   0.033498726389998
                 1.962    0.23480080117413
                0.4446     0.8136829578829
 s    1 1.00
                 0.122                   1
 p    1 1.00
                 0.727                   1

19 0
 s    8 1.00
                  6665  0.00069158396281299
                  1000  0.0053257961529341
                   228   0.027060721042034
                 64.71    0.10165684614077
                 21.06     0.2745748236174
                 7.495    0.44829431892377
                 2.797    0.28490261071525
                0.5215   0.015194859206082
 s    8 1.00
                  6665  -0.00029326965268655
                  1000  -0.0023180354739745
                   228  -0.011499786038565
                 64.71  -0.046826727009787
                 21.06   -0.12846616875047
                 7.495   -0.30126627246289
                 2.797   -0.25563070233011
                0.5215      1.093793361012
 s    1 1.00
                0.1596                   1
 p    3 1.00
                 9.439   0.056979251590039
                 2.002    0.31320721150073
                0.5456    0.76037674173753
 p    1 1.00
                0.1517                   1
 d    1 1.00
                  0.55                   1

20 0
 s    3 1.00
                 13.01   0.033498726389998
                 1.962    0.23480080117413
                0.4446     0.8136829578829
 s    1 1.00
                 0.122                   1
 p    1 1.00
                 0.727                   1

21 0
 s    8 1.00
                  6665  0.00069158396281299
                  1000  0.0053257961529341
                   228   0.027060721042034
                 64.71    0.10165684614077
                 21.06     0.2745748236174
                 7.495    0.44829431892377
                 2.797    0.28490261071525
                0.5215   0.015194859206082
 s    8 1.00
                  6665  -0.00029326965268655
                  1000  -0.0023180354739745
                   228  -0.011499786038565
                 64.71  -0.046826727009787
                 21.06   -0.12846616875047
                 7.495   -0.30126627246289
                 2.797   -0.25563070233011
                0.5215      1.093793361012
 s    1 1.00
                0.1596                   1
 p    3 1.00
                 9.439   0.056979251590039
                 2.002    0.31320721150073
                0.5456    0.76037674173753
 p    1 1.00
                0.1517                   1
 d    1 1.00
                  0.55                   1

22 0
 s    3 1.00
                 13.01   0.033498726389998
                 1.962    0.23480080117413
                0.4446     0.8136829578829
 s    1 1.00
                 0.122                   1
 p    1 1.00
                 0.727                   1

23 0
 s    3 1.00
                 13.01   0.033498726389998
                 1.962    0.23480080117413
                0.4446     0.8136829578829
 s    1 1.00
                 0.122                   1
 p    1 1.00
                 0.727                   1

24 0
 s    3 1.00
                 13.01   0.033498726389998
                 1.962    0.23480080117413
                0.4446     0.8136829578829
 s    1 1.00
                 0.122                   1
 p    1 1.00
                 0.727                   1

25 0
 s    8 1.00
                  6665  0.00069158396281299
                  1000  0.0053257961529341
                   228   0.027060721042034
                 64.71    0.10165684614077
                 21.06     0.2745748236174
                 7.495    0.44829431892377
                 2.797    0.28490261071525
                0.5215   0.015194859206082
 s    8 1.00
                  6665  -0.00029326965268655
                  1000  -0.0023180354739745
                   228  -0.011499786038565
                 64.71  -0.046826727009787
                 21.06   -0.12846616875047
                 7.495   -0.30126627246289
                 2.797   -0.25563070233011
                0.5215      1.093793361012
 s    1 1.00
                0.1596                   1
 p    3 1.00
                 9.439   0.056979251590039
                 2.002    0.31320721150073
                0.5456    0.76037674173753
 p    1 1.00
                0.1517                   1
 d    1 1.00
                  0.55                   1

26 0
 s    3 1.00
                 13.01   0.033498726389998
                 1.962    0.23480080117413
                0.4446     0.8136829578829
 s    1 1.00
                 0.122                   1
 p    1 1.00
                 0.727                   1

27 0
 s    3 1.00
                 13.01   0.033498726389998
                 1.962    0.23480080117413
                0.4446     0.8136829578829
 s    1 1.00
                 0.122                   1
 p    1 1.00
                 0.727                   1

28 0
 s    8 1.00
                  6665  0.00069158396281299
                  1000  0.0053257961529341
                   228   0.027060721042034
                 64.71    0.10165684614077
                 21.06     0.2745748236174
                 7.495    0.44829431892377
                 2.797    0.28490261071525
                0.5215   0.015194859206082
 s    8 1.00
                  6665  -0.00029326965268655
                  1000  -0.0023180354739745
                   228  -0.011499786038565
                 64.71  -0.046826727009787
                 21.06   -0.12846616875047
                 7.495   -0.30126627246289
                 2.797   -0.25563070233011
                0.5215      1.093793361012
 s    1 1.00
                0.1596                   1
 p    3 1.00
                 9.439   0.056979251590039
                 2.002    0.31320721150073
                0.5456    0.76037674173753
 p    1 1.00
                0.1517                   1
 d    1 1.00
                  0.55                   1

29 0
 s    3 1.00
                 13.01   0.033498726389998
                 1.962    0.23480080117413
                0.4446     0.8136829578829
 s    1 1.00
                 0.122                   1
 p    1 1.00
                 0.727                   1

30 0
 s    3 1.00
                 13.01   0.033498726389998
                 1.962    0.23480080117413
                0.4446     0.8136829578829
 s    1 1.00
                 0.122                   1
 p    1 1.00
                 0.727                   1

31 0
 s    8 1.00
                  6665  0.00069158396281299
                  1000  0.0053257961529341
                   228   0.027060721042034
                 64.71    0.10165684614077
                 21.06     0.2745748236174
                 7.495    0.44829431892377
                 2.797    0.28490261071525
                0.5215   0.015194859206082
 s    8 1.00
                  6665  -0.00029326965268655
                  1000  -0.0023180354739745
                   228  -0.011499786038565
                 64.71  -0.046826727009787
                 21.06   -0.12846616875047
                 7.495   -0.30126627246289
                 2.797   -0.25563070233011
                0.5215      1.093793361012
 s    1 1.00
                0.1596                   1
 p    3 1.00
                 9.439   0.056979251590039
                 2.002    0.31320721150073
                0.5456    0.76037674173753
 p    1 1.00
                0.1517                   1
 d    1 1.00
                  0.55                   1

32 0
 s    3 1.00
                 13.01   0.033498726389998
                 1.962    0.23480080117413
                0.4446     0.8136829578829
 s    1 1.00
                 0.122                   1
 p    1 1.00
                 0.727                   1

33 0
 s    3 1.00
                 13.01   0.033498726389998
                 1.962    0.23480080117413
                0.4446     0.8136829578829
 s    1 1.00
                 0.122                   1
 p    1 1.00
                 0.727                   1

34 0
 s    3 1.00
                 13.01   0.033498726389998
                 1.962    0.23480080117413
                0.4446     0.8136829578829
 s    1 1.00
                 0.122                   1
 p    1 1.00
                 0.727                   1

35 0
 s    3 1.00
                 13.01   0.033498726389998
                 1.962    0.23480080117413
                0.4446     0.8136829578829
 s    1 1.00
                 0.122                   1
 p    1 1.00
                 0.727                   1

36 0
 s    3 1.00
                 13.01   0.033498726389998
                 1.962    0.23480080117413
                0.4446     0.8136829578829
 s    1 1.00
                 0.122                   1
 p    1 1.00
                 0.727                   1

37 0
 s    3 1.00
                 13.01   0.033498726389998
                 1.962    0.23480080117413
                0.4446     0.8136829578829
 s    1 1.00
                 0.122                   1
 p    1 1.00
                 0.727                   1

[5d]
[7f]
[9g]

[MO]
 Sym= A
 Ene=               0
 Spin= Alpha
 Occup=    1.00000
   1    1.1259673892255e-05
   2    2.5560807812364e-05
   3    9.0207729700519e-05
   4    -6.2908445672472e-06
   5    9.4687370991096e-06
   6    -7.843565563159e-05
   7    -2.6970574102565e-06
   8    -1.6502019209869e-06
   9    -7.4605191261503e-05
  10    7.0601930534749e-06
  11    -5.3072613387874e-07
  12    -1.2453667807274e-06
  13    -1.7588370013092e-07
  14    -4.7274806847131e-08
  15    2.9730806044625e-05
  16    -9.6325660435093e-05
  17    -2.2189016279551e-06
  18    2.3174774818143e-06
  19    -9.2227587693031e-06
  20    3.0022312703341e-06
  21    1.0023215317225e-05
  22    -5.837868126202e-07
  23    2.3192144732552e-07
  24    -4.0422867267875e-06
  25    -0.00059768776113085
  26    -0.00055339430460478
  27    -0.00091109567840449
  28    0.00058528519162035
  29    -0.00037972660101927
  30    -0.0011359026479403
  31    0.00060371454398017
  32    -0.00036983341696698
  33    -0.00071143883728467
  34    8.1516408710833e-05
  35    -8.5479923368747e-05
  36    5.4049883206094e-05
  37    1.1154500206812e-05
  38    -3.777396928921e-05
  39    0.0027007012998783
  40     0.001451160488314
  41    0.0038271479841417
  42    0.0013406301270967
  43    -0.000903041333695
  44    -8.4248087249442e-05
  45    -0.0016770641264481
  46    0.0011677011298888
  47    -0.00088760871057267
  48    5.1249648432987e-05
  49    -0.00018403128783431
  50    0.00012888533748326
  51    -4.1556913515915e-05
  52    0.00012151760548784
  53      0.18942732300329
  54    0.0014013612929988
  55    -7.8711439221503e-05
  56    -0.0010855558031994
  57    0.00076865466327514
  58    0.00078782009026174
  59    -0.00073763052134921
  60    0.00059437590070095
  61    0.0010250133731782
  62    4.4472139940322e-05
  63    -4.3084351765712e-05
  64    0.00015156082195428
  65    5.9298676397148e-05
  66    -0.00013532946997947
  67      0.96407185010635
  68    0.0050592488178542
  69    -0.013765503423501
  70    -3.6595260368863e-05
  71    0.00016223874002094
  72    -0.00048761903338815
  73    5.7181714610925e-05
  74    0.00019610757128548
  75    -0.0021951197979419
  76    2.0525238268391e-05
  77    3.7223307988002e-05
  78    4.113433295558e-05
  79    -0.00017727606950708
  80    0.00026563655835674
  81    -0.00028599454489069
  82    5.6987168128194e-05
  83    2.4460384462661e-05
  84    1.5249835663479e-05
  85    5.3150531180906e-05
  86      0.19864792747086
  87    0.00087887443807075
  88    -0.0018877683741368
  89    0.00011533612939287
  90     4.16780848396e-05
  91    -0.0001121724234328
  92    -0.00052411736472039
  93    0.00012497447125455
  94    -0.00011040408623614
  95    3.1179302550646e-05
  96    7.2269572332736e-05
  97    1.6200287069094e-05
  98    1.9873863945667e-05
  99    -1.3292044793033e-05
 100    -0.00017140246880483
 101    0.00010508674990669
 102    -9.9330852296743e-06
 103    -5.6871543528285e-05
 104    -6.5845865568248e-05
 105    0.00013954027401076
 106    0.0010965395049531
 107    -0.00021796272059132
 108    -0.00030343455842009
 109    -0.00026558124920789
 110    0.00021135282745891
 111    0.0012389070956799
 112    0.00017816385480318
 113    0.00041816324012275
 114    -0.00010273736109221
 115     0.021907818325085
 116    -6.3785656120613e-05
 117    0.0039255097084531
 118    0.00017368382741894
 119    -8.4104139789484e-05
 120    -6.856227100673e-05
 121    0.0015595724107453
 122    -0.00049021033695182
 123    -0.0013959425719513
 124    -2.2766346334163e-05
 125    4.9250119922425e-05
 126    -1.4760333645296e-05
 127    -3.4092063411404e-05
 128    4.2852257190982e-05
 129    -3.7391887584393e-05
 130    0.00021446534209166
 131    8.9968875392353e-05
 132    4.4599215711122e-05
 133    4.957360975091e-05
 134    -0.00010019358503233
 135    -0.00021599828771901
 136    -6.1790156617116e-05
 137    2.316810924269e-05
 138    -0.00010162996627135
 139    0.0077582761880357
 140    2.6501067608209e-05
 141     0.000837684088426
 142    -0.00014382064183245
 143    5.3927909091306e-05
 144    0.00010127719994514
 145    -0.00061735932205912
 146    0.00013033915201632
 147    0.00066358304904619
 148    8.2426476129558e-06
 149    -1.1369210087465e-05
 150    1.3742223644664e-05
 151    3.5900293808195e-06
 152    -8.7711541285488e-07
 153    -8.3502602340819e-05
 154    0.00028371383137004
 155    2.8014135776011e-05
 156    -4.6261443496925e-05
 157    -4.3372013963593e-05
 158    -7.3626728363611e-05
 159    0.00031054250956908
 160    5.1080843700792e-05
 161    4.0469673275066e-06
 162    -2.8834952842759e-05
 163    -0.0011479617361568
 164    -6.4822120540281e-05
 165    -0.00085017155416309
 166    -9.2272737003636e-05
 167    5.8281557091736e-05
 168    -2.4485171049966e-05
 169    5.288238365333e-05
 170    6.8117428854445e-05
 171    -0.0005972796655725
 172    1.7230539179218e-05
 173    -4.8145575840984e-05
 174    1.3645011582183e-05
 175    1.0585834407633e-05
 176    -5.0258456483189e-06
 177    -2.5320201393818e-05
 178    -2.8969385287215e-05
 179    3.1234717754625e-06
 180    1.8192629892123e-05
 181    -1.6367421581312e-05
 182    0.00085834846013779
 183    -7.2442877954598e-05
 184    4.9296028263872e-05
 185    5.8896652824837e-05
 186    3.9913157644271e-05
 187    -6.0773757054952e-05
 188    -0.00024382257638916
 189    5.013405854471e-05
 190    0.00016825418461452
 191    -2.4710001968834e-06
 192    -1.1848969688396e-05
 193    -2.096883316866e-06
 194    -1.5786982864872e-07
 195    7.9058107735242e-06
 196    -2.047060588167e-05
 197    0.00010908253880936
 198    5.5837917783853e-06
 199    2.5030635450491e-05
 200    -8.4951111742323e-06
 201    -1.0071312430962e-05
 202    -0.00024467923872225
 203    -5.7858364468482e-05
 204    2.0153121335268e-06
 205    1.8250285955694e-05
 206    -9.191067789343e-06
 207    -0.00023681766426455
 208    -3.3554862223255e-05
 209    4.3843539471313e-05
 210    2.7307944382124e-05
 211    0.00056206241609028
 212    -0.00013760152444724
 213    0.00064224834408314
 214    -7.1401174157518e-06
 215    7.9699477218608e-06
 216    -1.7819622213018e-05
 217    0.00072596975845086
 218    -0.00043005704774892
 219    8.3308970530986e-05
 220    -1.4257556437343e-05
 221    -2.1339299201921e-05
 222    1.3619890479489e-05
 223    1.1765714693696e-05
 224    -8.3242794403166e-06
 225    -2.0851652758295e-05
 226    -1.3032047281445e-05
 227    2.2224223848112e-05
 228    -1.7008947768349e-06
 229    -1.1032632310348e-05
 230    -2.7343618710694e-05
 231    2.5654986808157e-05
 232    1.5784216050695e-05
 233    -7.5274792172063e-06
 234    -8.8856691256492e-06
 235    0.00020716838525874
 236    -5.3897679093785e-05
 237    0.0003692520249284
 238    -2.0510107925943e-05
 239    1.4841234846433e-05
 240    9.7982409598577e-06
 241    -0.00019270206053759
 242    1.558376793019e-05
 243    0.00017159719538955
 244    -2.4698718984521e-06
 245    -1.0150407081047e-05
 246    4.8152795388128e-06
 247    2.0284427686584e-06
 248    -7.2367340613274e-06
 249    -6.9939086040394e-05
 250    -3.731638829931e-05
 251    -1.7021237378685e-05
 252    2.476630817875e-05
 253    -9.814172760279e-06
 254    -7.0347322264932e-05
 255    -2.6626267893988e-05
 256    -2.7248655665367e-05
 257    6.5702429952475e-06
 258    -1.4289135085155e-05
 259    -8.4023832893628e-05
 260    -3.8762669923329e-05
 261    0.00030858899284805
 262    -3.7947795750226e-06
 263    3.188041074091e-06