[Molden Format]
made by pyscf v[2.0.1]
[Atoms] (AU)
O   1   8     0.00000000000000     0.00000000000000    10.94175058546756
H   2   1     0.00000000000000     0.00000000000000     9.11834876356659
H   3   1    -0.05031916615174     1.78353065140343    11.31762228193423
O   4   8     0.00000000000000     0.00000000000000     2.31533471513237
C   5   6     0.00000000000000     0.00000000000000     0.00000000000000
C   6   6     2.01118073026938    -1.40227222164369    -1.50774939176400
C   7   6    -2.01249334291722     1.41331050329955    -1.50315905028694
H   8   1     3.32037363730244    -2.26721897153159    -0.13599698591495
C   9   6     3.45899267434009     0.28739631745591    -3.37437943254505
H   10   1     1.07662969841332    -2.94725144642667    -2.56541439481080
H   11   1    -2.67503415753480     0.18421555839588    -3.06194479365997
H   12   1    -1.07974048864772     3.03851734677796    -2.43674295017013
C   13   6    -4.21607110578555     2.32938802552922     0.11994162256091
H   14   1     4.24440173074564     1.93368664142019    -2.34976285512790
H   15   1     2.15020713235517     1.04714335134846    -4.81494497423699
C   16   6     5.60746363007797    -1.12419643481196    -4.70268606082550
H   17   1    -3.46838323670267     3.50951302338067     1.66946842715333
H   18   1    -5.11873485366228     0.68575958301209     1.04047743976495
C   19   6    -6.18314754751344     3.80909592987882    -1.39656589068747
H   20   1     6.93011263717176    -1.87550812453645    -3.26656317360070
C   21   6     7.06356622236532     0.52877932406334    -6.57829775293605
H   22   1     4.82318879258361    -2.78573437948532    -5.70504560381835
H   23   1    -6.91582688743803     2.61304780074712    -2.95074552451969
H   24   1    -5.26532430573853     5.45420349051338    -2.31005832200284
C   25   6    -8.39941882261433     4.73263980500213     0.21800571437956
H   26   1     7.83338371486801     2.19084139882824    -5.57093109900697
H   27   1     5.73544244039420     1.27376866537418    -8.01071492370229
C   28   6     9.21124858443101    -0.89699110072176    -7.88926949186242
H   29   1    -7.66272760055236     5.92277078003992     1.77035591474408
H   30   1    -9.31497248082589     3.08753015622020     1.12614408368786
C   31   6   -10.35481709231879     6.21833079391143    -1.30905206253246
H   32   1    10.58815905329501    -1.61074586756696    -6.49512691622620
H   33   1    10.23506248045667     0.32468009384095    -9.23072870921204
H   34   1     8.47665842847139    -2.53598436989925    -8.94921964622535
H   35   1    -9.48948872868064     7.90013588951020    -2.18823918416067
H   36   1   -11.93332513000955     6.86460487874102    -0.11255798845995
H   37   1   -11.15126291841033     5.04495968327630    -2.83849898862534
[GTO]
1 0
 s    8 1.00
                 11720  0.00070964594651845
                  1759  0.0054672722921914
                 400.8   0.027823118610189
                 113.7    0.10474773971146
                 37.03    0.28292084635691
                 13.27    0.44849523869833
                 5.025    0.27081688521277
                 1.013    0.01545029160744
 s    8 1.00
                 11720  -0.00031444341168873
                  1759  -0.0024821376810179
                 400.8  -0.012316355381583
                 113.7  -0.050538917343672
                 37.03   -0.13938490331632
                 13.27   -0.32507749481778
                 5.025   -0.22984830758785
                 1.013     1.0953793467883
 s    1 1.00
                0.3023                   1
 p    3 1.00
                  17.7   0.062679166281506
                 3.854    0.33353656587936
                 1.046    0.74123964163973
 p    1 1.00
                0.2753                   1
 d    1 1.00
                 1.185                   1

2 0
 s    3 1.00
                 13.01   0.033498726389998
                 1.962    0.23480080117413
                0.4446     0.8136829578829
 s    1 1.00
                 0.122                   1
 p    1 1.00
                 0.727                   1

3 0
 s    3 1.00
                 13.01   0.033498726389998
                 1.962    0.23480080117413
                0.4446     0.8136829578829
 s    1 1.00
                 0.122                   1
 p    1 1.00
                 0.727                   1

4 0
 s    8 1.00
                 11720  0.00070964594651845
                  1759  0.0054672722921914
                 400.8   0.027823118610189
                 113.7    0.10474773971146
                 37.03    0.28292084635691
                 13.27    0.44849523869833
                 5.025    0.27081688521277
                 1.013    0.01545029160744
 s    8 1.00
                 11720  -0.00031444341168873
                  1759  -0.0024821376810179
                 400.8  -0.012316355381583
                 113.7  -0.050538917343672
                 37.03   -0.13938490331632
                 13.27   -0.32507749481778
                 5.025   -0.22984830758785
                 1.013     1.0953793467883
 s    1 1.00
                0.3023                   1
 p    3 1.00
                  17.7   0.062679166281506
                 3.854    0.33353656587936
                 1.046    0.74123964163973
 p    1 1.00
                0.2753                   1
 d    1 1.00
                 1.185                   1

5 0
 s    8 1.00
                  6665  0.00069158396281299
                  1000  0.0053257961529341
                   228   0.027060721042034
                 64.71    0.10165684614077
                 21.06     0.2745748236174
                 7.495    0.44829431892377
                 2.797    0.28490261071525
                0.5215   0.015194859206082
 s    8 1.00
                  6665  -0.00029326965268655
                  1000  -0.0023180354739745
                   228  -0.011499786038565
                 64.71  -0.046826727009787
                 21.06   -0.12846616875047
                 7.495   -0.30126627246289
                 2.797   -0.25563070233011
                0.5215      1.093793361012
 s    1 1.00
                0.1596                   1
 p    3 1.00
                 9.439   0.056979251590039
                 2.002    0.31320721150073
                0.5456    0.76037674173753
 p    1 1.00
                0.1517                   1
 d    1 1.00
                  0.55                   1

6 0
 s    8 1.00
                  6665  0.00069158396281299
                  1000  0.0053257961529341
                   228   0.027060721042034
                 64.71    0.10165684614077
                 21.06     0.2745748236174
                 7.495    0.44829431892377
                 2.797    0.28490261071525
                0.5215   0.015194859206082
 s    8 1.00
                  6665  -0.00029326965268655
                  1000  -0.0023180354739745
                   228  -0.011499786038565
                 64.71  -0.046826727009787
                 21.06   -0.12846616875047
                 7.495   -0.30126627246289
                 2.797   -0.25563070233011
                0.5215      1.093793361012
 s    1 1.00
                0.1596                   1
 p    3 1.00
                 9.439   0.056979251590039
                 2.002    0.31320721150073
                0.5456    0.76037674173753
 p    1 1.00
                0.1517                   1
 d    1 1.00
                  0.55                   1

7 0
 s    8 1.00
                  6665  0.00069158396281299
                  1000  0.0053257961529341
                   228   0.027060721042034
                 64.71    0.10165684614077
                 21.06     0.2745748236174
                 7.495    0.44829431892377
                 2.797    0.28490261071525
                0.5215   0.015194859206082
 s    8 1.00
                  6665  -0.00029326965268655
                  1000  -0.0023180354739745
                   228  -0.011499786038565
                 64.71  -0.046826727009787
                 21.06   -0.12846616875047
                 7.495   -0.30126627246289
                 2.797   -0.25563070233011
                0.5215      1.093793361012
 s    1 1.00
                0.1596                   1
 p    3 1.00
                 9.439   0.056979251590039
                 2.002    0.31320721150073
                0.5456    0.76037674173753
 p    1 1.00
                0.1517                   1
 d    1 1.00
                  0.55                   1

8 0
 s    3 1.00
                 13.01   0.033498726389998
                 1.962    0.23480080117413
                0.4446     0.8136829578829
 s    1 1.00
                 0.122                   1
 p    1 1.00
                 0.727                   1

9 0
 s    8 1.00
                  6665  0.00069158396281299
                  1000  0.0053257961529341
                   228   0.027060721042034
                 64.71    0.10165684614077
                 21.06     0.2745748236174
                 7.495    0.44829431892377
                 2.797    0.28490261071525
                0.5215   0.015194859206082
 s    8 1.00
                  6665  -0.00029326965268655
                  1000  -0.0023180354739745
                   228  -0.011499786038565
                 64.71  -0.046826727009787
                 21.06   -0.12846616875047
                 7.495   -0.30126627246289
                 2.797   -0.25563070233011
                0.5215      1.093793361012
 s    1 1.00
                0.1596                   1
 p    3 1.00
                 9.439   0.056979251590039
                 2.002    0.31320721150073
                0.5456    0.76037674173753
 p    1 1.00
                0.1517                   1
 d    1 1.00
                  0.55                   1

10 0
 s    3 1.00
                 13.01   0.033498726389998
                 1.962    0.23480080117413
                0.4446     0.8136829578829
 s    1 1.00
                 0.122                   1
 p    1 1.00
                 0.727                   1

11 0
 s    3 1.00
                 13.01   0.033498726389998
                 1.962    0.23480080117413
                0.4446     0.8136829578829
 s    1 1.00
                 0.122                   1
 p    1 1.00
                 0.727                   1

12 0
 s    3 1.00
                 13.01   0.033498726389998
                 1.962    0.23480080117413
                0.4446     0.8136829578829
 s    1 1.00
                 0.122                   1
 p    1 1.00
                 0.727                   1

13 0
 s    8 1.00
                  6665  0.00069158396281299
                  1000  0.0053257961529341
                   228   0.027060721042034
                 64.71    0.10165684614077
                 21.06     0.2745748236174
                 7.495    0.44829431892377
                 2.797    0.28490261071525
                0.5215   0.015194859206082
 s    8 1.00
                  6665  -0.00029326965268655
                  1000  -0.0023180354739745
                   228  -0.011499786038565
                 64.71  -0.046826727009787
                 21.06   -0.12846616875047
                 7.495   -0.30126627246289
                 2.797   -0.25563070233011
                0.5215      1.093793361012
 s    1 1.00
                0.1596                   1
 p    3 1.00
                 9.439   0.056979251590039
                 2.002    0.31320721150073
                0.5456    0.76037674173753
 p    1 1.00
                0.1517                   1
 d    1 1.00
                  0.55                   1

14 0
 s    3 1.00
                 13.01   0.033498726389998
                 1.962    0.23480080117413
                0.4446     0.8136829578829
 s    1 1.00
                 0.122                   1
 p    1 1.00
                 0.727                   1

15 0
 s    3 1.00
                 13.01   0.033498726389998
                 1.962    0.23480080117413
                0.4446     0.8136829578829
 s    1 1.00
                 0.122                   1
 p    1 1.00
                 0.727                   1

16 0
 s    8 1.00
                  6665  0.00069158396281299
                  1000  0.0053257961529341
                   228   0.027060721042034
                 64.71    0.10165684614077
                 21.06     0.2745748236174
                 7.495    0.44829431892377
                 2.797    0.28490261071525
                0.5215   0.015194859206082
 s    8 1.00
                  6665  -0.00029326965268655
                  1000  -0.0023180354739745
                   228  -0.011499786038565
                 64.71  -0.046826727009787
                 21.06   -0.12846616875047
                 7.495   -0.30126627246289
                 2.797   -0.25563070233011
                0.5215      1.093793361012
 s    1 1.00
                0.1596                   1
 p    3 1.00
                 9.439   0.056979251590039
                 2.002    0.31320721150073
                0.5456    0.76037674173753
 p    1 1.00
                0.1517                   1
 d    1 1.00
                  0.55                   1

17 0
 s    3 1.00
                 13.01   0.033498726389998
                 1.962    0.23480080117413
                0.4446     0.8136829578829
 s    1 1.00
                 0.122                   1
 p    1 1.00
                 0.727                   1

18 0
 s    3 1.00
                 13.01   0.033498726389998
                 1.962    0.23480080117413
                0.4446     0.8136829578829
 s    1 1.00
                 0.122                   1
 p    1 1.00
                 0.727                   1

19 0
 s    8 1.00
                  6665  0.00069158396281299
                  1000  0.0053257961529341
                   228   0.027060721042034
                 64.71    0.10165684614077
                 21.06     0.2745748236174
                 7.495    0.44829431892377
                 2.797    0.28490261071525
                0.5215   0.015194859206082
 s    8 1.00
                  6665  -0.00029326965268655
                  1000  -0.0023180354739745
                   228  -0.011499786038565
                 64.71  -0.046826727009787
                 21.06   -0.12846616875047
                 7.495   -0.30126627246289
                 2.797   -0.25563070233011
                0.5215      1.093793361012
 s    1 1.00
                0.1596                   1
 p    3 1.00
                 9.439   0.056979251590039
                 2.002    0.31320721150073
                0.5456    0.76037674173753
 p    1 1.00
                0.1517                   1
 d    1 1.00
                  0.55                   1

20 0
 s    3 1.00
                 13.01   0.033498726389998
                 1.962    0.23480080117413
                0.4446     0.8136829578829
 s    1 1.00
                 0.122                   1
 p    1 1.00
                 0.727                   1

21 0
 s    8 1.00
                  6665  0.00069158396281299
                  1000  0.0053257961529341
                   228   0.027060721042034
                 64.71    0.10165684614077
                 21.06     0.2745748236174
                 7.495    0.44829431892377
                 2.797    0.28490261071525
                0.5215   0.015194859206082
 s    8 1.00
                  6665  -0.00029326965268655
                  1000  -0.0023180354739745
                   228  -0.011499786038565
                 64.71  -0.046826727009787
                 21.06   -0.12846616875047
                 7.495   -0.30126627246289
                 2.797   -0.25563070233011
                0.5215      1.093793361012
 s    1 1.00
                0.1596                   1
 p    3 1.00
                 9.439   0.056979251590039
                 2.002    0.31320721150073
                0.5456    0.76037674173753
 p    1 1.00
                0.1517                   1
 d    1 1.00
                  0.55                   1

22 0
 s    3 1.00
                 13.01   0.033498726389998
                 1.962    0.23480080117413
                0.4446     0.8136829578829
 s    1 1.00
                 0.122                   1
 p    1 1.00
                 0.727                   1

23 0
 s    3 1.00
                 13.01   0.033498726389998
                 1.962    0.23480080117413
                0.4446     0.8136829578829
 s    1 1.00
                 0.122                   1
 p    1 1.00
                 0.727                   1

24 0
 s    3 1.00
                 13.01   0.033498726389998
                 1.962    0.23480080117413
                0.4446     0.8136829578829
 s    1 1.00
                 0.122                   1
 p    1 1.00
                 0.727                   1

25 0
 s    8 1.00
                  6665  0.00069158396281299
                  1000  0.0053257961529341
                   228   0.027060721042034
                 64.71    0.10165684614077
                 21.06     0.2745748236174
                 7.495    0.44829431892377
                 2.797    0.28490261071525
                0.5215   0.015194859206082
 s    8 1.00
                  6665  -0.00029326965268655
                  1000  -0.0023180354739745
                   228  -0.011499786038565
                 64.71  -0.046826727009787
                 21.06   -0.12846616875047
                 7.495   -0.30126627246289
                 2.797   -0.25563070233011
                0.5215      1.093793361012
 s    1 1.00
                0.1596                   1
 p    3 1.00
                 9.439   0.056979251590039
                 2.002    0.31320721150073
                0.5456    0.76037674173753
 p    1 1.00
                0.1517                   1
 d    1 1.00
                  0.55                   1

26 0
 s    3 1.00
                 13.01   0.033498726389998
                 1.962    0.23480080117413
                0.4446     0.8136829578829
 s    1 1.00
                 0.122                   1
 p    1 1.00
                 0.727                   1

27 0
 s    3 1.00
                 13.01   0.033498726389998
                 1.962    0.23480080117413
                0.4446     0.8136829578829
 s    1 1.00
                 0.122                   1
 p    1 1.00
                 0.727                   1

28 0
 s    8 1.00
                  6665  0.00069158396281299
                  1000  0.0053257961529341
                   228   0.027060721042034
                 64.71    0.10165684614077
                 21.06     0.2745748236174
                 7.495    0.44829431892377
                 2.797    0.28490261071525
                0.5215   0.015194859206082
 s    8 1.00
                  6665  -0.00029326965268655
                  1000  -0.0023180354739745
                   228  -0.011499786038565
                 64.71  -0.046826727009787
                 21.06   -0.12846616875047
                 7.495   -0.30126627246289
                 2.797   -0.25563070233011
                0.5215      1.093793361012
 s    1 1.00
                0.1596                   1
 p    3 1.00
                 9.439   0.056979251590039
                 2.002    0.31320721150073
                0.5456    0.76037674173753
 p    1 1.00
                0.1517                   1
 d    1 1.00
                  0.55                   1

29 0
 s    3 1.00
                 13.01   0.033498726389998
                 1.962    0.23480080117413
                0.4446     0.8136829578829
 s    1 1.00
                 0.122                   1
 p    1 1.00
                 0.727                   1

30 0
 s    3 1.00
                 13.01   0.033498726389998
                 1.962    0.23480080117413
                0.4446     0.8136829578829
 s    1 1.00
                 0.122                   1
 p    1 1.00
                 0.727                   1

31 0
 s    8 1.00
                  6665  0.00069158396281299
                  1000  0.0053257961529341
                   228   0.027060721042034
                 64.71    0.10165684614077
                 21.06     0.2745748236174
                 7.495    0.44829431892377
                 2.797    0.28490261071525
                0.5215   0.015194859206082
 s    8 1.00
                  6665  -0.00029326965268655
                  1000  -0.0023180354739745
                   228  -0.011499786038565
                 64.71  -0.046826727009787
                 21.06   -0.12846616875047
                 7.495   -0.30126627246289
                 2.797   -0.25563070233011
                0.5215      1.093793361012
 s    1 1.00
                0.1596                   1
 p    3 1.00
                 9.439   0.056979251590039
                 2.002    0.31320721150073
                0.5456    0.76037674173753
 p    1 1.00
                0.1517                   1
 d    1 1.00
                  0.55                   1

32 0
 s    3 1.00
                 13.01   0.033498726389998
                 1.962    0.23480080117413
                0.4446     0.8136829578829
 s    1 1.00
                 0.122                   1
 p    1 1.00
                 0.727                   1

33 0
 s    3 1.00
                 13.01   0.033498726389998
                 1.962    0.23480080117413
                0.4446     0.8136829578829
 s    1 1.00
                 0.122                   1
 p    1 1.00
                 0.727                   1

34 0
 s    3 1.00
                 13.01   0.033498726389998
                 1.962    0.23480080117413
                0.4446     0.8136829578829
 s    1 1.00
                 0.122                   1
 p    1 1.00
                 0.727                   1

35 0
 s    3 1.00
                 13.01   0.033498726389998
                 1.962    0.23480080117413
                0.4446     0.8136829578829
 s    1 1.00
                 0.122                   1
 p    1 1.00
                 0.727                   1

36 0
 s    3 1.00
                 13.01   0.033498726389998
                 1.962    0.23480080117413
                0.4446     0.8136829578829
 s    1 1.00
                 0.122                   1
 p    1 1.00
                 0.727                   1

37 0
 s    3 1.00
                 13.01   0.033498726389998
                 1.962    0.23480080117413
                0.4446     0.8136829578829
 s    1 1.00
                 0.122                   1
 p    1 1.00
                 0.727                   1

[5d]
[7f]
[9g]

[MO]
 Sym= A
 Ene=               0
 Spin= Alpha
 Occup=    1.00000
   1    -1.0067126330382e-06
   2    -2.2480512112147e-06
   3    1.1373141525733e-05
   4    -4.0489713046701e-08
   5    2.1610564651844e-07
   6    -2.4900890517192e-07
   7    7.2318828991133e-08
   8    -2.5367106089303e-06
   9    -8.3523199920747e-06
  10    8.1915277161064e-07
  11    7.2939936175325e-09
  12    -5.3125552435541e-08
  13    4.4234397952696e-08
  14    3.1949463592868e-09
  15    -4.8972321748445e-07
  16    -2.297400411831e-05
  17    2.9048129241641e-08
  18    1.1648616426916e-07
  19    -3.2041695516355e-06
  20    -5.957586498889e-07
  21    8.3118997372489e-06
  22    3.9530856376176e-09
  23    -3.6933339580907e-07
  24    2.2670833172886e-07
  25    -0.00029248209701944
  26    -0.00040043181618452
  27    -0.00044709077731451
  28    0.00021586141478184
  29    0.00014958576879722
  30    -0.00032792658625888
  31    0.00015490768901298
  32    0.00012716136554608
  33    -0.00028985728973126
  34    1.9963971269754e-05
  35    -1.2821229359019e-05
  36    -2.4960076475948e-05
  37    3.1709189227892e-06
  38    -2.192242162934e-05
  39    0.00049981054782977
  40    -0.00044263325642122
  41    0.00070074404083815
  42    -0.0002116313290993
  43    0.00032971030527828
  44    0.00041126331429686
  45    8.9288030891431e-05
  46    -9.7309904587643e-05
  47    -0.00011247331087791
  48    -6.7297807957884e-06
  49    -2.3484929678931e-05
  50    -1.9087377715275e-05
  51    -5.9091037378362e-05
  52    0.00014070467253641
  53      0.27037345556748
  54    0.0011379033205757
  55    -0.0010205480638514
  56    0.00039023731415598
  57    -0.00024934172283219
  58    -0.00035780779025836
  59    0.00096773090091653
  60    0.00013418590311638
  61    -0.000691919740993
  62    1.5953505191695e-05
  63    0.00023123235414122
  64    0.00014745603467359
  65    1.4248988738563e-05
  66    -6.4052328695827e-05
  67      0.28725978504139
  68    0.0013964994895963
  69    -0.0031054907931575
  70    -3.2603316623618e-05
  71    2.7768081531613e-05
  72    -9.8140214391194e-05
  73    0.00087230137050135
  74    -0.00015470318331581
  75    -0.00053389966770213
  76    4.2628195886908e-05
  77    4.310647092062e-05
  78    -3.0337377952847e-05
  79    -7.2073651072639e-05
  80    9.1619332438052e-05
  81    -4.4152488103168e-05
  82    0.00039912794933489
  83    0.0001126704104509
  84    -9.466937947945e-07
  85    2.5617685308991e-05
  86      0.92116803105286
  87    0.0047680564834311
  88    -0.010445148623714
  89    -0.00019530678897481
  90    0.0001165954121675
  91    0.00011696368229509
  92    -0.00089827552544998
  93    0.0010291293494165
  94    0.0003434484516052
  95    1.4478004325821e-05
  96    0.00033374578291792
  97    6.038010674347e-05
  98    -7.2822482683447e-05
  99    4.4745882244984e-05
 100    9.4869038787153e-06
 101    0.00057271730010545
 102    -1.0392203731525e-05
 103    -3.9787627846144e-05
 104    -0.00013206956809735
 105    5.659095653013e-05
 106    0.00030027790830812
 107    -0.00013327847061202
 108    -8.8541085912241e-05
 109    -6.5904907390175e-05
 110    -1.8343307595963e-05
 111    -5.3214995751026e-05
 112    2.8785507158055e-05
 113    0.00017925654319407
 114    -3.438649220297e-05
 115    0.0027799537508515
 116    -0.00010633130213174
 117    0.0014140459621798
 118    4.5726401092724e-05
 119    -2.8457275769252e-05
 120    -2.7539667528446e-07
 121    0.00062472941931698
 122    -0.00033367012323004
 123    -0.0005318537396498
 124    -5.216488765996e-06
 125    -8.5310749346912e-06
 126    1.5565203507345e-05
 127    -2.4510989950273e-06
 128    -5.7187756508726e-06
 129    0.00017993499959671
 130    0.0012327451324058
 131    0.00019795614774494
 132    0.00024770720268518
 133    0.00022816340293457
 134    0.00016238485592076
 135    0.0011774896831435
 136    -0.00024499365837255
 137    6.0814944453772e-05
 138    -0.00029293781416486
 139     0.029433704334156
 140    -0.00010170565990648
 141    0.0029067961151099
 142    -4.4318370037367e-05
 143    3.3798193536245e-05
 144    2.8125502754799e-05
 145    -0.0012128609364431
 146    0.00077947976576825
 147    0.00075603224347664
 148    3.501046980563e-05
 149    3.8249353783135e-05
 150    -4.9559325102669e-05
 151    -1.0759528140909e-05
 152    9.1783604859817e-05
 153    -2.8678636513234e-05
 154    0.00012733932174374
 155    -8.9849386178393e-07
 156    -1.0235562687113e-05
 157    -1.3580155817187e-05
 158    -3.5093011358185e-05
 159    6.8864398198957e-05
 160    1.3129872289541e-05
 161    1.3111184333735e-05
 162    -6.2818598924069e-06
 163    0.00029223424704478
 164    -1.398601380782e-05
 165    -0.00041890159010629
 166    -5.0808102022614e-05
 167    2.8341652370144e-05
 168    2.2712012392454e-06
 169    0.00034336172493263
 170    -0.00011476854302808
 171    -0.00026732708434774
 172    7.1599841830047e-06
 173    8.6132960079723e-06
 174    -4.7733877595908e-06
 175    1.0493039774748e-06
 176    -3.5638546610686e-06
 177    -0.00012289144883555
 178    0.00014363924592505
 179    -3.0851234420486e-05
 180    3.2499453758978e-05
 181    8.7920508159449e-06
 182    -9.9893247764375e-05
 183    -9.0893392045071e-05
 184    -0.00030137099502257
 185    4.5446116465081e-05
 186    -1.0390482520011e-05
 187    -3.6288659250676e-05
 188    -0.00043213880177803
 189    0.00045948633282358
 190    0.00020033449366037
 191    -1.7154175655651e-05
 192    -1.0948150909674e-05
 193    2.1229457486628e-05
 194    -2.0549583603208e-06
 195    -3.8408911865006e-05
 196    -0.00012816855520598
 197    0.00013514229720007
 198    -2.7973371787126e-05
 199    3.1536254613524e-05
 200    1.4373970669431e-05
 201    -1.3404109387819e-05
 202    -3.2495361468283e-05
 203    -3.3782911118078e-05
 204    7.3919146435031e-06
 205    1.2635143018129e-05
 206    -2.0712133919156e-05
 207    -1.0418140811013e-06
 208    -2.5111734791984e-05
 209    1.4061336427411e-05
 210    1.7047110939817e-05
 211    -0.00026114493678715
 212    -8.3703098916115e-05
 213    0.00050744145991816
 214    8.280251583096e-06
 215    -8.4749986954802e-07
 216    -1.2761859251788e-05
 217    0.00037712226132224
 218    -0.00022838924444657
 219    -4.5928177004367e-05
 220    -4.6328884211094e-06
 221    -2.1710565734548e-05
 222    1.1980855182061e-05
 223    1.0875022310569e-05
 224    -1.0352211141117e-05
 225    -3.8301147055415e-05
 226    -0.00022777484044465
 227    6.2191228350965e-05
 228    -1.2973601957515e-05
 229    -1.423002377908e-05
 230    -3.6018567264422e-05
 231    -0.00022922672166305
 232    3.1514569478168e-05
 233    -2.6844999072362e-05
 234    -5.1963935800973e-05
 235    -0.00016862094714378
 236    -0.00016887153660123
 237    0.00082672803155137
 238    1.7580929018186e-05
 239    9.2775216505583e-06
 240    -1.8373740045883e-05
 241    -0.00043995589720595
 242    1.4153515627276e-05
 243    0.00037128721819432
 244    2.7222552569726e-06
 245    -2.3961630905332e-05
 246    3.5936911209986e-06
 247    1.5108187503433e-05
 248    -3.8378020921415e-06
 249    -3.7344529889745e-05
 250    -4.6624049724314e-06
 251    -8.2176226473876e-06
 252    1.0350074357793e-05
 253    -2.7631334941824e-06
 254    -4.1990933324954e-05
 255    -1.2784990446093e-05
 256    -1.2384883476682e-05
 257    3.747500256219e-06
 258    -3.340598159662e-06
 259    -4.8717527303865e-05
 260    -3.2030308780449e-05
 261    0.00016352344828662
 262    -6.422827618012e-06