[Molden Format]
made by pyscf v[2.0.1]
[Atoms] (AU)
O   1   8     0.00000000000000     0.00000000000000     8.67407923598948
H   2   1     0.00000000000000     0.00000000000000     6.85067741408852
H   3   1    -0.05031916615174     1.78353065140343     9.04995093245615
O   4   8     0.00000000000000     0.00000000000000     2.31533471513237
C   5   6     0.00000000000000     0.00000000000000     0.00000000000000
C   6   6     2.01118073026938    -1.40227222164369    -1.50774939176400
C   7   6    -2.01249334291722     1.41331050329955    -1.50315905028694
H   8   1     3.32037363730244    -2.26721897153159    -0.13599698591495
C   9   6     3.45899267434009     0.28739631745591    -3.37437943254505
H   10   1     1.07662969841332    -2.94725144642667    -2.56541439481080
H   11   1    -2.67503415753480     0.18421555839588    -3.06194479365997
H   12   1    -1.07974048864772     3.03851734677796    -2.43674295017013
C   13   6    -4.21607110578555     2.32938802552922     0.11994162256091
H   14   1     4.24440173074564     1.93368664142019    -2.34976285512790
H   15   1     2.15020713235517     1.04714335134846    -4.81494497423699
C   16   6     5.60746363007797    -1.12419643481196    -4.70268606082550
H   17   1    -3.46838323670267     3.50951302338067     1.66946842715333
H   18   1    -5.11873485366228     0.68575958301209     1.04047743976495
C   19   6    -6.18314754751344     3.80909592987882    -1.39656589068747
H   20   1     6.93011263717176    -1.87550812453645    -3.26656317360070
C   21   6     7.06356622236532     0.52877932406334    -6.57829775293605
H   22   1     4.82318879258361    -2.78573437948532    -5.70504560381835
H   23   1    -6.91582688743803     2.61304780074712    -2.95074552451969
H   24   1    -5.26532430573853     5.45420349051338    -2.31005832200284
C   25   6    -8.39941882261433     4.73263980500213     0.21800571437956
H   26   1     7.83338371486801     2.19084139882824    -5.57093109900697
H   27   1     5.73544244039420     1.27376866537418    -8.01071492370229
C   28   6     9.21124858443101    -0.89699110072176    -7.88926949186242
H   29   1    -7.66272760055236     5.92277078003992     1.77035591474408
H   30   1    -9.31497248082589     3.08753015622020     1.12614408368786
C   31   6   -10.35481709231879     6.21833079391143    -1.30905206253246
H   32   1    10.58815905329501    -1.61074586756696    -6.49512691622620
H   33   1    10.23506248045667     0.32468009384095    -9.23072870921204
H   34   1     8.47665842847139    -2.53598436989925    -8.94921964622535
H   35   1    -9.48948872868064     7.90013588951020    -2.18823918416067
H   36   1   -11.93332513000955     6.86460487874102    -0.11255798845995
H   37   1   -11.15126291841033     5.04495968327630    -2.83849898862534
[GTO]
1 0
 s    8 1.00
                 11720  0.00070964594651845
                  1759  0.0054672722921914
                 400.8   0.027823118610189
                 113.7    0.10474773971146
                 37.03    0.28292084635691
                 13.27    0.44849523869833
                 5.025    0.27081688521277
                 1.013    0.01545029160744
 s    8 1.00
                 11720  -0.00031444341168873
                  1759  -0.0024821376810179
                 400.8  -0.012316355381583
                 113.7  -0.050538917343672
                 37.03   -0.13938490331632
                 13.27   -0.32507749481778
                 5.025   -0.22984830758785
                 1.013     1.0953793467883
 s    1 1.00
                0.3023                   1
 p    3 1.00
                  17.7   0.062679166281506
                 3.854    0.33353656587936
                 1.046    0.74123964163973
 p    1 1.00
                0.2753                   1
 d    1 1.00
                 1.185                   1

2 0
 s    3 1.00
                 13.01   0.033498726389998
                 1.962    0.23480080117413
                0.4446     0.8136829578829
 s    1 1.00
                 0.122                   1
 p    1 1.00
                 0.727                   1

3 0
 s    3 1.00
                 13.01   0.033498726389998
                 1.962    0.23480080117413
                0.4446     0.8136829578829
 s    1 1.00
                 0.122                   1
 p    1 1.00
                 0.727                   1

4 0
 s    8 1.00
                 11720  0.00070964594651845
                  1759  0.0054672722921914
                 400.8   0.027823118610189
                 113.7    0.10474773971146
                 37.03    0.28292084635691
                 13.27    0.44849523869833
                 5.025    0.27081688521277
                 1.013    0.01545029160744
 s    8 1.00
                 11720  -0.00031444341168873
                  1759  -0.0024821376810179
                 400.8  -0.012316355381583
                 113.7  -0.050538917343672
                 37.03   -0.13938490331632
                 13.27   -0.32507749481778
                 5.025   -0.22984830758785
                 1.013     1.0953793467883
 s    1 1.00
                0.3023                   1
 p    3 1.00
                  17.7   0.062679166281506
                 3.854    0.33353656587936
                 1.046    0.74123964163973
 p    1 1.00
                0.2753                   1
 d    1 1.00
                 1.185                   1

5 0
 s    8 1.00
                  6665  0.00069158396281299
                  1000  0.0053257961529341
                   228   0.027060721042034
                 64.71    0.10165684614077
                 21.06     0.2745748236174
                 7.495    0.44829431892377
                 2.797    0.28490261071525
                0.5215   0.015194859206082
 s    8 1.00
                  6665  -0.00029326965268655
                  1000  -0.0023180354739745
                   228  -0.011499786038565
                 64.71  -0.046826727009787
                 21.06   -0.12846616875047
                 7.495   -0.30126627246289
                 2.797   -0.25563070233011
                0.5215      1.093793361012
 s    1 1.00
                0.1596                   1
 p    3 1.00
                 9.439   0.056979251590039
                 2.002    0.31320721150073
                0.5456    0.76037674173753
 p    1 1.00
                0.1517                   1
 d    1 1.00
                  0.55                   1

6 0
 s    8 1.00
                  6665  0.00069158396281299
                  1000  0.0053257961529341
                   228   0.027060721042034
                 64.71    0.10165684614077
                 21.06     0.2745748236174
                 7.495    0.44829431892377
                 2.797    0.28490261071525
                0.5215   0.015194859206082
 s    8 1.00
                  6665  -0.00029326965268655
                  1000  -0.0023180354739745
                   228  -0.011499786038565
                 64.71  -0.046826727009787
                 21.06   -0.12846616875047
                 7.495   -0.30126627246289
                 2.797   -0.25563070233011
                0.5215      1.093793361012
 s    1 1.00
                0.1596                   1
 p    3 1.00
                 9.439   0.056979251590039
                 2.002    0.31320721150073
                0.5456    0.76037674173753
 p    1 1.00
                0.1517                   1
 d    1 1.00
                  0.55                   1

7 0
 s    8 1.00
                  6665  0.00069158396281299
                  1000  0.0053257961529341
                   228   0.027060721042034
                 64.71    0.10165684614077
                 21.06     0.2745748236174
                 7.495    0.44829431892377
                 2.797    0.28490261071525
                0.5215   0.015194859206082
 s    8 1.00
                  6665  -0.00029326965268655
                  1000  -0.0023180354739745
                   228  -0.011499786038565
                 64.71  -0.046826727009787
                 21.06   -0.12846616875047
                 7.495   -0.30126627246289
                 2.797   -0.25563070233011
                0.5215      1.093793361012
 s    1 1.00
                0.1596                   1
 p    3 1.00
                 9.439   0.056979251590039
                 2.002    0.31320721150073
                0.5456    0.76037674173753
 p    1 1.00
                0.1517                   1
 d    1 1.00
                  0.55                   1

8 0
 s    3 1.00
                 13.01   0.033498726389998
                 1.962    0.23480080117413
                0.4446     0.8136829578829
 s    1 1.00
                 0.122                   1
 p    1 1.00
                 0.727                   1

9 0
 s    8 1.00
                  6665  0.00069158396281299
                  1000  0.0053257961529341
                   228   0.027060721042034
                 64.71    0.10165684614077
                 21.06     0.2745748236174
                 7.495    0.44829431892377
                 2.797    0.28490261071525
                0.5215   0.015194859206082
 s    8 1.00
                  6665  -0.00029326965268655
                  1000  -0.0023180354739745
                   228  -0.011499786038565
                 64.71  -0.046826727009787
                 21.06   -0.12846616875047
                 7.495   -0.30126627246289
                 2.797   -0.25563070233011
                0.5215      1.093793361012
 s    1 1.00
                0.1596                   1
 p    3 1.00
                 9.439   0.056979251590039
                 2.002    0.31320721150073
                0.5456    0.76037674173753
 p    1 1.00
                0.1517                   1
 d    1 1.00
                  0.55                   1

10 0
 s    3 1.00
                 13.01   0.033498726389998
                 1.962    0.23480080117413
                0.4446     0.8136829578829
 s    1 1.00
                 0.122                   1
 p    1 1.00
                 0.727                   1

11 0
 s    3 1.00
                 13.01   0.033498726389998
                 1.962    0.23480080117413
                0.4446     0.8136829578829
 s    1 1.00
                 0.122                   1
 p    1 1.00
                 0.727                   1

12 0
 s    3 1.00
                 13.01   0.033498726389998
                 1.962    0.23480080117413
                0.4446     0.8136829578829
 s    1 1.00
                 0.122                   1
 p    1 1.00
                 0.727                   1

13 0
 s    8 1.00
                  6665  0.00069158396281299
                  1000  0.0053257961529341
                   228   0.027060721042034
                 64.71    0.10165684614077
                 21.06     0.2745748236174
                 7.495    0.44829431892377
                 2.797    0.28490261071525
                0.5215   0.015194859206082
 s    8 1.00
                  6665  -0.00029326965268655
                  1000  -0.0023180354739745
                   228  -0.011499786038565
                 64.71  -0.046826727009787
                 21.06   -0.12846616875047
                 7.495   -0.30126627246289
                 2.797   -0.25563070233011
                0.5215      1.093793361012
 s    1 1.00
                0.1596                   1
 p    3 1.00
                 9.439   0.056979251590039
                 2.002    0.31320721150073
                0.5456    0.76037674173753
 p    1 1.00
                0.1517                   1
 d    1 1.00
                  0.55                   1

14 0
 s    3 1.00
                 13.01   0.033498726389998
                 1.962    0.23480080117413
                0.4446     0.8136829578829
 s    1 1.00
                 0.122                   1
 p    1 1.00
                 0.727                   1

15 0
 s    3 1.00
                 13.01   0.033498726389998
                 1.962    0.23480080117413
                0.4446     0.8136829578829
 s    1 1.00
                 0.122                   1
 p    1 1.00
                 0.727                   1

16 0
 s    8 1.00
                  6665  0.00069158396281299
                  1000  0.0053257961529341
                   228   0.027060721042034
                 64.71    0.10165684614077
                 21.06     0.2745748236174
                 7.495    0.44829431892377
                 2.797    0.28490261071525
                0.5215   0.015194859206082
 s    8 1.00
                  6665  -0.00029326965268655
                  1000  -0.0023180354739745
                   228  -0.011499786038565
                 64.71  -0.046826727009787
                 21.06   -0.12846616875047
                 7.495   -0.30126627246289
                 2.797   -0.25563070233011
                0.5215      1.093793361012
 s    1 1.00
                0.1596                   1
 p    3 1.00
                 9.439   0.056979251590039
                 2.002    0.31320721150073
                0.5456    0.76037674173753
 p    1 1.00
                0.1517                   1
 d    1 1.00
                  0.55                   1

17 0
 s    3 1.00
                 13.01   0.033498726389998
                 1.962    0.23480080117413
                0.4446     0.8136829578829
 s    1 1.00
                 0.122                   1
 p    1 1.00
                 0.727                   1

18 0
 s    3 1.00
                 13.01   0.033498726389998
                 1.962    0.23480080117413
                0.4446     0.8136829578829
 s    1 1.00
                 0.122                   1
 p    1 1.00
                 0.727                   1

19 0
 s    8 1.00
                  6665  0.00069158396281299
                  1000  0.0053257961529341
                   228   0.027060721042034
                 64.71    0.10165684614077
                 21.06     0.2745748236174
                 7.495    0.44829431892377
                 2.797    0.28490261071525
                0.5215   0.015194859206082
 s    8 1.00
                  6665  -0.00029326965268655
                  1000  -0.0023180354739745
                   228  -0.011499786038565
                 64.71  -0.046826727009787
                 21.06   -0.12846616875047
                 7.495   -0.30126627246289
                 2.797   -0.25563070233011
                0.5215      1.093793361012
 s    1 1.00
                0.1596                   1
 p    3 1.00
                 9.439   0.056979251590039
                 2.002    0.31320721150073
                0.5456    0.76037674173753
 p    1 1.00
                0.1517                   1
 d    1 1.00
                  0.55                   1

20 0
 s    3 1.00
                 13.01   0.033498726389998
                 1.962    0.23480080117413
                0.4446     0.8136829578829
 s    1 1.00
                 0.122                   1
 p    1 1.00
                 0.727                   1

21 0
 s    8 1.00
                  6665  0.00069158396281299
                  1000  0.0053257961529341
                   228   0.027060721042034
                 64.71    0.10165684614077
                 21.06     0.2745748236174
                 7.495    0.44829431892377
                 2.797    0.28490261071525
                0.5215   0.015194859206082
 s    8 1.00
                  6665  -0.00029326965268655
                  1000  -0.0023180354739745
                   228  -0.011499786038565
                 64.71  -0.046826727009787
                 21.06   -0.12846616875047
                 7.495   -0.30126627246289
                 2.797   -0.25563070233011
                0.5215      1.093793361012
 s    1 1.00
                0.1596                   1
 p    3 1.00
                 9.439   0.056979251590039
                 2.002    0.31320721150073
                0.5456    0.76037674173753
 p    1 1.00
                0.1517                   1
 d    1 1.00
                  0.55                   1

22 0
 s    3 1.00
                 13.01   0.033498726389998
                 1.962    0.23480080117413
                0.4446     0.8136829578829
 s    1 1.00
                 0.122                   1
 p    1 1.00
                 0.727                   1

23 0
 s    3 1.00
                 13.01   0.033498726389998
                 1.962    0.23480080117413
                0.4446     0.8136829578829
 s    1 1.00
                 0.122                   1
 p    1 1.00
                 0.727                   1

24 0
 s    3 1.00
                 13.01   0.033498726389998
                 1.962    0.23480080117413
                0.4446     0.8136829578829
 s    1 1.00
                 0.122                   1
 p    1 1.00
                 0.727                   1

25 0
 s    8 1.00
                  6665  0.00069158396281299
                  1000  0.0053257961529341
                   228   0.027060721042034
                 64.71    0.10165684614077
                 21.06     0.2745748236174
                 7.495    0.44829431892377
                 2.797    0.28490261071525
                0.5215   0.015194859206082
 s    8 1.00
                  6665  -0.00029326965268655
                  1000  -0.0023180354739745
                   228  -0.011499786038565
                 64.71  -0.046826727009787
                 21.06   -0.12846616875047
                 7.495   -0.30126627246289
                 2.797   -0.25563070233011
                0.5215      1.093793361012
 s    1 1.00
                0.1596                   1
 p    3 1.00
                 9.439   0.056979251590039
                 2.002    0.31320721150073
                0.5456    0.76037674173753
 p    1 1.00
                0.1517                   1
 d    1 1.00
                  0.55                   1

26 0
 s    3 1.00
                 13.01   0.033498726389998
                 1.962    0.23480080117413
                0.4446     0.8136829578829
 s    1 1.00
                 0.122                   1
 p    1 1.00
                 0.727                   1

27 0
 s    3 1.00
                 13.01   0.033498726389998
                 1.962    0.23480080117413
                0.4446     0.8136829578829
 s    1 1.00
                 0.122                   1
 p    1 1.00
                 0.727                   1

28 0
 s    8 1.00
                  6665  0.00069158396281299
                  1000  0.0053257961529341
                   228   0.027060721042034
                 64.71    0.10165684614077
                 21.06     0.2745748236174
                 7.495    0.44829431892377
                 2.797    0.28490261071525
                0.5215   0.015194859206082
 s    8 1.00
                  6665  -0.00029326965268655
                  1000  -0.0023180354739745
                   228  -0.011499786038565
                 64.71  -0.046826727009787
                 21.06   -0.12846616875047
                 7.495   -0.30126627246289
                 2.797   -0.25563070233011
                0.5215      1.093793361012
 s    1 1.00
                0.1596                   1
 p    3 1.00
                 9.439   0.056979251590039
                 2.002    0.31320721150073
                0.5456    0.76037674173753
 p    1 1.00
                0.1517                   1
 d    1 1.00
                  0.55                   1

29 0
 s    3 1.00
                 13.01   0.033498726389998
                 1.962    0.23480080117413
                0.4446     0.8136829578829
 s    1 1.00
                 0.122                   1
 p    1 1.00
                 0.727                   1

30 0
 s    3 1.00
                 13.01   0.033498726389998
                 1.962    0.23480080117413
                0.4446     0.8136829578829
 s    1 1.00
                 0.122                   1
 p    1 1.00
                 0.727                   1

31 0
 s    8 1.00
                  6665  0.00069158396281299
                  1000  0.0053257961529341
                   228   0.027060721042034
                 64.71    0.10165684614077
                 21.06     0.2745748236174
                 7.495    0.44829431892377
                 2.797    0.28490261071525
                0.5215   0.015194859206082
 s    8 1.00
                  6665  -0.00029326965268655
                  1000  -0.0023180354739745
                   228  -0.011499786038565
                 64.71  -0.046826727009787
                 21.06   -0.12846616875047
                 7.495   -0.30126627246289
                 2.797   -0.25563070233011
                0.5215      1.093793361012
 s    1 1.00
                0.1596                   1
 p    3 1.00
                 9.439   0.056979251590039
                 2.002    0.31320721150073
                0.5456    0.76037674173753
 p    1 1.00
                0.1517                   1
 d    1 1.00
                  0.55                   1

32 0
 s    3 1.00
                 13.01   0.033498726389998
                 1.962    0.23480080117413
                0.4446     0.8136829578829
 s    1 1.00
                 0.122                   1
 p    1 1.00
                 0.727                   1

33 0
 s    3 1.00
                 13.01   0.033498726389998
                 1.962    0.23480080117413
                0.4446     0.8136829578829
 s    1 1.00
                 0.122                   1
 p    1 1.00
                 0.727                   1

34 0
 s    3 1.00
                 13.01   0.033498726389998
                 1.962    0.23480080117413
                0.4446     0.8136829578829
 s    1 1.00
                 0.122                   1
 p    1 1.00
                 0.727                   1

35 0
 s    3 1.00
                 13.01   0.033498726389998
                 1.962    0.23480080117413
                0.4446     0.8136829578829
 s    1 1.00
                 0.122                   1
 p    1 1.00
                 0.727                   1

36 0
 s    3 1.00
                 13.01   0.033498726389998
                 1.962    0.23480080117413
                0.4446     0.8136829578829
 s    1 1.00
                 0.122                   1
 p    1 1.00
                 0.727                   1

37 0
 s    3 1.00
                 13.01   0.033498726389998
                 1.962    0.23480080117413
                0.4446     0.8136829578829
 s    1 1.00
                 0.122                   1
 p    1 1.00
                 0.727                   1

[5d]
[7f]
[9g]

[MO]
 Sym= A
 Ene=               0
 Spin= Alpha
 Occup=    1.00000
   1    6.1064332419913e-07
   2    1.109031410755e-06
   3    1.0803163411402e-05
   4    -1.4290384537375e-07
   5    6.4817319236913e-09
   6    -5.0065438156813e-07
   7    1.2827400813337e-07
   8    -1.2439877441515e-06
   9    -3.8863352511047e-06
  10    8.5710463402073e-07
  11    2.2455791476903e-07
  12    -1.7530276504036e-07
  13    6.0878868382325e-09
  14    6.2787847186315e-09
  15    1.5102200344245e-06
  16    -8.6307837785632e-06
  17    1.1915485090701e-06
  18    -7.9880535359868e-07
  19    -2.7473939744013e-06
  20    6.2670918340378e-07
  21    6.7579533549886e-07
  22    1.2397379050252e-08
  23    -2.287091129633e-07
  24    1.0371318403607e-07
  25    -0.00011303369322593
  26    -0.00027377352450216
  27    -0.00027819634610181
  28    -8.7447924706045e-05
  29    0.00022613081609993
  30    0.0001271652006285
  31    -0.0001762108206511
  32    0.00019510215712751
  33    1.7512884076665e-05
  34    -8.0663397607097e-06
  35    2.1221308660505e-05
  36    -5.38803607276e-05
  37    8.8840733652305e-07
  38    -1.3500939758778e-05
  39    -0.00037211068386086
  40    -0.00092501162314893
  41    -0.00049854079036694
  42    -0.00072805365480849
  43    0.00092578615747394
  44    0.00051709798790175
  45    0.00091469554888702
  46    -0.0006161836489786
  47    0.00020933100509752
  48    -0.00011553259939088
  49    1.4953961952913e-05
  50    -0.0001307974485647
  51    -3.4297559092132e-05
  52    7.6677584531251e-05
  53       0.2661739687692
  54    0.00067047904274045
  55    -0.0018305756607282
  56    0.0017071014917998
  57    -0.00024795654287766
  58    0.00045845324068044
  59    0.0018534615521697
  60    -7.882661115856e-05
  61    -0.00063467333550009
  62    1.5539601007636e-05
  63    0.00030775634915086
  64    5.8132754291325e-05
  65    1.0307951982258e-05
  66    -9.1933568385156e-05
  67    -0.049539958672462
  68    -0.00066523134108442
  69    0.0019176256410911
  70    0.00018264273528768
  71    0.00080533333150523
  72    0.0011729953670468
  73    0.0011325998696233
  74    0.00010767409964898
  75    0.0007824224310524
  76    1.1113162655629e-05
  77    -1.0140427177032e-05
  78    -0.00010811774978678
  79    3.3477805610385e-05
  80    -2.776775987023e-05
  81    0.00098133533022147
  82    0.00080043190484132
  83    0.00010658279595283
  84    3.4537074545967e-05
  85    -1.7940221534289e-06
  86      0.96483085657026
  87    0.0050346658724379
  88    -0.010917996971293
  89    -0.00013143432311802
  90    0.0001249642563303
  91    -7.5090758703319e-05
  92    -0.00085906931772998
  93    0.0011325210592179
  94    0.00039155678062267
  95    5.4788522622241e-05
  96    0.00036223896495939
  97    5.7367065616503e-05
  98    -8.8177318944277e-05
  99    -9.720971743416e-06
 100    -0.0011929793071607
 101    0.00014237596687381
 102    -4.4192275324289e-05
 103    -0.00011602360351456
 104    -0.00015983673171021
 105    -0.0014027995952466
 106    -0.00064684114188519
 107    -0.00010976648053501
 108    -3.2377646432905e-05
 109    -4.4212270379244e-05
 110    2.6481695005558e-05
 111    -0.00046552101154195
 112    -3.1641563683767e-05
 113    6.5501316858326e-05
 114    3.575712032723e-05
 115    -0.015122509543688
 116    -0.00010707702794989
 117    0.00015965340858122
 118    0.00036436682461208
 119    -0.00024273580616345
 120    -0.000275424457195
 121    0.00029052305016984
 122    -0.0003391416071801
 123    -0.00021041830720595
 124    -2.5825350462632e-05
 125    -5.1102578738573e-05
 126    -4.3880296125259e-06
 127    5.5662308008841e-05
 128    -2.7341609947541e-05
 129    6.4042340225736e-05
 130    0.0011333978099636
 131    0.00019523414463263
 132    0.00026655535812387
 133    0.00023015005099052
 134    0.00038034930410766
 135    0.0015608932701603
 136    -0.00025008666608246
 137    5.1770548049005e-05
 138    -0.00029405840252537
 139     0.025517394215554
 140    -0.00011264932316524
 141    0.0031060493805028
 142    -0.00023637080195122
 143    3.4175072566358e-06
 144    2.5242253378258e-05
 145    -0.0013075597212131
 146    0.00083614984147343
 147    0.00060214817189385
 148    2.6148287906948e-05
 149    4.3516629696487e-05
 150    -5.1386127948384e-05
 151    -1.0756043976249e-05
 152    9.0759938193551e-05
 153    -0.00026805567378836
 154    -0.00018067485148375
 155    -4.42602111942e-06
 156    8.1954736749642e-06
 157    4.8023295272953e-06
 158    -6.3881288141793e-05
 159    -2.5936979767949e-05
 160    4.4694677118628e-06
 161    2.1916178158482e-06
 162    -5.0586244817494e-06
 163    -0.0046647001915224
 164    -3.1600379082033e-05
 165    -6.2000813533595e-05
 166    -0.00014138177795687
 167    -1.7087389253914e-05
 168    -0.00013785194840198
 169    0.00031711937660513
 170    -0.00018281143645553
 171    -0.00013175498945764
 172    -1.108977658552e-05
 173    1.5773258965143e-05
 174    3.5667134536168e-06
 175    -3.9288071666372e-07
 176    -5.4166506227545e-06
 177    -0.00020205314519727
 178    0.00017618340490378
 179    -4.0943296081991e-05
 180    2.7895460079058e-05
 181    2.0136944147329e-05
 182    -0.00038555144040975
 183    -0.0001089806514308
 184    -0.00042828593870983
 185    0.00013072723342502
 186    2.6863009131739e-05
 187    -7.9152337826158e-05
 188    -0.00034512788334299
 189    0.00054281881043107
 190    0.00013534953412696
 191    -2.4383060300999e-05
 192    -9.2663825251635e-06
 193    3.4216774673225e-05
 194    1.9781785975917e-06
 195    -4.8185681554738e-05
 196    -5.2401709290243e-05
 197    0.00010015023102772
 198    -3.2364794738252e-05
 199    3.4402356245854e-05
 200    2.3092311760003e-05
 201    0.00010955585656736
 202    8.0116413615777e-05
 203    -1.6597319218194e-05
 204    1.7941079460696e-05
 205    1.5213258140346e-05
 206    -3.8817425297566e-05
 207    7.8526035560575e-05
 208    -2.0207747463766e-05
 209    -3.561691374421e-06
 210    5.114489789101e-06
 211    -0.00040781938870729
 212    -2.3908102369685e-05
 213    0.00035369262258253
 214    5.8343933694748e-05
 215    -1.4691189272117e-05
 216    3.7358406020461e-05
 217    0.00017447334489243
 218    -0.00010349543402931
 219    -6.0632325421998e-05
 220    5.2561763351617e-06
 221    -2.0211558197757e-05
 222    1.5675256967868e-05
 223    1.1889527589312e-06
 224    -3.7885269060762e-06
 225    -1.3859402423188e-06
 226    -0.0002268730448839
 227    6.5300150135008e-05
 228    -1.4380583231584e-05
 229    -1.481336662519e-05
 230    -6.261472303194e-05
 231    -0.0002886949155792
 232    3.1066822797458e-05
 233    -2.479504395502e-05
 234    -5.932903781149e-05
 235    -0.00025900162088022
 236    -0.0001507578128059
 237    0.0008450459512544
 238    -1.8420794252342e-05
 239    1.9249775926938e-05
 240    1.754723226192e-05
 241    -0.00046267888879134
 242    1.9698418492301e-05
 243    0.00039738454491744
 244    2.443734413816e-06
 245    -2.1818856130786e-05
 246    7.0651430979399e-06
 247    1.464249139579e-05
 248    -6.6205416280852e-06
 249    4.5168471476833e-05
 250    5.0579072176828e-05
 251    -3.194160407589e-06
 252    -9.7081693679554e-07
 253    -1.871302111899e-06
 254    -5.5994905612663e-06
 255    -8.2078240588981e-06
 256    -1.1209871726828e-06
 257    2.8204093754442e-06
 258    3.0041869817344e-06
 259    -0.0018139402913342
 260    -5.6588677345207e-05
 261    4.1339779375233e-05
 262    -4.2201090000479e-05
 263    4.0765369159026e-05