[Molden Format]
made by pyscf v[2.0.1]
[Atoms] (AU)
O   1   8     0.00000000000000     0.00000000000000     6.78435311142442
H   2   1     0.00000000000000     0.00000000000000     4.96095128952346
H   3   1    -0.05031916615174     1.78353065140343     7.16022480789109
O   4   8     0.00000000000000     0.00000000000000     2.31533471513237
C   5   6     0.00000000000000     0.00000000000000     0.00000000000000
C   6   6     2.01118073026938    -1.40227222164369    -1.50774939176400
C   7   6    -2.01249334291722     1.41331050329955    -1.50315905028694
H   8   1     3.32037363730244    -2.26721897153159    -0.13599698591495
C   9   6     3.45899267434009     0.28739631745591    -3.37437943254505
H   10   1     1.07662969841332    -2.94725144642667    -2.56541439481080
H   11   1    -2.67503415753480     0.18421555839588    -3.06194479365997
H   12   1    -1.07974048864772     3.03851734677796    -2.43674295017013
C   13   6    -4.21607110578555     2.32938802552922     0.11994162256091
H   14   1     4.24440173074564     1.93368664142019    -2.34976285512790
H   15   1     2.15020713235517     1.04714335134846    -4.81494497423699
C   16   6     5.60746363007797    -1.12419643481196    -4.70268606082550
H   17   1    -3.46838323670267     3.50951302338067     1.66946842715333
H   18   1    -5.11873485366228     0.68575958301209     1.04047743976495
C   19   6    -6.18314754751344     3.80909592987882    -1.39656589068747
H   20   1     6.93011263717176    -1.87550812453645    -3.26656317360070
C   21   6     7.06356622236532     0.52877932406334    -6.57829775293605
H   22   1     4.82318879258361    -2.78573437948532    -5.70504560381835
H   23   1    -6.91582688743803     2.61304780074712    -2.95074552451969
H   24   1    -5.26532430573853     5.45420349051338    -2.31005832200284
C   25   6    -8.39941882261433     4.73263980500213     0.21800571437956
H   26   1     7.83338371486801     2.19084139882824    -5.57093109900697
H   27   1     5.73544244039420     1.27376866537418    -8.01071492370229
C   28   6     9.21124858443101    -0.89699110072176    -7.88926949186242
H   29   1    -7.66272760055236     5.92277078003992     1.77035591474408
H   30   1    -9.31497248082589     3.08753015622020     1.12614408368786
C   31   6   -10.35481709231879     6.21833079391143    -1.30905206253246
H   32   1    10.58815905329501    -1.61074586756696    -6.49512691622620
H   33   1    10.23506248045667     0.32468009384095    -9.23072870921204
H   34   1     8.47665842847139    -2.53598436989925    -8.94921964622535
H   35   1    -9.48948872868064     7.90013588951020    -2.18823918416067
H   36   1   -11.93332513000955     6.86460487874102    -0.11255798845995
H   37   1   -11.15126291841033     5.04495968327630    -2.83849898862534
[GTO]
1 0
 s    8 1.00
                 11720  0.00070964594651845
                  1759  0.0054672722921914
                 400.8   0.027823118610189
                 113.7    0.10474773971146
                 37.03    0.28292084635691
                 13.27    0.44849523869833
                 5.025    0.27081688521277
                 1.013    0.01545029160744
 s    8 1.00
                 11720  -0.00031444341168873
                  1759  -0.0024821376810179
                 400.8  -0.012316355381583
                 113.7  -0.050538917343672
                 37.03   -0.13938490331632
                 13.27   -0.32507749481778
                 5.025   -0.22984830758785
                 1.013     1.0953793467883
 s    1 1.00
                0.3023                   1
 p    3 1.00
                  17.7   0.062679166281506
                 3.854    0.33353656587936
                 1.046    0.74123964163973
 p    1 1.00
                0.2753                   1
 d    1 1.00
                 1.185                   1

2 0
 s    3 1.00
                 13.01   0.033498726389998
                 1.962    0.23480080117413
                0.4446     0.8136829578829
 s    1 1.00
                 0.122                   1
 p    1 1.00
                 0.727                   1

3 0
 s    3 1.00
                 13.01   0.033498726389998
                 1.962    0.23480080117413
                0.4446     0.8136829578829
 s    1 1.00
                 0.122                   1
 p    1 1.00
                 0.727                   1

4 0
 s    8 1.00
                 11720  0.00070964594651845
                  1759  0.0054672722921914
                 400.8   0.027823118610189
                 113.7    0.10474773971146
                 37.03    0.28292084635691
                 13.27    0.44849523869833
                 5.025    0.27081688521277
                 1.013    0.01545029160744
 s    8 1.00
                 11720  -0.00031444341168873
                  1759  -0.0024821376810179
                 400.8  -0.012316355381583
                 113.7  -0.050538917343672
                 37.03   -0.13938490331632
                 13.27   -0.32507749481778
                 5.025   -0.22984830758785
                 1.013     1.0953793467883
 s    1 1.00
                0.3023                   1
 p    3 1.00
                  17.7   0.062679166281506
                 3.854    0.33353656587936
                 1.046    0.74123964163973
 p    1 1.00
                0.2753                   1
 d    1 1.00
                 1.185                   1

5 0
 s    8 1.00
                  6665  0.00069158396281299
                  1000  0.0053257961529341
                   228   0.027060721042034
                 64.71    0.10165684614077
                 21.06     0.2745748236174
                 7.495    0.44829431892377
                 2.797    0.28490261071525
                0.5215   0.015194859206082
 s    8 1.00
                  6665  -0.00029326965268655
                  1000  -0.0023180354739745
                   228  -0.011499786038565
                 64.71  -0.046826727009787
                 21.06   -0.12846616875047
                 7.495   -0.30126627246289
                 2.797   -0.25563070233011
                0.5215      1.093793361012
 s    1 1.00
                0.1596                   1
 p    3 1.00
                 9.439   0.056979251590039
                 2.002    0.31320721150073
                0.5456    0.76037674173753
 p    1 1.00
                0.1517                   1
 d    1 1.00
                  0.55                   1

6 0
 s    8 1.00
                  6665  0.00069158396281299
                  1000  0.0053257961529341
                   228   0.027060721042034
                 64.71    0.10165684614077
                 21.06     0.2745748236174
                 7.495    0.44829431892377
                 2.797    0.28490261071525
                0.5215   0.015194859206082
 s    8 1.00
                  6665  -0.00029326965268655
                  1000  -0.0023180354739745
                   228  -0.011499786038565
                 64.71  -0.046826727009787
                 21.06   -0.12846616875047
                 7.495   -0.30126627246289
                 2.797   -0.25563070233011
                0.5215      1.093793361012
 s    1 1.00
                0.1596                   1
 p    3 1.00
                 9.439   0.056979251590039
                 2.002    0.31320721150073
                0.5456    0.76037674173753
 p    1 1.00
                0.1517                   1
 d    1 1.00
                  0.55                   1

7 0
 s    8 1.00
                  6665  0.00069158396281299
                  1000  0.0053257961529341
                   228   0.027060721042034
                 64.71    0.10165684614077
                 21.06     0.2745748236174
                 7.495    0.44829431892377
                 2.797    0.28490261071525
                0.5215   0.015194859206082
 s    8 1.00
                  6665  -0.00029326965268655
                  1000  -0.0023180354739745
                   228  -0.011499786038565
                 64.71  -0.046826727009787
                 21.06   -0.12846616875047
                 7.495   -0.30126627246289
                 2.797   -0.25563070233011
                0.5215      1.093793361012
 s    1 1.00
                0.1596                   1
 p    3 1.00
                 9.439   0.056979251590039
                 2.002    0.31320721150073
                0.5456    0.76037674173753
 p    1 1.00
                0.1517                   1
 d    1 1.00
                  0.55                   1

8 0
 s    3 1.00
                 13.01   0.033498726389998
                 1.962    0.23480080117413
                0.4446     0.8136829578829
 s    1 1.00
                 0.122                   1
 p    1 1.00
                 0.727                   1

9 0
 s    8 1.00
                  6665  0.00069158396281299
                  1000  0.0053257961529341
                   228   0.027060721042034
                 64.71    0.10165684614077
                 21.06     0.2745748236174
                 7.495    0.44829431892377
                 2.797    0.28490261071525
                0.5215   0.015194859206082
 s    8 1.00
                  6665  -0.00029326965268655
                  1000  -0.0023180354739745
                   228  -0.011499786038565
                 64.71  -0.046826727009787
                 21.06   -0.12846616875047
                 7.495   -0.30126627246289
                 2.797   -0.25563070233011
                0.5215      1.093793361012
 s    1 1.00
                0.1596                   1
 p    3 1.00
                 9.439   0.056979251590039
                 2.002    0.31320721150073
                0.5456    0.76037674173753
 p    1 1.00
                0.1517                   1
 d    1 1.00
                  0.55                   1

10 0
 s    3 1.00
                 13.01   0.033498726389998
                 1.962    0.23480080117413
                0.4446     0.8136829578829
 s    1 1.00
                 0.122                   1
 p    1 1.00
                 0.727                   1

11 0
 s    3 1.00
                 13.01   0.033498726389998
                 1.962    0.23480080117413
                0.4446     0.8136829578829
 s    1 1.00
                 0.122                   1
 p    1 1.00
                 0.727                   1

12 0
 s    3 1.00
                 13.01   0.033498726389998
                 1.962    0.23480080117413
                0.4446     0.8136829578829
 s    1 1.00
                 0.122                   1
 p    1 1.00
                 0.727                   1

13 0
 s    8 1.00
                  6665  0.00069158396281299
                  1000  0.0053257961529341
                   228   0.027060721042034
                 64.71    0.10165684614077
                 21.06     0.2745748236174
                 7.495    0.44829431892377
                 2.797    0.28490261071525
                0.5215   0.015194859206082
 s    8 1.00
                  6665  -0.00029326965268655
                  1000  -0.0023180354739745
                   228  -0.011499786038565
                 64.71  -0.046826727009787
                 21.06   -0.12846616875047
                 7.495   -0.30126627246289
                 2.797   -0.25563070233011
                0.5215      1.093793361012
 s    1 1.00
                0.1596                   1
 p    3 1.00
                 9.439   0.056979251590039
                 2.002    0.31320721150073
                0.5456    0.76037674173753
 p    1 1.00
                0.1517                   1
 d    1 1.00
                  0.55                   1

14 0
 s    3 1.00
                 13.01   0.033498726389998
                 1.962    0.23480080117413
                0.4446     0.8136829578829
 s    1 1.00
                 0.122                   1
 p    1 1.00
                 0.727                   1

15 0
 s    3 1.00
                 13.01   0.033498726389998
                 1.962    0.23480080117413
                0.4446     0.8136829578829
 s    1 1.00
                 0.122                   1
 p    1 1.00
                 0.727                   1

16 0
 s    8 1.00
                  6665  0.00069158396281299
                  1000  0.0053257961529341
                   228   0.027060721042034
                 64.71    0.10165684614077
                 21.06     0.2745748236174
                 7.495    0.44829431892377
                 2.797    0.28490261071525
                0.5215   0.015194859206082
 s    8 1.00
                  6665  -0.00029326965268655
                  1000  -0.0023180354739745
                   228  -0.011499786038565
                 64.71  -0.046826727009787
                 21.06   -0.12846616875047
                 7.495   -0.30126627246289
                 2.797   -0.25563070233011
                0.5215      1.093793361012
 s    1 1.00
                0.1596                   1
 p    3 1.00
                 9.439   0.056979251590039
                 2.002    0.31320721150073
                0.5456    0.76037674173753
 p    1 1.00
                0.1517                   1
 d    1 1.00
                  0.55                   1

17 0
 s    3 1.00
                 13.01   0.033498726389998
                 1.962    0.23480080117413
                0.4446     0.8136829578829
 s    1 1.00
                 0.122                   1
 p    1 1.00
                 0.727                   1

18 0
 s    3 1.00
                 13.01   0.033498726389998
                 1.962    0.23480080117413
                0.4446     0.8136829578829
 s    1 1.00
                 0.122                   1
 p    1 1.00
                 0.727                   1

19 0
 s    8 1.00
                  6665  0.00069158396281299
                  1000  0.0053257961529341
                   228   0.027060721042034
                 64.71    0.10165684614077
                 21.06     0.2745748236174
                 7.495    0.44829431892377
                 2.797    0.28490261071525
                0.5215   0.015194859206082
 s    8 1.00
                  6665  -0.00029326965268655
                  1000  -0.0023180354739745
                   228  -0.011499786038565
                 64.71  -0.046826727009787
                 21.06   -0.12846616875047
                 7.495   -0.30126627246289
                 2.797   -0.25563070233011
                0.5215      1.093793361012
 s    1 1.00
                0.1596                   1
 p    3 1.00
                 9.439   0.056979251590039
                 2.002    0.31320721150073
                0.5456    0.76037674173753
 p    1 1.00
                0.1517                   1
 d    1 1.00
                  0.55                   1

20 0
 s    3 1.00
                 13.01   0.033498726389998
                 1.962    0.23480080117413
                0.4446     0.8136829578829
 s    1 1.00
                 0.122                   1
 p    1 1.00
                 0.727                   1

21 0
 s    8 1.00
                  6665  0.00069158396281299
                  1000  0.0053257961529341
                   228   0.027060721042034
                 64.71    0.10165684614077
                 21.06     0.2745748236174
                 7.495    0.44829431892377
                 2.797    0.28490261071525
                0.5215   0.015194859206082
 s    8 1.00
                  6665  -0.00029326965268655
                  1000  -0.0023180354739745
                   228  -0.011499786038565
                 64.71  -0.046826727009787
                 21.06   -0.12846616875047
                 7.495   -0.30126627246289
                 2.797   -0.25563070233011
                0.5215      1.093793361012
 s    1 1.00
                0.1596                   1
 p    3 1.00
                 9.439   0.056979251590039
                 2.002    0.31320721150073
                0.5456    0.76037674173753
 p    1 1.00
                0.1517                   1
 d    1 1.00
                  0.55                   1

22 0
 s    3 1.00
                 13.01   0.033498726389998
                 1.962    0.23480080117413
                0.4446     0.8136829578829
 s    1 1.00
                 0.122                   1
 p    1 1.00
                 0.727                   1

23 0
 s    3 1.00
                 13.01   0.033498726389998
                 1.962    0.23480080117413
                0.4446     0.8136829578829
 s    1 1.00
                 0.122                   1
 p    1 1.00
                 0.727                   1

24 0
 s    3 1.00
                 13.01   0.033498726389998
                 1.962    0.23480080117413
                0.4446     0.8136829578829
 s    1 1.00
                 0.122                   1
 p    1 1.00
                 0.727                   1

25 0
 s    8 1.00
                  6665  0.00069158396281299
                  1000  0.0053257961529341
                   228   0.027060721042034
                 64.71    0.10165684614077
                 21.06     0.2745748236174
                 7.495    0.44829431892377
                 2.797    0.28490261071525
                0.5215   0.015194859206082
 s    8 1.00
                  6665  -0.00029326965268655
                  1000  -0.0023180354739745
                   228  -0.011499786038565
                 64.71  -0.046826727009787
                 21.06   -0.12846616875047
                 7.495   -0.30126627246289
                 2.797   -0.25563070233011
                0.5215      1.093793361012
 s    1 1.00
                0.1596                   1
 p    3 1.00
                 9.439   0.056979251590039
                 2.002    0.31320721150073
                0.5456    0.76037674173753
 p    1 1.00
                0.1517                   1
 d    1 1.00
                  0.55                   1

26 0
 s    3 1.00
                 13.01   0.033498726389998
                 1.962    0.23480080117413
                0.4446     0.8136829578829
 s    1 1.00
                 0.122                   1
 p    1 1.00
                 0.727                   1

27 0
 s    3 1.00
                 13.01   0.033498726389998
                 1.962    0.23480080117413
                0.4446     0.8136829578829
 s    1 1.00
                 0.122                   1
 p    1 1.00
                 0.727                   1

28 0
 s    8 1.00
                  6665  0.00069158396281299
                  1000  0.0053257961529341
                   228   0.027060721042034
                 64.71    0.10165684614077
                 21.06     0.2745748236174
                 7.495    0.44829431892377
                 2.797    0.28490261071525
                0.5215   0.015194859206082
 s    8 1.00
                  6665  -0.00029326965268655
                  1000  -0.0023180354739745
                   228  -0.011499786038565
                 64.71  -0.046826727009787
                 21.06   -0.12846616875047
                 7.495   -0.30126627246289
                 2.797   -0.25563070233011
                0.5215      1.093793361012
 s    1 1.00
                0.1596                   1
 p    3 1.00
                 9.439   0.056979251590039
                 2.002    0.31320721150073
                0.5456    0.76037674173753
 p    1 1.00
                0.1517                   1
 d    1 1.00
                  0.55                   1

29 0
 s    3 1.00
                 13.01   0.033498726389998
                 1.962    0.23480080117413
                0.4446     0.8136829578829
 s    1 1.00
                 0.122                   1
 p    1 1.00
                 0.727                   1

30 0
 s    3 1.00
                 13.01   0.033498726389998
                 1.962    0.23480080117413
                0.4446     0.8136829578829
 s    1 1.00
                 0.122                   1
 p    1 1.00
                 0.727                   1

31 0
 s    8 1.00
                  6665  0.00069158396281299
                  1000  0.0053257961529341
                   228   0.027060721042034
                 64.71    0.10165684614077
                 21.06     0.2745748236174
                 7.495    0.44829431892377
                 2.797    0.28490261071525
                0.5215   0.015194859206082
 s    8 1.00
                  6665  -0.00029326965268655
                  1000  -0.0023180354739745
                   228  -0.011499786038565
                 64.71  -0.046826727009787
                 21.06   -0.12846616875047
                 7.495   -0.30126627246289
                 2.797   -0.25563070233011
                0.5215      1.093793361012
 s    1 1.00
                0.1596                   1
 p    3 1.00
                 9.439   0.056979251590039
                 2.002    0.31320721150073
                0.5456    0.76037674173753
 p    1 1.00
                0.1517                   1
 d    1 1.00
                  0.55                   1

32 0
 s    3 1.00
                 13.01   0.033498726389998
                 1.962    0.23480080117413
                0.4446     0.8136829578829
 s    1 1.00
                 0.122                   1
 p    1 1.00
                 0.727                   1

33 0
 s    3 1.00
                 13.01   0.033498726389998
                 1.962    0.23480080117413
                0.4446     0.8136829578829
 s    1 1.00
                 0.122                   1
 p    1 1.00
                 0.727                   1

34 0
 s    3 1.00
                 13.01   0.033498726389998
                 1.962    0.23480080117413
                0.4446     0.8136829578829
 s    1 1.00
                 0.122                   1
 p    1 1.00
                 0.727                   1

35 0
 s    3 1.00
                 13.01   0.033498726389998
                 1.962    0.23480080117413
                0.4446     0.8136829578829
 s    1 1.00
                 0.122                   1
 p    1 1.00
                 0.727                   1

36 0
 s    3 1.00
                 13.01   0.033498726389998
                 1.962    0.23480080117413
                0.4446     0.8136829578829
 s    1 1.00
                 0.122                   1
 p    1 1.00
                 0.727                   1

37 0
 s    3 1.00
                 13.01   0.033498726389998
                 1.962    0.23480080117413
                0.4446     0.8136829578829
 s    1 1.00
                 0.122                   1
 p    1 1.00
                 0.727                   1

[5d]
[7f]
[9g]

[MO]
 Sym= A
 Ene=               0
 Spin= Alpha
 Occup=    1.00000
   1    -2.2070210728711e-06
   2    -2.5337928573322e-06
   3    5.8687034494911e-05
   4    1.358103679834e-05
   5    -6.7765366764221e-06
   6    2.4315726166599e-06
   7    9.9836099024583e-06
   8    -1.4751427086818e-05
   9    -2.2114757254181e-05
  10    1.1414384047602e-07
  11    5.6650616559335e-06
  12    -3.5414711937859e-06
  13    1.0039846486123e-06
  14    2.8599819718754e-07
  15    -3.2174562129107e-05
  16    -8.6064762873085e-05
  17    2.6309292823812e-05
  18    -1.6642009865101e-05
  19    7.4403931857721e-06
  20    -2.77832123863e-06
  21    1.331728387208e-05
  22    1.1116494265359e-06
  23    -1.8827257465541e-06
  24    -1.9220155362106e-06
  25    -5.2158882953708e-05
  26    -0.00016227290819026
  27    -7.0308780424885e-05
  28    -0.0004831366476723
  29    0.00048878678101649
  30    4.7215203251471e-05
  31    -0.00053104041036242
  32    0.00041785363965898
  33    -2.2411741131189e-06
  34    -2.039933474682e-05
  35    7.3276524174988e-05
  36    -8.5346167711299e-05
  37    7.9008075506429e-08
  38    -4.4986231642306e-06
  39    -0.00050784103818792
  40    -0.001042693869023
  41    -0.00075842235058198
  42    -0.0016117877531716
  43    0.0015452405485698
  44    0.00037587970148892
  45    0.0017328055915485
  46    -0.0010947402684594
  47    0.00029260405301556
  48    8.3023910696077e-05
  49    0.00013817438058481
  50    -0.00019817943170438
  51    -4.5923073447433e-05
  52    0.00013747790973689
  53      0.46750888484809
  54    0.0021957762014703
  55    -0.0053227970125398
  56    0.0013951083108047
  57    -5.3336272021809e-05
  58    -0.0020406792256995
  59     0.001894821917856
  60    -0.0006242055508298
  61    -0.001903811974381
  62    -2.2851825428166e-05
  63    0.00033298046585981
  64    3.6774295483557e-05
  65    -7.272093213049e-05
  66    8.9263677671274e-05
  67     -0.34903567427584
  68    -0.0015100275256623
  69    0.0066108872625338
  70     0.001350822222129
  71    -4.6746136359413e-05
  72    -0.00060238487577864
  73    0.0019349930057759
  74    -0.00055015871001675
  75    0.00040239087407024
  76    5.419925479762e-05
  77    0.00012094180016665
  78    -0.00012292251810417
  79    1.9478338062639e-05
  80    -5.3914350331492e-05
  81    -0.00036834524085015
  82    0.00048932095061289
  83    0.00023046600460421
  84    -4.2749243543615e-05
  85    8.3460487485847e-05
  86      0.80600324632594
  87    0.0043621314193766
  88    -0.0078564825046968
  89    -0.0010445338156677
  90    -0.00045485340647265
  91    0.0012032997547821
  92    -0.0011375471437594
  93    0.00026032808010552
  94    0.0012980832162106
  95    -8.9255704941503e-06
  96    0.00025187220762255
  97    3.1840981819369e-05
  98    -6.9282657056607e-05
  99    0.00011054279856608
 100    0.00020020532938199
 101    0.00084375564288485
 102    -8.7991720000727e-05
 103    -7.0055774357688e-05
 104    -0.00021405913534879
 105    0.00033826231559262
 106    -0.00033755979502352
 107    3.8628159207128e-05
 108    0.00014998549301123
 109    0.00012827284709848
 110    0.0009928160351654
 111    -0.00061627559299029
 112    -0.00013879076001894
 113    -0.00015909675482233
 114    7.8772683234871e-05
 115      0.01126845050128
 116    -0.00026501468403613
 117    -0.0010954258221263
 118    -0.00064262848227829
 119    0.00034495821420463
 120    0.00094604907189223
 121    -0.00052786968557433
 122    0.0001492728085016
 123    0.00076193477713663
 124    1.4307940501583e-05
 125    -3.1002883092291e-05
 126    3.1000720800709e-05
 127    3.8602510560922e-06
 128    3.3760563743839e-05
 129    5.710271784615e-05
 130    0.0011191056398458
 131    0.0001114892519992
 132    0.00020085523205727
 133    0.00022937029295976
 134    -0.00011029369573704
 135    0.0012209560028078
 136    -0.00023166916298616
 137    3.4143149471103e-05
 138    -0.00020668260067957
 139     0.049474100533493
 140    -0.00010323466724487
 141    0.0017260946930317
 142    0.00052878916923219
 143    -0.00010120560765259
 144    -0.0003488474660487
 145    -0.00047357000537181
 146    0.00048156571446531
 147    0.0001345054764116
 148    5.5848626235274e-05
 149    3.7300691167275e-05
 150    -0.00010821235270344
 151    -1.7544610627014e-05
 152    0.00015670351813698
 153    0.00045663152303623
 154    0.00016183564521574
 155    -5.6764619872966e-05
 156    1.7971047944375e-05
 157    1.2879720139996e-05
 158    0.00028477123849069
 159    0.00013232144952115
 160    -3.9228205508283e-05
 161    3.2403010177721e-05
 162    2.333517507387e-05
 163      0.10748923931264
 164    0.00060030036446905
 165    -0.00099012583461153
 166    -5.3171253250914e-05
 167    -2.5344378255091e-05
 168    -0.00013308934594541
 169    0.00053025343965203
 170    -0.00034025976203025
 171    -0.0001132574771013
 172    3.2064616574776e-05
 173    7.7595451949201e-05
 174    -2.1808683662254e-05
 175    -4.4763719719881e-05
 176    5.9517626490919e-05
 177    -8.1018685187664e-05
 178    9.4957404324651e-05
 179    -3.245475989778e-06
 180    2.705488694144e-05
 181    1.3143350470582e-05
 182    -0.0058249699834946
 183    -9.0217296214539e-06
 184    9.3002105715728e-05
 185    -0.00023598018479418
 186    -0.00015014275912844
 187    0.00023787065291243
 188    -0.00064378349088451
 189    0.0003846948815763
 190    0.00042111044939154
 191    -6.8303301602005e-06
 192    1.2995586781658e-06
 193    1.1283492106017e-06
 194    -1.0830318197525e-05
 195    -2.2380098836943e-05
 196    -0.00014241127822396
 197    3.6990056567711e-06
 198    -2.2720210878503e-05
 199    7.8225808623328e-06
 200    -8.9605031234114e-06
 201    0.00018431081957243
 202    0.00039623704689302
 203    -2.0848713995476e-05
 204    -1.4722492520694e-05
 205    -1.7037362112384e-05
 206    5.8877361964011e-05
 207    0.00040596547315934
 208    6.459224406456e-06
 209    2.2230657059494e-05
 210    -8.1412229376167e-06
 211     0.030172832334535
 212    0.0001028905606005
 213    0.00011770366527947
 214    -6.8592856633995e-05
 215    4.215488525464e-05
 216    1.112352897385e-05
 217    7.7442995006711e-05
 218    -2.792141885502e-05
 219    -0.00015027287497053
 220    7.8241168251496e-06
 221    -9.880885990216e-07
 222    9.6745651020977e-07
 223    -2.5176035161872e-06
 224    -7.8778961642544e-07
 225    -4.831047484032e-05
 226    -0.0002400299417715
 227    4.7545959936359e-05
 228    -2.2253337246311e-05
 229    -4.3906431280715e-06
 230    -1.9033304026208e-05
 231    -0.00025335098365365
 232    2.3263680293665e-05
 233    -3.3029561955249e-05
 234    -4.2060120711448e-05
 235     0.001083015541274
 236    -0.00021195121991365
 237    0.00056479699231775
 238    0.00018598655789568
 239    -5.6393282806093e-05
 240    -0.00014278342902123
 241    -0.00025149573936468
 242    5.0879698453041e-05
 243    0.00018027611451714
 244    7.5448298818494e-06
 245    -2.6796819672905e-05
 246    -9.4227963456477e-06
 247    1.6091344448702e-05
 248    9.6851811910776e-06
 249    7.7493994549325e-07
 250    8.9798894253164e-05
 251    1.0473522726253e-05
 252    2.9136705760689e-06
 253    6.7594497778452e-06
 254    -1.9985126522915e-05
 255    4.9116357665015e-05
 256    -4.1603909202993e-07
 257    -1.2061226971231e-05
 258    5.6630488068624e-06
 259     -0.01169921544209
 260    -0.00011581417381861
 261    0.00025534991453186
 262    4.3222418844451e-05
 263    -3.1242517788777e-05
 264    7.5738141436541e-05