[Molden Format]
made by pyscf v[2.0.1]
[Atoms] (AU)
O   1   8     0.00000000000000     0.00000000000000    11.31969581038057
H   2   1     0.00000000000000     0.00000000000000     9.49629398847960
H   3   1    -0.05031916615174     1.78353065140343    11.69556750684724
O   4   8     0.00000000000000     0.00000000000000     2.31533471513237
C   5   6     0.00000000000000     0.00000000000000     0.00000000000000
C   6   6     2.01118073026938    -1.40227222164369    -1.50774939176400
C   7   6    -2.01249334291722     1.41331050329955    -1.50315905028694
H   8   1     3.32037363730244    -2.26721897153159    -0.13599698591495
C   9   6     3.45899267434009     0.28739631745591    -3.37437943254505
H   10   1     1.07662969841332    -2.94725144642667    -2.56541439481080
H   11   1    -2.67503415753480     0.18421555839588    -3.06194479365997
H   12   1    -1.07974048864772     3.03851734677796    -2.43674295017013
C   13   6    -4.21607110578555     2.32938802552922     0.11994162256091
H   14   1     4.24440173074564     1.93368664142019    -2.34976285512790
H   15   1     2.15020713235517     1.04714335134846    -4.81494497423699
C   16   6     5.60746363007797    -1.12419643481196    -4.70268606082550
H   17   1    -3.46838323670267     3.50951302338067     1.66946842715333
H   18   1    -5.11873485366228     0.68575958301209     1.04047743976495
C   19   6    -6.18314754751344     3.80909592987882    -1.39656589068747
H   20   1     6.93011263717176    -1.87550812453645    -3.26656317360070
C   21   6     7.06356622236532     0.52877932406334    -6.57829775293605
H   22   1     4.82318879258361    -2.78573437948532    -5.70504560381835
H   23   1    -6.91582688743803     2.61304780074712    -2.95074552451969
H   24   1    -5.26532430573853     5.45420349051338    -2.31005832200284
C   25   6    -8.39941882261433     4.73263980500213     0.21800571437956
H   26   1     7.83338371486801     2.19084139882824    -5.57093109900697
H   27   1     5.73544244039420     1.27376866537418    -8.01071492370229
C   28   6     9.21124858443101    -0.89699110072176    -7.88926949186242
H   29   1    -7.66272760055236     5.92277078003992     1.77035591474408
H   30   1    -9.31497248082589     3.08753015622020     1.12614408368786
C   31   6   -10.35481709231879     6.21833079391143    -1.30905206253246
H   32   1    10.58815905329501    -1.61074586756696    -6.49512691622620
H   33   1    10.23506248045667     0.32468009384095    -9.23072870921204
H   34   1     8.47665842847139    -2.53598436989925    -8.94921964622535
H   35   1    -9.48948872868064     7.90013588951020    -2.18823918416067
H   36   1   -11.93332513000955     6.86460487874102    -0.11255798845995
H   37   1   -11.15126291841033     5.04495968327630    -2.83849898862534
[GTO]
1 0
 s    8 1.00
                 11720  0.00070964594651845
                  1759  0.0054672722921914
                 400.8   0.027823118610189
                 113.7    0.10474773971146
                 37.03    0.28292084635691
                 13.27    0.44849523869833
                 5.025    0.27081688521277
                 1.013    0.01545029160744
 s    8 1.00
                 11720  -0.00031444341168873
                  1759  -0.0024821376810179
                 400.8  -0.012316355381583
                 113.7  -0.050538917343672
                 37.03   -0.13938490331632
                 13.27   -0.32507749481778
                 5.025   -0.22984830758785
                 1.013     1.0953793467883
 s    1 1.00
                0.3023                   1
 p    3 1.00
                  17.7   0.062679166281506
                 3.854    0.33353656587936
                 1.046    0.74123964163973
 p    1 1.00
                0.2753                   1
 d    1 1.00
                 1.185                   1

2 0
 s    3 1.00
                 13.01   0.033498726389998
                 1.962    0.23480080117413
                0.4446     0.8136829578829
 s    1 1.00
                 0.122                   1
 p    1 1.00
                 0.727                   1

3 0
 s    3 1.00
                 13.01   0.033498726389998
                 1.962    0.23480080117413
                0.4446     0.8136829578829
 s    1 1.00
                 0.122                   1
 p    1 1.00
                 0.727                   1

4 0
 s    8 1.00
                 11720  0.00070964594651845
                  1759  0.0054672722921914
                 400.8   0.027823118610189
                 113.7    0.10474773971146
                 37.03    0.28292084635691
                 13.27    0.44849523869833
                 5.025    0.27081688521277
                 1.013    0.01545029160744
 s    8 1.00
                 11720  -0.00031444341168873
                  1759  -0.0024821376810179
                 400.8  -0.012316355381583
                 113.7  -0.050538917343672
                 37.03   -0.13938490331632
                 13.27   -0.32507749481778
                 5.025   -0.22984830758785
                 1.013     1.0953793467883
 s    1 1.00
                0.3023                   1
 p    3 1.00
                  17.7   0.062679166281506
                 3.854    0.33353656587936
                 1.046    0.74123964163973
 p    1 1.00
                0.2753                   1
 d    1 1.00
                 1.185                   1

5 0
 s    8 1.00
                  6665  0.00069158396281299
                  1000  0.0053257961529341
                   228   0.027060721042034
                 64.71    0.10165684614077
                 21.06     0.2745748236174
                 7.495    0.44829431892377
                 2.797    0.28490261071525
                0.5215   0.015194859206082
 s    8 1.00
                  6665  -0.00029326965268655
                  1000  -0.0023180354739745
                   228  -0.011499786038565
                 64.71  -0.046826727009787
                 21.06   -0.12846616875047
                 7.495   -0.30126627246289
                 2.797   -0.25563070233011
                0.5215      1.093793361012
 s    1 1.00
                0.1596                   1
 p    3 1.00
                 9.439   0.056979251590039
                 2.002    0.31320721150073
                0.5456    0.76037674173753
 p    1 1.00
                0.1517                   1
 d    1 1.00
                  0.55                   1

6 0
 s    8 1.00
                  6665  0.00069158396281299
                  1000  0.0053257961529341
                   228   0.027060721042034
                 64.71    0.10165684614077
                 21.06     0.2745748236174
                 7.495    0.44829431892377
                 2.797    0.28490261071525
                0.5215   0.015194859206082
 s    8 1.00
                  6665  -0.00029326965268655
                  1000  -0.0023180354739745
                   228  -0.011499786038565
                 64.71  -0.046826727009787
                 21.06   -0.12846616875047
                 7.495   -0.30126627246289
                 2.797   -0.25563070233011
                0.5215      1.093793361012
 s    1 1.00
                0.1596                   1
 p    3 1.00
                 9.439   0.056979251590039
                 2.002    0.31320721150073
                0.5456    0.76037674173753
 p    1 1.00
                0.1517                   1
 d    1 1.00
                  0.55                   1

7 0
 s    8 1.00
                  6665  0.00069158396281299
                  1000  0.0053257961529341
                   228   0.027060721042034
                 64.71    0.10165684614077
                 21.06     0.2745748236174
                 7.495    0.44829431892377
                 2.797    0.28490261071525
                0.5215   0.015194859206082
 s    8 1.00
                  6665  -0.00029326965268655
                  1000  -0.0023180354739745
                   228  -0.011499786038565
                 64.71  -0.046826727009787
                 21.06   -0.12846616875047
                 7.495   -0.30126627246289
                 2.797   -0.25563070233011
                0.5215      1.093793361012
 s    1 1.00
                0.1596                   1
 p    3 1.00
                 9.439   0.056979251590039
                 2.002    0.31320721150073
                0.5456    0.76037674173753
 p    1 1.00
                0.1517                   1
 d    1 1.00
                  0.55                   1

8 0
 s    3 1.00
                 13.01   0.033498726389998
                 1.962    0.23480080117413
                0.4446     0.8136829578829
 s    1 1.00
                 0.122                   1
 p    1 1.00
                 0.727                   1

9 0
 s    8 1.00
                  6665  0.00069158396281299
                  1000  0.0053257961529341
                   228   0.027060721042034
                 64.71    0.10165684614077
                 21.06     0.2745748236174
                 7.495    0.44829431892377
                 2.797    0.28490261071525
                0.5215   0.015194859206082
 s    8 1.00
                  6665  -0.00029326965268655
                  1000  -0.0023180354739745
                   228  -0.011499786038565
                 64.71  -0.046826727009787
                 21.06   -0.12846616875047
                 7.495   -0.30126627246289
                 2.797   -0.25563070233011
                0.5215      1.093793361012
 s    1 1.00
                0.1596                   1
 p    3 1.00
                 9.439   0.056979251590039
                 2.002    0.31320721150073
                0.5456    0.76037674173753
 p    1 1.00
                0.1517                   1
 d    1 1.00
                  0.55                   1

10 0
 s    3 1.00
                 13.01   0.033498726389998
                 1.962    0.23480080117413
                0.4446     0.8136829578829
 s    1 1.00
                 0.122                   1
 p    1 1.00
                 0.727                   1

11 0
 s    3 1.00
                 13.01   0.033498726389998
                 1.962    0.23480080117413
                0.4446     0.8136829578829
 s    1 1.00
                 0.122                   1
 p    1 1.00
                 0.727                   1

12 0
 s    3 1.00
                 13.01   0.033498726389998
                 1.962    0.23480080117413
                0.4446     0.8136829578829
 s    1 1.00
                 0.122                   1
 p    1 1.00
                 0.727                   1

13 0
 s    8 1.00
                  6665  0.00069158396281299
                  1000  0.0053257961529341
                   228   0.027060721042034
                 64.71    0.10165684614077
                 21.06     0.2745748236174
                 7.495    0.44829431892377
                 2.797    0.28490261071525
                0.5215   0.015194859206082
 s    8 1.00
                  6665  -0.00029326965268655
                  1000  -0.0023180354739745
                   228  -0.011499786038565
                 64.71  -0.046826727009787
                 21.06   -0.12846616875047
                 7.495   -0.30126627246289
                 2.797   -0.25563070233011
                0.5215      1.093793361012
 s    1 1.00
                0.1596                   1
 p    3 1.00
                 9.439   0.056979251590039
                 2.002    0.31320721150073
                0.5456    0.76037674173753
 p    1 1.00
                0.1517                   1
 d    1 1.00
                  0.55                   1

14 0
 s    3 1.00
                 13.01   0.033498726389998
                 1.962    0.23480080117413
                0.4446     0.8136829578829
 s    1 1.00
                 0.122                   1
 p    1 1.00
                 0.727                   1

15 0
 s    3 1.00
                 13.01   0.033498726389998
                 1.962    0.23480080117413
                0.4446     0.8136829578829
 s    1 1.00
                 0.122                   1
 p    1 1.00
                 0.727                   1

16 0
 s    8 1.00
                  6665  0.00069158396281299
                  1000  0.0053257961529341
                   228   0.027060721042034
                 64.71    0.10165684614077
                 21.06     0.2745748236174
                 7.495    0.44829431892377
                 2.797    0.28490261071525
                0.5215   0.015194859206082
 s    8 1.00
                  6665  -0.00029326965268655
                  1000  -0.0023180354739745
                   228  -0.011499786038565
                 64.71  -0.046826727009787
                 21.06   -0.12846616875047
                 7.495   -0.30126627246289
                 2.797   -0.25563070233011
                0.5215      1.093793361012
 s    1 1.00
                0.1596                   1
 p    3 1.00
                 9.439   0.056979251590039
                 2.002    0.31320721150073
                0.5456    0.76037674173753
 p    1 1.00
                0.1517                   1
 d    1 1.00
                  0.55                   1

17 0
 s    3 1.00
                 13.01   0.033498726389998
                 1.962    0.23480080117413
                0.4446     0.8136829578829
 s    1 1.00
                 0.122                   1
 p    1 1.00
                 0.727                   1

18 0
 s    3 1.00
                 13.01   0.033498726389998
                 1.962    0.23480080117413
                0.4446     0.8136829578829
 s    1 1.00
                 0.122                   1
 p    1 1.00
                 0.727                   1

19 0
 s    8 1.00
                  6665  0.00069158396281299
                  1000  0.0053257961529341
                   228   0.027060721042034
                 64.71    0.10165684614077
                 21.06     0.2745748236174
                 7.495    0.44829431892377
                 2.797    0.28490261071525
                0.5215   0.015194859206082
 s    8 1.00
                  6665  -0.00029326965268655
                  1000  -0.0023180354739745
                   228  -0.011499786038565
                 64.71  -0.046826727009787
                 21.06   -0.12846616875047
                 7.495   -0.30126627246289
                 2.797   -0.25563070233011
                0.5215      1.093793361012
 s    1 1.00
                0.1596                   1
 p    3 1.00
                 9.439   0.056979251590039
                 2.002    0.31320721150073
                0.5456    0.76037674173753
 p    1 1.00
                0.1517                   1
 d    1 1.00
                  0.55                   1

20 0
 s    3 1.00
                 13.01   0.033498726389998
                 1.962    0.23480080117413
                0.4446     0.8136829578829
 s    1 1.00
                 0.122                   1
 p    1 1.00
                 0.727                   1

21 0
 s    8 1.00
                  6665  0.00069158396281299
                  1000  0.0053257961529341
                   228   0.027060721042034
                 64.71    0.10165684614077
                 21.06     0.2745748236174
                 7.495    0.44829431892377
                 2.797    0.28490261071525
                0.5215   0.015194859206082
 s    8 1.00
                  6665  -0.00029326965268655
                  1000  -0.0023180354739745
                   228  -0.011499786038565
                 64.71  -0.046826727009787
                 21.06   -0.12846616875047
                 7.495   -0.30126627246289
                 2.797   -0.25563070233011
                0.5215      1.093793361012
 s    1 1.00
                0.1596                   1
 p    3 1.00
                 9.439   0.056979251590039
                 2.002    0.31320721150073
                0.5456    0.76037674173753
 p    1 1.00
                0.1517                   1
 d    1 1.00
                  0.55                   1

22 0
 s    3 1.00
                 13.01   0.033498726389998
                 1.962    0.23480080117413
                0.4446     0.8136829578829
 s    1 1.00
                 0.122                   1
 p    1 1.00
                 0.727                   1

23 0
 s    3 1.00
                 13.01   0.033498726389998
                 1.962    0.23480080117413
                0.4446     0.8136829578829
 s    1 1.00
                 0.122                   1
 p    1 1.00
                 0.727                   1

24 0
 s    3 1.00
                 13.01   0.033498726389998
                 1.962    0.23480080117413
                0.4446     0.8136829578829
 s    1 1.00
                 0.122                   1
 p    1 1.00
                 0.727                   1

25 0
 s    8 1.00
                  6665  0.00069158396281299
                  1000  0.0053257961529341
                   228   0.027060721042034
                 64.71    0.10165684614077
                 21.06     0.2745748236174
                 7.495    0.44829431892377
                 2.797    0.28490261071525
                0.5215   0.015194859206082
 s    8 1.00
                  6665  -0.00029326965268655
                  1000  -0.0023180354739745
                   228  -0.011499786038565
                 64.71  -0.046826727009787
                 21.06   -0.12846616875047
                 7.495   -0.30126627246289
                 2.797   -0.25563070233011
                0.5215      1.093793361012
 s    1 1.00
                0.1596                   1
 p    3 1.00
                 9.439   0.056979251590039
                 2.002    0.31320721150073
                0.5456    0.76037674173753
 p    1 1.00
                0.1517                   1
 d    1 1.00
                  0.55                   1

26 0
 s    3 1.00
                 13.01   0.033498726389998
                 1.962    0.23480080117413
                0.4446     0.8136829578829
 s    1 1.00
                 0.122                   1
 p    1 1.00
                 0.727                   1

27 0
 s    3 1.00
                 13.01   0.033498726389998
                 1.962    0.23480080117413
                0.4446     0.8136829578829
 s    1 1.00
                 0.122                   1
 p    1 1.00
                 0.727                   1

28 0
 s    8 1.00
                  6665  0.00069158396281299
                  1000  0.0053257961529341
                   228   0.027060721042034
                 64.71    0.10165684614077
                 21.06     0.2745748236174
                 7.495    0.44829431892377
                 2.797    0.28490261071525
                0.5215   0.015194859206082
 s    8 1.00
                  6665  -0.00029326965268655
                  1000  -0.0023180354739745
                   228  -0.011499786038565
                 64.71  -0.046826727009787
                 21.06   -0.12846616875047
                 7.495   -0.30126627246289
                 2.797   -0.25563070233011
                0.5215      1.093793361012
 s    1 1.00
                0.1596                   1
 p    3 1.00
                 9.439   0.056979251590039
                 2.002    0.31320721150073
                0.5456    0.76037674173753
 p    1 1.00
                0.1517                   1
 d    1 1.00
                  0.55                   1

29 0
 s    3 1.00
                 13.01   0.033498726389998
                 1.962    0.23480080117413
                0.4446     0.8136829578829
 s    1 1.00
                 0.122                   1
 p    1 1.00
                 0.727                   1

30 0
 s    3 1.00
                 13.01   0.033498726389998
                 1.962    0.23480080117413
                0.4446     0.8136829578829
 s    1 1.00
                 0.122                   1
 p    1 1.00
                 0.727                   1

31 0
 s    8 1.00
                  6665  0.00069158396281299
                  1000  0.0053257961529341
                   228   0.027060721042034
                 64.71    0.10165684614077
                 21.06     0.2745748236174
                 7.495    0.44829431892377
                 2.797    0.28490261071525
                0.5215   0.015194859206082
 s    8 1.00
                  6665  -0.00029326965268655
                  1000  -0.0023180354739745
                   228  -0.011499786038565
                 64.71  -0.046826727009787
                 21.06   -0.12846616875047
                 7.495   -0.30126627246289
                 2.797   -0.25563070233011
                0.5215      1.093793361012
 s    1 1.00
                0.1596                   1
 p    3 1.00
                 9.439   0.056979251590039
                 2.002    0.31320721150073
                0.5456    0.76037674173753
 p    1 1.00
                0.1517                   1
 d    1 1.00
                  0.55                   1

32 0
 s    3 1.00
                 13.01   0.033498726389998
                 1.962    0.23480080117413
                0.4446     0.8136829578829
 s    1 1.00
                 0.122                   1
 p    1 1.00
                 0.727                   1

33 0
 s    3 1.00
                 13.01   0.033498726389998
                 1.962    0.23480080117413
                0.4446     0.8136829578829
 s    1 1.00
                 0.122                   1
 p    1 1.00
                 0.727                   1

34 0
 s    3 1.00
                 13.01   0.033498726389998
                 1.962    0.23480080117413
                0.4446     0.8136829578829
 s    1 1.00
                 0.122                   1
 p    1 1.00
                 0.727                   1

35 0
 s    3 1.00
                 13.01   0.033498726389998
                 1.962    0.23480080117413
                0.4446     0.8136829578829
 s    1 1.00
                 0.122                   1
 p    1 1.00
                 0.727                   1

36 0
 s    3 1.00
                 13.01   0.033498726389998
                 1.962    0.23480080117413
                0.4446     0.8136829578829
 s    1 1.00
                 0.122                   1
 p    1 1.00
                 0.727                   1

37 0
 s    3 1.00
                 13.01   0.033498726389998
                 1.962    0.23480080117413
                0.4446     0.8136829578829
 s    1 1.00
                 0.122                   1
 p    1 1.00
                 0.727                   1

[5d]
[7f]
[9g]

[MO]
 Sym= A
 Ene=               0
 Spin= Alpha
 Occup=    1.00000
   1    1.2415135113461e-08
   2    -8.8017376008361e-09
   3    1.3525613444491e-06
   4    -6.5400661461342e-09
   5    1.1701954627104e-08
   6    -2.597476847187e-08
   7    1.1198969688014e-08
   8    -2.2001510829837e-07
   9    -6.9041586780862e-07
  10    1.2749410782335e-07
  11    1.6892329767171e-09
  12    -5.1442593016555e-09
  13    2.0838646166742e-09
  14    4.9854086317279e-10
  15    1.3883113584835e-07
  16    -1.3627916421895e-06
  17    8.8149560416946e-09
  18    7.7890032894856e-09
  19    -4.5085656146252e-07
  20    4.9284008357061e-09
  21    3.9585460278009e-07
  22    -7.5818210129813e-10
  23    -4.2465328455643e-08
  24    2.2729282519303e-08
  25    -0.0001158101752372
  26    -0.00027141313667784
  27    -0.00026588607011791
  28    8.2311823484528e-05
  29    0.00011000024848089
  30    0.00012380823591009
  31    -1.2598858452892e-05
  32    9.6232190069705e-05
  33    -1.5583953613934e-06
  34    -8.6091072034015e-06
  35    -1.0407997678159e-06
  36    -3.842267337028e-05
  37    5.5832159802398e-07
  38    -1.4826897930969e-05
  39    -0.00044489711275136
  40    -0.0010120661422845
  41    -0.00062299378045741
  42    -0.00033229341765919
  43    0.00062149856857116
  44    0.00054782745893758
  45    0.00045570216507273
  46    -0.00036637157856206
  47    0.0002570449357249
  48    -0.0001053782564856
  49    -1.6196843897229e-05
  50    -0.00010408122150668
  51    -4.2637044728919e-05
  52    8.4000711623177e-05
  53      0.15560074840453
  54     5.91678994967e-05
  55    5.7992998456605e-05
  56    0.0014968480078694
  57    -0.00012797274274394
  58    0.00055297239278722
  59    0.0015934593218031
  60    0.00032211308542937
  61    -0.00052591063912987
  62    2.5577183016987e-05
  63    0.00024902300761931
  64    7.1375741605986e-05
  65    2.4352668281716e-05
  66    -0.0001148506574147
  67     0.050531383372303
  68    -0.00028144745103277
  69    0.00026228793160727
  70    8.1731672254507e-05
  71    0.00079494311023439
  72    0.00075272792188463
  73     0.000887141882908
  74    0.00026156203675102
  75    0.00039419563363905
  76    2.5128486290323e-05
  77    -2.9341473754662e-05
  78    -7.572841440603e-05
  79    -1.086066071852e-05
  80    3.4777813296913e-05
  81    0.00082338879354736
  82    0.00065072793951482
  83    7.2670335084837e-05
  84    4.4243469395984e-05
  85    -2.6901356059449e-05
  86      0.98858359333984
  87    0.0051769949007658
  88     -0.01171116184915
  89    -0.00010469254814082
  90    0.0001461424523418
  91    -0.00018546088176768
  92    -0.00082708528962431
  93    0.0013230789594882
  94    0.0001811619760644
  95    5.7547565366906e-05
  96    0.00036895951753968
  97    4.4402682942218e-05
  98    -9.1068214862209e-05
  99    -5.0656184653408e-06
 100    -0.0012271669248374
 101    9.3523298848446e-06
 102    -1.0241472285686e-05
 103    -8.4026904676362e-05
 104    -0.00012789877321613
 105    -0.0011366169166459
 106    -0.000379696647648
 107    -0.00012116396279199
 108    -5.9690786421652e-05
 109    -6.9251143783245e-05
 110    5.8444917179626e-05
 111    -0.00027775757301602
 112    -1.0267933407009e-06
 113    9.7066962805545e-05
 114    1.0185136914005e-05
 115    0.0068246359415534
 116    9.1601555909157e-05
 117    0.00026071675060788
 118    0.00044861358694034
 119    -0.00018452325712559
 120    0.00017154578615603
 121    0.00036618554519315
 122    -0.00033386338084254
 123    -9.8499012342788e-05
 124    -8.4719262389103e-06
 125    -2.9354721931599e-05
 126    7.6252361616302e-06
 127    2.4169232383446e-05
 128    1.7598995798486e-05
 129    5.0301385918958e-05
 130    0.0011204674904119
 131    0.00021509145837593
 132    0.00027922545049993
 133    0.0002326881265732
 134    0.00043883476287454
 135    0.0015416044161239
 136    -0.00025508325225725
 137    5.6219499412139e-05
 138    -0.00031087690082279
 139     0.030845109801116
 140    -9.6160052064243e-05
 141    0.0032924873517977
 142    -0.00028256817097633
 143    9.5201640035876e-06
 144    9.0394505882383e-05
 145    -0.0014219618785702
 146    0.00092206515317464
 147    0.00072592361177042
 148    2.5565954913051e-05
 149    4.5977961292041e-05
 150    -4.1641698118574e-05
 151    -3.758838742447e-06
 152    8.1704814400173e-05
 153    0.00016785714401178
 154    7.2810180459997e-05
 155    -6.6671104409501e-06
 156    -1.1368871486922e-05
 157    -1.4334987779424e-05
 158    8.3352127007506e-05
 159    7.1353085075722e-05
 160    1.9349885694985e-05
 161    8.2603446677284e-06
 162    7.6749528927048e-07
 163    -0.0070460151578679
 164    -0.00011443523847094
 165    -0.00016830713221073
 166    -0.00024570095390859
 167    5.1448929044944e-05
 168    -0.00032089268763778
 169    0.00021687845643117
 170    -8.8387895475211e-05
 171    -0.00025403240777092
 172    6.6055567603306e-06
 173    1.2552562287964e-05
 174    1.3782995192459e-05
 175    -2.6332663732931e-06
 176    1.5671154871756e-05
 177    -0.00019188552687797
 178    0.00021220842645347
 179    -4.5123058170617e-05
 180    2.5682400532287e-05
 181    2.2422834230842e-05
 182    -0.00036749549797914
 183    -0.00011273989727281
 184    -0.0004893133513243
 185    0.00017356712051354
 186    4.4104635745667e-05
 187    -0.00011086407205779
 188    -0.00028644644708786
 189    0.00054309163181096
 190    8.0094637851522e-05
 191    -2.6497861924372e-05
 192    -8.7380641193111e-06
 193    3.8796685545457e-05
 194    1.8344313821736e-06
 195    -5.2929643487067e-05
 196    -7.4712598225872e-05
 197    0.00014501354564952
 198    -3.5420805654768e-05
 199    3.2816295052074e-05
 200    2.7288577228342e-05
 201    0.00023157160388415
 202    0.00015497893006938
 203    -1.6030613394343e-05
 204    2.1251020252902e-05
 205    1.7987728174325e-05
 206    1.0241825891679e-05
 207    6.9987571208455e-05
 208    -2.3802971598535e-05
 209    -4.3678448762327e-06
 210    2.2298935982431e-06
 211    -0.0036078097120738
 212    -6.431492285074e-05
 213    0.00034414361217499
 214    2.8288292827314e-05
 215    -4.1613983990153e-06
 216    8.8567828469092e-05
 217    0.00018736218733395
 218    -0.00013332807560964
 219    -6.2470014386721e-06
 220    1.3286782625639e-05
 221    -2.0678560190833e-05
 222    1.8167820913899e-05
 223    -4.117532838327e-06
 224    3.5260614677369e-06
 225    7.0607468345823e-06
 226    -0.00022127982810135
 227    6.5447029305776e-05
 228    -1.3861767673591e-05
 229    -1.5896048773147e-05
 230    -6.4063828280105e-05
 231    -0.00028618581631644
 232    3.1263756873919e-05
 233    -2.3550148692683e-05
 234    -5.8936664390182e-05
 235    -0.00046228227201615
 236    -0.00015028922976156
 237    0.00086878737328573
 238    -4.6980166678398e-05
 239    2.4728893269933e-05
 240    3.2296261169899e-05
 241    -0.0004879238968009
 242    -5.7446470838497e-06
 243    0.00042566108048263
 244    2.5513907444605e-06
 245    -2.2459274928139e-05
 246    8.8125026973675e-06
 247    1.4577926658839e-05
 248    -7.0102960964558e-06
 249    7.7556190540092e-05
 250    7.1177780337061e-05
 251    -5.4937355825731e-06
 252    -1.4279379570193e-07
 253    -3.5639622956764e-06
 254    1.2312864539061e-05
 255    -9.4700829427528e-06
 256    -3.177986468279e-06
 257    5.2958135613438e-06
 258    2.1930535492956e-06
 259    -0.00017837811091578
 260    -6.4050680012485e-05
 261    1.7576533495788e-05
 262    -6.2198859444944e-05
 263    5.2573648529638e-05