[Molden Format]
made by pyscf v[2.0.1]
[Atoms] (AU)
O   1   8     0.00000000000000     0.00000000000000     7.91818878616346
H   2   1     0.00000000000000     0.00000000000000     6.09478696426249
H   3   1    -0.05031916615174     1.78353065140343     8.29406048263013
O   4   8     0.00000000000000     0.00000000000000     2.31533471513237
C   5   6     0.00000000000000     0.00000000000000     0.00000000000000
C   6   6     2.01118073026938    -1.40227222164369    -1.50774939176400
C   7   6    -2.01249334291722     1.41331050329955    -1.50315905028694
H   8   1     3.32037363730244    -2.26721897153159    -0.13599698591495
C   9   6     3.45899267434009     0.28739631745591    -3.37437943254505
H   10   1     1.07662969841332    -2.94725144642667    -2.56541439481080
H   11   1    -2.67503415753480     0.18421555839588    -3.06194479365997
H   12   1    -1.07974048864772     3.03851734677796    -2.43674295017013
C   13   6    -4.21607110578555     2.32938802552922     0.11994162256091
H   14   1     4.24440173074564     1.93368664142019    -2.34976285512790
H   15   1     2.15020713235517     1.04714335134846    -4.81494497423699
C   16   6     5.60746363007797    -1.12419643481196    -4.70268606082550
H   17   1    -3.46838323670267     3.50951302338067     1.66946842715333
H   18   1    -5.11873485366228     0.68575958301209     1.04047743976495
C   19   6    -6.18314754751344     3.80909592987882    -1.39656589068747
H   20   1     6.93011263717176    -1.87550812453645    -3.26656317360070
C   21   6     7.06356622236532     0.52877932406334    -6.57829775293605
H   22   1     4.82318879258361    -2.78573437948532    -5.70504560381835
H   23   1    -6.91582688743803     2.61304780074712    -2.95074552451969
H   24   1    -5.26532430573853     5.45420349051338    -2.31005832200284
C   25   6    -8.39941882261433     4.73263980500213     0.21800571437956
H   26   1     7.83338371486801     2.19084139882824    -5.57093109900697
H   27   1     5.73544244039420     1.27376866537418    -8.01071492370229
C   28   6     9.21124858443101    -0.89699110072176    -7.88926949186242
H   29   1    -7.66272760055236     5.92277078003992     1.77035591474408
H   30   1    -9.31497248082589     3.08753015622020     1.12614408368786
C   31   6   -10.35481709231879     6.21833079391143    -1.30905206253246
H   32   1    10.58815905329501    -1.61074586756696    -6.49512691622620
H   33   1    10.23506248045667     0.32468009384095    -9.23072870921204
H   34   1     8.47665842847139    -2.53598436989925    -8.94921964622535
H   35   1    -9.48948872868064     7.90013588951020    -2.18823918416067
H   36   1   -11.93332513000955     6.86460487874102    -0.11255798845995
H   37   1   -11.15126291841033     5.04495968327630    -2.83849898862534
[GTO]
1 0
 s    8 1.00
                 11720  0.00070964594651845
                  1759  0.0054672722921914
                 400.8   0.027823118610189
                 113.7    0.10474773971146
                 37.03    0.28292084635691
                 13.27    0.44849523869833
                 5.025    0.27081688521277
                 1.013    0.01545029160744
 s    8 1.00
                 11720  -0.00031444341168873
                  1759  -0.0024821376810179
                 400.8  -0.012316355381583
                 113.7  -0.050538917343672
                 37.03   -0.13938490331632
                 13.27   -0.32507749481778
                 5.025   -0.22984830758785
                 1.013     1.0953793467883
 s    1 1.00
                0.3023                   1
 p    3 1.00
                  17.7   0.062679166281506
                 3.854    0.33353656587936
                 1.046    0.74123964163973
 p    1 1.00
                0.2753                   1
 d    1 1.00
                 1.185                   1

2 0
 s    3 1.00
                 13.01   0.033498726389998
                 1.962    0.23480080117413
                0.4446     0.8136829578829
 s    1 1.00
                 0.122                   1
 p    1 1.00
                 0.727                   1

3 0
 s    3 1.00
                 13.01   0.033498726389998
                 1.962    0.23480080117413
                0.4446     0.8136829578829
 s    1 1.00
                 0.122                   1
 p    1 1.00
                 0.727                   1

4 0
 s    8 1.00
                 11720  0.00070964594651845
                  1759  0.0054672722921914
                 400.8   0.027823118610189
                 113.7    0.10474773971146
                 37.03    0.28292084635691
                 13.27    0.44849523869833
                 5.025    0.27081688521277
                 1.013    0.01545029160744
 s    8 1.00
                 11720  -0.00031444341168873
                  1759  -0.0024821376810179
                 400.8  -0.012316355381583
                 113.7  -0.050538917343672
                 37.03   -0.13938490331632
                 13.27   -0.32507749481778
                 5.025   -0.22984830758785
                 1.013     1.0953793467883
 s    1 1.00
                0.3023                   1
 p    3 1.00
                  17.7   0.062679166281506
                 3.854    0.33353656587936
                 1.046    0.74123964163973
 p    1 1.00
                0.2753                   1
 d    1 1.00
                 1.185                   1

5 0
 s    8 1.00
                  6665  0.00069158396281299
                  1000  0.0053257961529341
                   228   0.027060721042034
                 64.71    0.10165684614077
                 21.06     0.2745748236174
                 7.495    0.44829431892377
                 2.797    0.28490261071525
                0.5215   0.015194859206082
 s    8 1.00
                  6665  -0.00029326965268655
                  1000  -0.0023180354739745
                   228  -0.011499786038565
                 64.71  -0.046826727009787
                 21.06   -0.12846616875047
                 7.495   -0.30126627246289
                 2.797   -0.25563070233011
                0.5215      1.093793361012
 s    1 1.00
                0.1596                   1
 p    3 1.00
                 9.439   0.056979251590039
                 2.002    0.31320721150073
                0.5456    0.76037674173753
 p    1 1.00
                0.1517                   1
 d    1 1.00
                  0.55                   1

6 0
 s    8 1.00
                  6665  0.00069158396281299
                  1000  0.0053257961529341
                   228   0.027060721042034
                 64.71    0.10165684614077
                 21.06     0.2745748236174
                 7.495    0.44829431892377
                 2.797    0.28490261071525
                0.5215   0.015194859206082
 s    8 1.00
                  6665  -0.00029326965268655
                  1000  -0.0023180354739745
                   228  -0.011499786038565
                 64.71  -0.046826727009787
                 21.06   -0.12846616875047
                 7.495   -0.30126627246289
                 2.797   -0.25563070233011
                0.5215      1.093793361012
 s    1 1.00
                0.1596                   1
 p    3 1.00
                 9.439   0.056979251590039
                 2.002    0.31320721150073
                0.5456    0.76037674173753
 p    1 1.00
                0.1517                   1
 d    1 1.00
                  0.55                   1

7 0
 s    8 1.00
                  6665  0.00069158396281299
                  1000  0.0053257961529341
                   228   0.027060721042034
                 64.71    0.10165684614077
                 21.06     0.2745748236174
                 7.495    0.44829431892377
                 2.797    0.28490261071525
                0.5215   0.015194859206082
 s    8 1.00
                  6665  -0.00029326965268655
                  1000  -0.0023180354739745
                   228  -0.011499786038565
                 64.71  -0.046826727009787
                 21.06   -0.12846616875047
                 7.495   -0.30126627246289
                 2.797   -0.25563070233011
                0.5215      1.093793361012
 s    1 1.00
                0.1596                   1
 p    3 1.00
                 9.439   0.056979251590039
                 2.002    0.31320721150073
                0.5456    0.76037674173753
 p    1 1.00
                0.1517                   1
 d    1 1.00
                  0.55                   1

8 0
 s    3 1.00
                 13.01   0.033498726389998
                 1.962    0.23480080117413
                0.4446     0.8136829578829
 s    1 1.00
                 0.122                   1
 p    1 1.00
                 0.727                   1

9 0
 s    8 1.00
                  6665  0.00069158396281299
                  1000  0.0053257961529341
                   228   0.027060721042034
                 64.71    0.10165684614077
                 21.06     0.2745748236174
                 7.495    0.44829431892377
                 2.797    0.28490261071525
                0.5215   0.015194859206082
 s    8 1.00
                  6665  -0.00029326965268655
                  1000  -0.0023180354739745
                   228  -0.011499786038565
                 64.71  -0.046826727009787
                 21.06   -0.12846616875047
                 7.495   -0.30126627246289
                 2.797   -0.25563070233011
                0.5215      1.093793361012
 s    1 1.00
                0.1596                   1
 p    3 1.00
                 9.439   0.056979251590039
                 2.002    0.31320721150073
                0.5456    0.76037674173753
 p    1 1.00
                0.1517                   1
 d    1 1.00
                  0.55                   1

10 0
 s    3 1.00
                 13.01   0.033498726389998
                 1.962    0.23480080117413
                0.4446     0.8136829578829
 s    1 1.00
                 0.122                   1
 p    1 1.00
                 0.727                   1

11 0
 s    3 1.00
                 13.01   0.033498726389998
                 1.962    0.23480080117413
                0.4446     0.8136829578829
 s    1 1.00
                 0.122                   1
 p    1 1.00
                 0.727                   1

12 0
 s    3 1.00
                 13.01   0.033498726389998
                 1.962    0.23480080117413
                0.4446     0.8136829578829
 s    1 1.00
                 0.122                   1
 p    1 1.00
                 0.727                   1

13 0
 s    8 1.00
                  6665  0.00069158396281299
                  1000  0.0053257961529341
                   228   0.027060721042034
                 64.71    0.10165684614077
                 21.06     0.2745748236174
                 7.495    0.44829431892377
                 2.797    0.28490261071525
                0.5215   0.015194859206082
 s    8 1.00
                  6665  -0.00029326965268655
                  1000  -0.0023180354739745
                   228  -0.011499786038565
                 64.71  -0.046826727009787
                 21.06   -0.12846616875047
                 7.495   -0.30126627246289
                 2.797   -0.25563070233011
                0.5215      1.093793361012
 s    1 1.00
                0.1596                   1
 p    3 1.00
                 9.439   0.056979251590039
                 2.002    0.31320721150073
                0.5456    0.76037674173753
 p    1 1.00
                0.1517                   1
 d    1 1.00
                  0.55                   1

14 0
 s    3 1.00
                 13.01   0.033498726389998
                 1.962    0.23480080117413
                0.4446     0.8136829578829
 s    1 1.00
                 0.122                   1
 p    1 1.00
                 0.727                   1

15 0
 s    3 1.00
                 13.01   0.033498726389998
                 1.962    0.23480080117413
                0.4446     0.8136829578829
 s    1 1.00
                 0.122                   1
 p    1 1.00
                 0.727                   1

16 0
 s    8 1.00
                  6665  0.00069158396281299
                  1000  0.0053257961529341
                   228   0.027060721042034
                 64.71    0.10165684614077
                 21.06     0.2745748236174
                 7.495    0.44829431892377
                 2.797    0.28490261071525
                0.5215   0.015194859206082
 s    8 1.00
                  6665  -0.00029326965268655
                  1000  -0.0023180354739745
                   228  -0.011499786038565
                 64.71  -0.046826727009787
                 21.06   -0.12846616875047
                 7.495   -0.30126627246289
                 2.797   -0.25563070233011
                0.5215      1.093793361012
 s    1 1.00
                0.1596                   1
 p    3 1.00
                 9.439   0.056979251590039
                 2.002    0.31320721150073
                0.5456    0.76037674173753
 p    1 1.00
                0.1517                   1
 d    1 1.00
                  0.55                   1

17 0
 s    3 1.00
                 13.01   0.033498726389998
                 1.962    0.23480080117413
                0.4446     0.8136829578829
 s    1 1.00
                 0.122                   1
 p    1 1.00
                 0.727                   1

18 0
 s    3 1.00
                 13.01   0.033498726389998
                 1.962    0.23480080117413
                0.4446     0.8136829578829
 s    1 1.00
                 0.122                   1
 p    1 1.00
                 0.727                   1

19 0
 s    8 1.00
                  6665  0.00069158396281299
                  1000  0.0053257961529341
                   228   0.027060721042034
                 64.71    0.10165684614077
                 21.06     0.2745748236174
                 7.495    0.44829431892377
                 2.797    0.28490261071525
                0.5215   0.015194859206082
 s    8 1.00
                  6665  -0.00029326965268655
                  1000  -0.0023180354739745
                   228  -0.011499786038565
                 64.71  -0.046826727009787
                 21.06   -0.12846616875047
                 7.495   -0.30126627246289
                 2.797   -0.25563070233011
                0.5215      1.093793361012
 s    1 1.00
                0.1596                   1
 p    3 1.00
                 9.439   0.056979251590039
                 2.002    0.31320721150073
                0.5456    0.76037674173753
 p    1 1.00
                0.1517                   1
 d    1 1.00
                  0.55                   1

20 0
 s    3 1.00
                 13.01   0.033498726389998
                 1.962    0.23480080117413
                0.4446     0.8136829578829
 s    1 1.00
                 0.122                   1
 p    1 1.00
                 0.727                   1

21 0
 s    8 1.00
                  6665  0.00069158396281299
                  1000  0.0053257961529341
                   228   0.027060721042034
                 64.71    0.10165684614077
                 21.06     0.2745748236174
                 7.495    0.44829431892377
                 2.797    0.28490261071525
                0.5215   0.015194859206082
 s    8 1.00
                  6665  -0.00029326965268655
                  1000  -0.0023180354739745
                   228  -0.011499786038565
                 64.71  -0.046826727009787
                 21.06   -0.12846616875047
                 7.495   -0.30126627246289
                 2.797   -0.25563070233011
                0.5215      1.093793361012
 s    1 1.00
                0.1596                   1
 p    3 1.00
                 9.439   0.056979251590039
                 2.002    0.31320721150073
                0.5456    0.76037674173753
 p    1 1.00
                0.1517                   1
 d    1 1.00
                  0.55                   1

22 0
 s    3 1.00
                 13.01   0.033498726389998
                 1.962    0.23480080117413
                0.4446     0.8136829578829
 s    1 1.00
                 0.122                   1
 p    1 1.00
                 0.727                   1

23 0
 s    3 1.00
                 13.01   0.033498726389998
                 1.962    0.23480080117413
                0.4446     0.8136829578829
 s    1 1.00
                 0.122                   1
 p    1 1.00
                 0.727                   1

24 0
 s    3 1.00
                 13.01   0.033498726389998
                 1.962    0.23480080117413
                0.4446     0.8136829578829
 s    1 1.00
                 0.122                   1
 p    1 1.00
                 0.727                   1

25 0
 s    8 1.00
                  6665  0.00069158396281299
                  1000  0.0053257961529341
                   228   0.027060721042034
                 64.71    0.10165684614077
                 21.06     0.2745748236174
                 7.495    0.44829431892377
                 2.797    0.28490261071525
                0.5215   0.015194859206082
 s    8 1.00
                  6665  -0.00029326965268655
                  1000  -0.0023180354739745
                   228  -0.011499786038565
                 64.71  -0.046826727009787
                 21.06   -0.12846616875047
                 7.495   -0.30126627246289
                 2.797   -0.25563070233011
                0.5215      1.093793361012
 s    1 1.00
                0.1596                   1
 p    3 1.00
                 9.439   0.056979251590039
                 2.002    0.31320721150073
                0.5456    0.76037674173753
 p    1 1.00
                0.1517                   1
 d    1 1.00
                  0.55                   1

26 0
 s    3 1.00
                 13.01   0.033498726389998
                 1.962    0.23480080117413
                0.4446     0.8136829578829
 s    1 1.00
                 0.122                   1
 p    1 1.00
                 0.727                   1

27 0
 s    3 1.00
                 13.01   0.033498726389998
                 1.962    0.23480080117413
                0.4446     0.8136829578829
 s    1 1.00
                 0.122                   1
 p    1 1.00
                 0.727                   1

28 0
 s    8 1.00
                  6665  0.00069158396281299
                  1000  0.0053257961529341
                   228   0.027060721042034
                 64.71    0.10165684614077
                 21.06     0.2745748236174
                 7.495    0.44829431892377
                 2.797    0.28490261071525
                0.5215   0.015194859206082
 s    8 1.00
                  6665  -0.00029326965268655
                  1000  -0.0023180354739745
                   228  -0.011499786038565
                 64.71  -0.046826727009787
                 21.06   -0.12846616875047
                 7.495   -0.30126627246289
                 2.797   -0.25563070233011
                0.5215      1.093793361012
 s    1 1.00
                0.1596                   1
 p    3 1.00
                 9.439   0.056979251590039
                 2.002    0.31320721150073
                0.5456    0.76037674173753
 p    1 1.00
                0.1517                   1
 d    1 1.00
                  0.55                   1

29 0
 s    3 1.00
                 13.01   0.033498726389998
                 1.962    0.23480080117413
                0.4446     0.8136829578829
 s    1 1.00
                 0.122                   1
 p    1 1.00
                 0.727                   1

30 0
 s    3 1.00
                 13.01   0.033498726389998
                 1.962    0.23480080117413
                0.4446     0.8136829578829
 s    1 1.00
                 0.122                   1
 p    1 1.00
                 0.727                   1

31 0
 s    8 1.00
                  6665  0.00069158396281299
                  1000  0.0053257961529341
                   228   0.027060721042034
                 64.71    0.10165684614077
                 21.06     0.2745748236174
                 7.495    0.44829431892377
                 2.797    0.28490261071525
                0.5215   0.015194859206082
 s    8 1.00
                  6665  -0.00029326965268655
                  1000  -0.0023180354739745
                   228  -0.011499786038565
                 64.71  -0.046826727009787
                 21.06   -0.12846616875047
                 7.495   -0.30126627246289
                 2.797   -0.25563070233011
                0.5215      1.093793361012
 s    1 1.00
                0.1596                   1
 p    3 1.00
                 9.439   0.056979251590039
                 2.002    0.31320721150073
                0.5456    0.76037674173753
 p    1 1.00
                0.1517                   1
 d    1 1.00
                  0.55                   1

32 0
 s    3 1.00
                 13.01   0.033498726389998
                 1.962    0.23480080117413
                0.4446     0.8136829578829
 s    1 1.00
                 0.122                   1
 p    1 1.00
                 0.727                   1

33 0
 s    3 1.00
                 13.01   0.033498726389998
                 1.962    0.23480080117413
                0.4446     0.8136829578829
 s    1 1.00
                 0.122                   1
 p    1 1.00
                 0.727                   1

34 0
 s    3 1.00
                 13.01   0.033498726389998
                 1.962    0.23480080117413
                0.4446     0.8136829578829
 s    1 1.00
                 0.122                   1
 p    1 1.00
                 0.727                   1

35 0
 s    3 1.00
                 13.01   0.033498726389998
                 1.962    0.23480080117413
                0.4446     0.8136829578829
 s    1 1.00
                 0.122                   1
 p    1 1.00
                 0.727                   1

36 0
 s    3 1.00
                 13.01   0.033498726389998
                 1.962    0.23480080117413
                0.4446     0.8136829578829
 s    1 1.00
                 0.122                   1
 p    1 1.00
                 0.727                   1

37 0
 s    3 1.00
                 13.01   0.033498726389998
                 1.962    0.23480080117413
                0.4446     0.8136829578829
 s    1 1.00
                 0.122                   1
 p    1 1.00
                 0.727                   1

[5d]
[7f]
[9g]

[MO]
 Sym= A
 Ene=               0
 Spin= Alpha
 Occup=    1.00000
   1    1.6321649374565e-06
   2    3.4879525975065e-06
   3    1.8227478501108e-05
   4    2.3334385406806e-06
   5    -1.4238020129306e-06
   6    3.6104332888874e-07
   7    7.4186196998702e-07
   8    -3.4281126052723e-06
   9    -7.0724976822316e-06
  10    1.4502135136069e-06
  11    1.1607040542679e-06
  12    -9.0894000540366e-07
  13    1.9543221870217e-07
  14    1.2606630621948e-08
  15    3.4271598127288e-07
  16    -1.7928841055705e-05
  17    5.1912780211325e-06
  18    -3.854090450399e-06
  19    -3.9365941802595e-06
  20    -1.2538509337302e-07
  21    5.340853680553e-06
  22    4.532810323192e-07
  23    -1.4913720303669e-06
  24    -6.8790167492928e-08
  25    -8.3375600746672e-05
  26    -0.00023024293888093
  27    -0.00023473455165847
  28    -0.00031419653788756
  29    0.00037339809521976
  30    0.0001094964203283
  31    -0.00037931690030579
  32    0.00031552778448327
  33    2.6141161798627e-05
  34    -8.843137369136e-06
  35    4.9502398090027e-05
  36    -7.1970176180384e-05
  37    9.3875649468023e-07
  38    -1.0670094807178e-05
  39    -0.00029737830188179
  40    -0.00081251878614949
  41    -0.00036714596201172
  42    -0.0012076494532453
  43    0.0012820935642351
  44    0.00044076906069635
  45    0.0013938635275259
  46    -0.00087762906235629
  47    0.0001606373690886
  48    -8.5220824372065e-05
  49    6.7471212492846e-05
  50    -0.00016707294968252
  51    -2.8861163374909e-05
  52    8.0097463091832e-05
  53      0.39023253676505
  54    0.0013784841299943
  55    -0.0040422154928165
  56    0.0018102777687828
  57    -0.00027585533303106
  58    -8.7435866855238e-06
  59    0.0020599307421827
  60    -0.00049277593243969
  61    -0.00089182997507819
  62    3.7294539667619e-06
  63    0.00035234592172986
  64    4.014533521212e-05
  65    -1.3942204200294e-05
  66    -4.4996566861243e-05
  67     -0.18613078094283
  68    -0.0011612634654017
  69    0.0039311808702856
  70    0.00056713154281405
  71    0.00060367797781476
  72    0.0011428743594539
  73    0.0015339943444997
  74    -0.00016727361723574
  75    0.00094957428296157
  76    1.031736762484e-05
  77    3.0307800357218e-05
  78    -0.00013636623703396
  79    6.5857361118123e-05
  80    -8.3885677786254e-05
  81    0.00085947660746611
  82    0.00086632170266205
  83    0.00015669361301443
  84    1.2593664395681e-05
  85    3.6915483801848e-05
  86      0.90166662948795
  87    0.0047463610162667
  88    -0.0095359999959973
  89    -0.00029446181925504
  90    -1.3056942374219e-05
  91    0.00014820489417786
  92    -0.00091501211685751
  93    0.00079009674423527
  94    0.00067338170838612
  95    4.0950713921998e-05
  96    0.00033288978331812
  97    6.522549006875e-05
  98    -7.7183710716972e-05
  99    -3.017301932904e-06
 100    -0.00099289310427988
 101    0.0003463104495961
 102    -8.3157154369151e-05
 103    -0.00013867709570658
 104    -0.00019708427793802
 105    -0.001276263747021
 106    -0.0008004267827095
 107    -6.8995765409159e-05
 108    2.0968842934563e-05
 109    6.9212518171518e-06
 110    0.00018186053787077
 111    -0.00063986668065018
 112    -7.1209799910495e-05
 113    -3.4730873232712e-06
 114    6.2720213366076e-05
 115    -0.060990244218789
 116    -0.00054754579736515
 117    0.00027342041128216
 118    8.8795630134543e-05
 119    -0.00016332384959469
 120    -0.00031417486664157
 121    5.3365911931456e-05
 122    -0.00021765359897776
 123    -0.00013836361555886
 124    -3.2492810372201e-05
 125    -6.0905069801398e-05
 126    -7.0530285068148e-06
 127    7.1878694761168e-05
 128    -5.3530661847202e-05
 129    3.265168156686e-05
 130     0.001099455499345
 131    0.00016099789346657
 132    0.00024240760485152
 133    0.00022378724609627
 134    0.0003011687526238
 135     0.001514414365382
 136    -0.00023637221531962
 137    4.1913934609186e-05
 138    -0.00025830475981258
 139     0.018079454490601
 140    -0.00014935697237202
 141    0.0027402498404335
 142    -0.00011773576721596
 143    -8.0647496844491e-06
 144    -5.0436455354587e-05
 145    -0.0010750455008013
 146    0.00069924257991101
 147    0.00042637668269872
 148    2.8653896828811e-05
 149    3.7860216884249e-05
 150    -6.7146256192761e-05
 151    -1.4201302766868e-05
 152    0.00010382863697846
 153    -0.00045926440287473
 154    -0.00033123456648381
 155    -1.9194797383081e-05
 156    1.5999833223644e-05
 157    1.4562901264799e-05
 158    -0.00012717995332939
 159    -0.00010021212547759
 160    -9.9364735909565e-06
 161    1.4302075107941e-05
 162    -5.2131199975291e-06
 163     0.032574529171524
 164    0.00024645307700282
 165    -0.00044665063101402
 166    -7.0617071120471e-05
 167    -5.4871271807399e-05
 168    -8.2744394374559e-05
 169    0.00037968280129955
 170    -0.00024183841592538
 171    -0.00013025561617253
 172    -1.1116400384934e-05
 173    3.2480957350986e-05
 174    -7.756307878263e-06
 175    -1.2900225907462e-05
 176    6.832766048354e-07
 177    -0.00018865045639473
 178    0.00012419183629082
 179    -3.3352334203379e-05
 180    3.016792239007e-05
 181    1.6015900171746e-05
 182    0.0003363505090193
 183    -8.2647674517466e-05
 184    -0.00032331886838166
 185    6.986419103021e-05
 186    -2.4608538016475e-06
 187    -2.3167536747902e-05
 188    -0.00041167862960028
 189    0.00052034463602531
 190    0.00020946965362399
 191    -1.9761170419582e-05
 192    -8.5074758659939e-06
 193    2.7273174394949e-05
 194    1.0008186066347e-06
 195    -4.1307862558447e-05
 196    -5.860790905608e-05
 197    2.6092679085467e-05
 198    -2.7246534336544e-05
 199    3.2572607233934e-05
 200    1.6020727808855e-05
 201    0.00010563779425481
 202    0.00012832391604052
 203    -1.9885396868981e-05
 204    8.6977752892882e-06
 205    4.0924885490189e-06
 206    -8.9159644884424e-06
 207    0.0001764231338104
 208    -1.2170052477772e-05
 209    5.8036443396379e-06
 210    1.4757715741451e-06
 211    0.0095646019175546
 212    4.0937169588499e-05
 213    0.0003482845414534
 214    5.6863599358625e-05
 215    -1.0651882862065e-05
 216    2.8319984461055e-05
 217    0.00015420410790988
 218    -6.5074209898881e-05
 219    -0.00012515888555711
 220    1.2995999136166e-06
 221    -1.6782100356926e-05
 222    1.3329886330307e-05
 223    1.7239339247654e-06
 224    -4.0720209744077e-06
 225    -5.9277707737417e-06
 226    -0.00022682001562963
 227    6.2518702582924e-05
 228    -1.5226818201841e-05
 229    -1.2846845395523e-05
 230    -5.6869805747086e-05
 231    -0.00028024844332345
 232    2.9427049332372e-05
 233    -2.5806165633776e-05
 234    -5.7499664969604e-05
 235    -0.00054830049500309
 236    -0.0001513681989635
 237    0.00078293543877172
 238    1.3581566438197e-05
 239    6.9936624204334e-06
 240    -5.6327807992922e-06
 241    -0.00041435872201342
 242    4.9134220097049e-05
 243    0.00034043054322631
 244    2.515545165355e-06
 245    -2.0994562377033e-05
 246    4.9400892296094e-06
 247    1.425574040594e-05
 248    -5.4179266114163e-06
 249    4.0475713642832e-05
 250    7.2036150937373e-05
 251    2.7252485403667e-06
 252    -4.0267961629083e-06
 253    3.8424525989842e-07
 254    -7.5498318630858e-06
 255    2.3735278471311e-05
 256    3.8237808572878e-06
 257    -1.9275543737815e-06
 258    4.8710512515043e-06
 259    -0.0050770190696308
 260    -6.7441470891982e-05
 261    7.083577539537e-05
 262    -2.4100324652788e-05
 263    2.6534323687437e-05