[Molden Format]
made by pyscf v[2.0.1]
[Atoms] (AU)
C   1   6    -0.00491185910195    -0.00302299034612    -6.30478139015019
O   2   8    -0.00302499062123    -0.00226824280266    -4.17507277885027
[GTO]
1 0
 s    5 1.00
          1238.4016938  0.0055173650481097
          186.29004992   0.041088828555946
          42.251176346     0.1822538212649
          11.676557932    0.46828459437429
          3.5930506482    0.44575817336002
 s    1 1.00
         0.40245147363                   1
 s    1 1.00
         0.13090182668                   1
 p    3 1.00
          9.4680970621   0.056888332011037
          2.0103545142    0.31294059336471
         0.54771004707    0.76065016509135
 p    1 1.00
         0.15268613795                   1
 d    1 1.00
                   0.8                   1

2 0
 s    5 1.00
          2266.1767785  -0.0053893503921743
          340.87010191   -0.04023472138896
          77.363135167   -0.18008184205526
           21.47964494   -0.46828857657651
          6.6589433124   -0.44692617160187
 s    1 1.00
         0.80975975668                   1
 s    1 1.00
         0.25530772234                   1
 p    3 1.00
          17.721504317   0.062630248763161
           3.863550544    0.33331138482352
          1.0480920883    0.74148638308122
 p    1 1.00
         0.27641544411                   1
 d    1 1.00
                   1.2                   1

[5d]
[7f]
[9g]

[MO]
 Sym= A
 Ene=               0
 Spin= Alpha
 Occup=    1.00000
   1    0.0004610588040831
   2    0.00024464386515032
   3     0.010412912168048
   4    -2.0144433457112e-06
   5    -8.0577749765147e-07
   6    -0.0022737354198426
   7    6.5780517449119e-06
   8    2.6312212233737e-06
   9    0.0074246504320264
  10    -0.0024296636100344
  11    -3.7283955804035e-06
  12    -1.4913585270999e-06
  13    -1.3874057899597e-09
  14    -1.3212008676309e-09
  15      -0.9883637874402
  16     0.043175110712993
  17    -0.028222788027805
  18    -2.9965985232488e-06
  19    -1.1986396797577e-06
  20    -0.0033818875674562
  21    4.6741296419545e-06
  22    1.8696522391704e-06
  23    0.0052756422955498
  24    0.00089903899961741
  25    1.3797539522405e-06
  26    5.5190170332976e-07
  27    5.1539279508408e-10
  28    4.879817834613e-10
 Sym= A
 Ene=               1
 Spin= Alpha
 Occup=    1.00000
   1      0.98857684884051
   2     0.045227337598105
   3    -0.0087844942374668
   4    5.577588041963e-06
   5    2.2310357048108e-06
   6    0.0062955039101566
   7    3.7907862301004e-06
   8    1.5163147844774e-06
   9     0.004278571433633
  10    0.0029516515635927
  11    4.5294300180028e-06
  12    1.8117723872684e-06
  13    1.6859373734169e-09
  14    1.6046978179087e-09
  15    0.00027224478392449
  16    -0.001046422055411
  17    -0.010938494919724
  18    1.3984482157698e-06
  19    5.5937939275807e-07
  20    0.0015785477742426
  21    7.3468861475411e-06
  22    2.9387550418034e-06
  23    0.0082924326763258
  24    -0.00028095610899953
  25    -4.3086374352945e-07
  26    -1.7234551498068e-07
  27    -1.611600427749e-10
  28    -1.5185813018051e-10
 Sym= A
 Ene=               2
 Spin= Alpha
 Occup=    1.00000
   1       0.1494983513609
   2     -0.28551763749048
   3    -0.030434253178278
   4    -0.0002016603851792
   5    -8.0664170395911e-05
   6     -0.22761427587134
   7    -1.2442509696599e-05
   8    -4.9770048334738e-06
   9    -0.014044142906834
  10    -0.032077915930793
  11    -4.9223411790867e-05
  12    -1.9689368716904e-05
  13    -1.8355087587181e-08
  14    -1.7425821349804e-08
  15     -0.26456881718971
  16     -0.52555415586792
  17       -0.224730250141
  18    0.00016773602056235
  19    6.7094421507348e-05
  20      0.18932575249976
  21    1.449715371122e-05
  22    5.7988626654694e-06
  23     0.016362998013295
  24    -0.014962409910943
  25    -2.2960920010823e-05
  26    -9.1843698873046e-06
  27    -8.5390567107694e-09
  28    -8.1421459878693e-09
 Sym= A
 Ene=               3
 Spin= Alpha
 Occup=    1.00000
   1     -0.16952915493539
   2      0.38206866305089
   3     0.098826129991545
   4    0.00011252253925795
   5    4.5009024685425e-05
   6      0.12700379643765
   7    -2.4840516541339e-05
   8    -9.93620873379e-06
   9    -0.028036010004364
  10    0.0048285739104726
  11    7.4104310470351e-06
  12    2.9641730826004e-06
  13     2.79167541558e-09
  14    2.6141812562073e-09
  15     -0.15630816462268
  16     -0.33046013222123
  17     -0.36881479516273
  18    -0.00043350289807971
  19    -0.0001734011948486
  20     -0.48928258223336
  21    -0.00020572122562324
  22    -8.2288507128356e-05
  23     -0.23219117612811
  24     0.023369017602358
  25    3.5863495714665e-05
  26    1.4345401264648e-05
  27    1.3330459432478e-08
  28    1.2718056686735e-08
 Sym= A
 Ene=               4
 Spin= Alpha
 Occup=    1.00000
   1    -7.0399584376969e-09
   2    1.8861823826827e-08
   3    3.8697873578706e-09
   4      0.33604058404817
   5    -0.0071312074275328
   6    -0.00029520591474458
   7      0.13207816205802
   8    -0.0028028661151569
   9    -0.00011602894861908
  10    -6.6740203890134e-05
  11     0.043861253084816
  12    -0.00093080581729381
  13    3.9192419613099e-05
  14    1.4718966473183e-05
  15    -2.6903181898787e-09
  16    -4.6233169159621e-09
  17    -2.1979887844931e-09
  18      0.55931173116417
  19     -0.01186930427406
  20    -0.00049133045609669
  21       0.3291319025311
  22    -0.0069845963942741
  23    -0.00028912944405333
  24    4.0031604560941e-05
  25    -0.026311366156828
  26    0.00055836917250455
  27    -2.3510900505087e-05
  28    -8.8285234846089e-06
 Sym= A
 Ene=               5
 Spin= Alpha
 Occup=    1.00000
   1    2.9909447790594e-09
   2    -8.0136972565199e-09
   3    -1.6439866773794e-09
   4    -0.0071310994828367
   5     -0.33604069251642
   6    0.0001254115332123
   7    -0.0028028237132352
   8     -0.13207820476031
   9    4.929226580779e-05
  10    2.8353060886719e-05
  11    -0.00093076354137477
  12     -0.04386129550778
  13    1.472032215347e-05
  14    -3.9188864296821e-05
  15    1.1431545414207e-09
  16    1.9645014997273e-09
  17    9.3461077441447e-10
  18    -0.011869124795208
  19     -0.55931191175526
  20    0.00020873059495564
  21    -0.0069844907703163
  22     -0.32913200898201
  23    0.00012283008324291
  24    -1.7006518599399e-05
  25    0.00055834386377929
  26      0.02631139169704
  27    -8.830483698654e-06
  28    2.3505713363707e-05
 Sym= A
 Ene=               6
 Spin= Alpha
 Occup=    1.00000
   1      -0.1846831891485
   2      0.39347358801281
   3      0.50196616555485
   4    -0.00039411380783604
   5    -0.00015764555490398
   6     -0.44484042309394
   7    -0.00012138949560999
   8    -4.855580800079e-05
   9     -0.13700576421701
  10    -0.033371639574668
  11    -5.1205825426199e-05
  12    -2.0482334285449e-05
  13    -1.9075653994518e-08
  14    -1.8131075345814e-08
  15    -0.020376200144952
  16     -0.05433946463928
  17    -0.0074550621735412
  18    0.00023672508088907
  19    9.4690051624564e-05
  20      0.26720979711648
  21    0.00011560043121419
  22    4.6240181897456e-05
  23      0.13049085229295
  24    -0.0048102147505053
  25    -7.3811707542078e-06
  26    -2.952468947756e-06
  27    -2.7346861582901e-09
  28    -2.6227480657571e-09
