[Molden Format]
made by pyscf v[2.0.1]
[Atoms] (AU)
C   1   6     0.69100024066471     0.64692934207205    -3.48223131169301
H   2   1     2.68052439830868     1.13355088658700    -3.25784032593313
C   3   6    -0.36286361513219     0.85440132524594    -5.97030179418974
H   4   1    -2.35448549047279     0.36322488579172    -6.17995817793143
C   5   6     0.93697958957450     1.61209284601821    -8.05828437677121
H   6   1     1.09182490265505     3.62435627880799    -8.46787148771875
C   7   6     2.13423629966321    -0.10744231105711    -9.78050935942977
H   8   1     1.96390963868834    -2.11762116447114    -9.34474333768613
H   9   1     1.55630230933075    -1.92953025305990    12.99630010416247
C   10   6     0.75233899775814    -2.21270439606481    11.10705728102219
H   11   1    -0.43433408177274    -3.90944857546550    11.22216085340412
C   12   6     2.86362581178706    -2.63237380607947     9.17926416456045
H   13   1     4.39038949912609    -1.24955421540245     9.49899813497433
H   14   1     3.74629220191363    -4.48798724300892     9.47414880959024
C   15   6     2.02478325613682    -2.42177285709634     6.44560829588644
C   16   6     3.88048732735477    -3.58795445234514     4.61402886975252
C   17   6    -0.18412382258602    -1.30464291234259     5.76021113872346
C   18   6    -2.10044360464350    -0.26837831858460     7.71610340967100
C   19   6    -3.08956938670431     2.35282328359417     6.88693925039594
C   20   6    -4.37372924086464    -2.09766595989678     7.93610724222001
C   21   6    -0.83850430601230     0.06372213486173    10.33002307638377
H   22   1     0.38411922151109     1.74281358582432    10.27380136542181
H   23   1    -2.30980003007874     0.45460143924521    11.73986301809809
H   24   1     4.58527064644668    -5.38706904487420     5.36778158031719
H   25   1     5.54944938085014    -2.37631462192748     4.35398898413318
H   26   1     3.06633019150423    -3.94118377050688     2.75255466040884
H   27   1    -4.17727778763735     2.26573369139522     5.12914900961283
H   28   1    -1.52662344944051     3.68001877445626     6.59540397144508
H   29   1    -4.32916174397830     3.13643051467482     8.35225460090378
H   30   1    -5.32329548508442    -2.36691813602939     6.11583672749896
H   31   1    -5.77989366602257    -1.33896741843465     9.25748940450990
H   32   1    -3.79310905208926    -3.96389819310853     8.61386170102686
C   33   6    -1.01100794811226    -1.06331657314144     3.11929490449947
C   34   6     0.37686231036534    -0.33275864505552     1.09165013605873
H   35   1    -3.01671213906703    -1.40297922279997     2.77827895090944
C   36   6    -0.64382707979370    -0.11591880174385    -1.42063131251064
H   37   1     2.35569259782137     0.17174499283897     1.33641070251401
H   38   1    -2.63317482980319    -0.60229203511219    -1.66119700387645
C   39   6     3.44427310754987     0.55955226130243   -11.88185544133447
C   40   6     4.59546774580895    -1.33837842065929   -13.51881378425706
H   41   1     3.68484150802705     2.52824088205540   -12.42422090941845
O   42   8     5.79494197127018    -0.87330187518197   -15.43343894779829
H   43   1     4.30216020100717    -3.32855150553013   -12.89162904717628
[GTO]
1 0
 s    6 1.00
             3047.5249  0.0018347001629433
             457.36951    0.01403730124668
             103.94869   0.068842606114048
             29.210155    0.23218442062076
              9.286663    0.46794134155879
              3.163927    0.36231203217765
 s    3 1.00
             7.8682724   -0.11933240861517
             1.8812885   -0.16085421161283
             0.5442493     1.1434564825515
 s    1 1.00
             0.1687144                   1
 p    3 1.00
             7.8682724   0.068999095584993
             1.8812885    0.31642397975315
             0.5442493    0.74430825237435
 p    1 1.00
             0.1687144                   1
 d    1 1.00
                   0.8                   1

2 0
 s    3 1.00
             18.731137    0.03349459952309
             2.8253937    0.23472694665786
             0.6401217    0.81375731841339
 s    1 1.00
             0.1612778                   1

3 0
 s    6 1.00
             3047.5249  0.0018347001629433
             457.36951    0.01403730124668
             103.94869   0.068842606114048
             29.210155    0.23218442062076
              9.286663    0.46794134155879
              3.163927    0.36231203217765
 s    3 1.00
             7.8682724   -0.11933240861517
             1.8812885   -0.16085421161283
             0.5442493     1.1434564825515
 s    1 1.00
             0.1687144                   1
 p    3 1.00
             7.8682724   0.068999095584993
             1.8812885    0.31642397975315
             0.5442493    0.74430825237435
 p    1 1.00
             0.1687144                   1
 d    1 1.00
                   0.8                   1

4 0
 s    3 1.00
             18.731137    0.03349459952309
             2.8253937    0.23472694665786
             0.6401217    0.81375731841339
 s    1 1.00
             0.1612778                   1

5 0
 s    6 1.00
             3047.5249  0.0018347001629433
             457.36951    0.01403730124668
             103.94869   0.068842606114048
             29.210155    0.23218442062076
              9.286663    0.46794134155879
              3.163927    0.36231203217765
 s    3 1.00
             7.8682724   -0.11933240861517
             1.8812885   -0.16085421161283
             0.5442493     1.1434564825515
 s    1 1.00
             0.1687144                   1
 p    3 1.00
             7.8682724   0.068999095584993
             1.8812885    0.31642397975315
             0.5442493    0.74430825237435
 p    1 1.00
             0.1687144                   1
 d    1 1.00
                   0.8                   1

6 0
 s    3 1.00
             18.731137    0.03349459952309
             2.8253937    0.23472694665786
             0.6401217    0.81375731841339
 s    1 1.00
             0.1612778                   1

7 0
 s    6 1.00
             3047.5249  0.0018347001629433
             457.36951    0.01403730124668
             103.94869   0.068842606114048
             29.210155    0.23218442062076
              9.286663    0.46794134155879
              3.163927    0.36231203217765
 s    3 1.00
             7.8682724   -0.11933240861517
             1.8812885   -0.16085421161283
             0.5442493     1.1434564825515
 s    1 1.00
             0.1687144                   1
 p    3 1.00
             7.8682724   0.068999095584993
             1.8812885    0.31642397975315
             0.5442493    0.74430825237435
 p    1 1.00
             0.1687144                   1
 d    1 1.00
                   0.8                   1

8 0
 s    3 1.00
             18.731137    0.03349459952309
             2.8253937    0.23472694665786
             0.6401217    0.81375731841339
 s    1 1.00
             0.1612778                   1

9 0
 s    3 1.00
             18.731137    0.03349459952309
             2.8253937    0.23472694665786
             0.6401217    0.81375731841339
 s    1 1.00
             0.1612778                   1

10 0
 s    6 1.00
             3047.5249  0.0018347001629433
             457.36951    0.01403730124668
             103.94869   0.068842606114048
             29.210155    0.23218442062076
              9.286663    0.46794134155879
              3.163927    0.36231203217765
 s    3 1.00
             7.8682724   -0.11933240861517
             1.8812885   -0.16085421161283
             0.5442493     1.1434564825515
 s    1 1.00
             0.1687144                   1
 p    3 1.00
             7.8682724   0.068999095584993
             1.8812885    0.31642397975315
             0.5442493    0.74430825237435
 p    1 1.00
             0.1687144                   1
 d    1 1.00
                   0.8                   1

11 0
 s    3 1.00
             18.731137    0.03349459952309
             2.8253937    0.23472694665786
             0.6401217    0.81375731841339
 s    1 1.00
             0.1612778                   1

12 0
 s    6 1.00
             3047.5249  0.0018347001629433
             457.36951    0.01403730124668
             103.94869   0.068842606114048
             29.210155    0.23218442062076
              9.286663    0.46794134155879
              3.163927    0.36231203217765
 s    3 1.00
             7.8682724   -0.11933240861517
             1.8812885   -0.16085421161283
             0.5442493     1.1434564825515
 s    1 1.00
             0.1687144                   1
 p    3 1.00
             7.8682724   0.068999095584993
             1.8812885    0.31642397975315
             0.5442493    0.74430825237435
 p    1 1.00
             0.1687144                   1
 d    1 1.00
                   0.8                   1

13 0
 s    3 1.00
             18.731137    0.03349459952309
             2.8253937    0.23472694665786
             0.6401217    0.81375731841339
 s    1 1.00
             0.1612778                   1

14 0
 s    3 1.00
             18.731137    0.03349459952309
             2.8253937    0.23472694665786
             0.6401217    0.81375731841339
 s    1 1.00
             0.1612778                   1

15 0
 s    6 1.00
             3047.5249  0.0018347001629433
             457.36951    0.01403730124668
             103.94869   0.068842606114048
             29.210155    0.23218442062076
              9.286663    0.46794134155879
              3.163927    0.36231203217765
 s    3 1.00
             7.8682724   -0.11933240861517
             1.8812885   -0.16085421161283
             0.5442493     1.1434564825515
 s    1 1.00
             0.1687144                   1
 p    3 1.00
             7.8682724   0.068999095584993
             1.8812885    0.31642397975315
             0.5442493    0.74430825237435
 p    1 1.00
             0.1687144                   1
 d    1 1.00
                   0.8                   1

16 0
 s    6 1.00
             3047.5249  0.0018347001629433
             457.36951    0.01403730124668
             103.94869   0.068842606114048
             29.210155    0.23218442062076
              9.286663    0.46794134155879
              3.163927    0.36231203217765
 s    3 1.00
             7.8682724   -0.11933240861517
             1.8812885   -0.16085421161283
             0.5442493     1.1434564825515
 s    1 1.00
             0.1687144                   1
 p    3 1.00
             7.8682724   0.068999095584993
             1.8812885    0.31642397975315
             0.5442493    0.74430825237435
 p    1 1.00
             0.1687144                   1
 d    1 1.00
                   0.8                   1

17 0
 s    6 1.00
             3047.5249  0.0018347001629433
             457.36951    0.01403730124668
             103.94869   0.068842606114048
             29.210155    0.23218442062076
              9.286663    0.46794134155879
              3.163927    0.36231203217765
 s    3 1.00
             7.8682724   -0.11933240861517
             1.8812885   -0.16085421161283
             0.5442493     1.1434564825515
 s    1 1.00
             0.1687144                   1
 p    3 1.00
             7.8682724   0.068999095584993
             1.8812885    0.31642397975315
             0.5442493    0.74430825237435
 p    1 1.00
             0.1687144                   1
 d    1 1.00
                   0.8                   1

18 0
 s    6 1.00
             3047.5249  0.0018347001629433
             457.36951    0.01403730124668
             103.94869   0.068842606114048
             29.210155    0.23218442062076
              9.286663    0.46794134155879
              3.163927    0.36231203217765
 s    3 1.00
             7.8682724   -0.11933240861517
             1.8812885   -0.16085421161283
             0.5442493     1.1434564825515
 s    1 1.00
             0.1687144                   1
 p    3 1.00
             7.8682724   0.068999095584993
             1.8812885    0.31642397975315
             0.5442493    0.74430825237435
 p    1 1.00
             0.1687144                   1
 d    1 1.00
                   0.8                   1

19 0
 s    6 1.00
             3047.5249  0.0018347001629433
             457.36951    0.01403730124668
             103.94869   0.068842606114048
             29.210155    0.23218442062076
              9.286663    0.46794134155879
              3.163927    0.36231203217765
 s    3 1.00
             7.8682724   -0.11933240861517
             1.8812885   -0.16085421161283
             0.5442493     1.1434564825515
 s    1 1.00
             0.1687144                   1
 p    3 1.00
             7.8682724   0.068999095584993
             1.8812885    0.31642397975315
             0.5442493    0.74430825237435
 p    1 1.00
             0.1687144                   1
 d    1 1.00
                   0.8                   1

20 0
 s    6 1.00
             3047.5249  0.0018347001629433
             457.36951    0.01403730124668
             103.94869   0.068842606114048
             29.210155    0.23218442062076
              9.286663    0.46794134155879
              3.163927    0.36231203217765
 s    3 1.00
             7.8682724   -0.11933240861517
             1.8812885   -0.16085421161283
             0.5442493     1.1434564825515
 s    1 1.00
             0.1687144                   1
 p    3 1.00
             7.8682724   0.068999095584993
             1.8812885    0.31642397975315
             0.5442493    0.74430825237435
 p    1 1.00
             0.1687144                   1
 d    1 1.00
                   0.8                   1

21 0
 s    6 1.00
             3047.5249  0.0018347001629433
             457.36951    0.01403730124668
             103.94869   0.068842606114048
             29.210155    0.23218442062076
              9.286663    0.46794134155879
              3.163927    0.36231203217765
 s    3 1.00
             7.8682724   -0.11933240861517
             1.8812885   -0.16085421161283
             0.5442493     1.1434564825515
 s    1 1.00
             0.1687144                   1
 p    3 1.00
             7.8682724   0.068999095584993
             1.8812885    0.31642397975315
             0.5442493    0.74430825237435
 p    1 1.00
             0.1687144                   1
 d    1 1.00
                   0.8                   1

22 0
 s    3 1.00
             18.731137    0.03349459952309
             2.8253937    0.23472694665786
             0.6401217    0.81375731841339
 s    1 1.00
             0.1612778                   1

23 0
 s    3 1.00
             18.731137    0.03349459952309
             2.8253937    0.23472694665786
             0.6401217    0.81375731841339
 s    1 1.00
             0.1612778                   1

24 0
 s    3 1.00
             18.731137    0.03349459952309
             2.8253937    0.23472694665786
             0.6401217    0.81375731841339
 s    1 1.00
             0.1612778                   1

25 0
 s    3 1.00
             18.731137    0.03349459952309
             2.8253937    0.23472694665786
             0.6401217    0.81375731841339
 s    1 1.00
             0.1612778                   1

26 0
 s    3 1.00
             18.731137    0.03349459952309
             2.8253937    0.23472694665786
             0.6401217    0.81375731841339
 s    1 1.00
             0.1612778                   1

27 0
 s    3 1.00
             18.731137    0.03349459952309
             2.8253937    0.23472694665786
             0.6401217    0.81375731841339
 s    1 1.00
             0.1612778                   1

28 0
 s    3 1.00
             18.731137    0.03349459952309
             2.8253937    0.23472694665786
             0.6401217    0.81375731841339
 s    1 1.00
             0.1612778                   1

29 0
 s    3 1.00
             18.731137    0.03349459952309
             2.8253937    0.23472694665786
             0.6401217    0.81375731841339
 s    1 1.00
             0.1612778                   1

30 0
 s    3 1.00
             18.731137    0.03349459952309
             2.8253937    0.23472694665786
             0.6401217    0.81375731841339
 s    1 1.00
             0.1612778                   1

31 0
 s    3 1.00
             18.731137    0.03349459952309
             2.8253937    0.23472694665786
             0.6401217    0.81375731841339
 s    1 1.00
             0.1612778                   1

32 0
 s    3 1.00
             18.731137    0.03349459952309
             2.8253937    0.23472694665786
             0.6401217    0.81375731841339
 s    1 1.00
             0.1612778                   1

33 0
 s    6 1.00
             3047.5249  0.0018347001629433
             457.36951    0.01403730124668
             103.94869   0.068842606114048
             29.210155    0.23218442062076
              9.286663    0.46794134155879
              3.163927    0.36231203217765
 s    3 1.00
             7.8682724   -0.11933240861517
             1.8812885   -0.16085421161283
             0.5442493     1.1434564825515
 s    1 1.00
             0.1687144                   1
 p    3 1.00
             7.8682724   0.068999095584993
             1.8812885    0.31642397975315
             0.5442493    0.74430825237435
 p    1 1.00
             0.1687144                   1
 d    1 1.00
                   0.8                   1

34 0
 s    6 1.00
             3047.5249  0.0018347001629433
             457.36951    0.01403730124668
             103.94869   0.068842606114048
             29.210155    0.23218442062076
              9.286663    0.46794134155879
              3.163927    0.36231203217765
 s    3 1.00
             7.8682724   -0.11933240861517
             1.8812885   -0.16085421161283
             0.5442493     1.1434564825515
 s    1 1.00
             0.1687144                   1
 p    3 1.00
             7.8682724   0.068999095584993
             1.8812885    0.31642397975315
             0.5442493    0.74430825237435
 p    1 1.00
             0.1687144                   1
 d    1 1.00
                   0.8                   1

35 0
 s    3 1.00
             18.731137    0.03349459952309
             2.8253937    0.23472694665786
             0.6401217    0.81375731841339
 s    1 1.00
             0.1612778                   1

36 0
 s    6 1.00
             3047.5249  0.0018347001629433
             457.36951    0.01403730124668
             103.94869   0.068842606114048
             29.210155    0.23218442062076
              9.286663    0.46794134155879
              3.163927    0.36231203217765
 s    3 1.00
             7.8682724   -0.11933240861517
             1.8812885   -0.16085421161283
             0.5442493     1.1434564825515
 s    1 1.00
             0.1687144                   1
 p    3 1.00
             7.8682724   0.068999095584993
             1.8812885    0.31642397975315
             0.5442493    0.74430825237435
 p    1 1.00
             0.1687144                   1
 d    1 1.00
                   0.8                   1

37 0
 s    3 1.00
             18.731137    0.03349459952309
             2.8253937    0.23472694665786
             0.6401217    0.81375731841339
 s    1 1.00
             0.1612778                   1

38 0
 s    3 1.00
             18.731137    0.03349459952309
             2.8253937    0.23472694665786
             0.6401217    0.81375731841339
 s    1 1.00
             0.1612778                   1

39 0
 s    6 1.00
             3047.5249  0.0018347001629433
             457.36951    0.01403730124668
             103.94869   0.068842606114048
             29.210155    0.23218442062076
              9.286663    0.46794134155879
              3.163927    0.36231203217765
 s    3 1.00
             7.8682724   -0.11933240861517
             1.8812885   -0.16085421161283
             0.5442493     1.1434564825515
 s    1 1.00
             0.1687144                   1
 p    3 1.00
             7.8682724   0.068999095584993
             1.8812885    0.31642397975315
             0.5442493    0.74430825237435
 p    1 1.00
             0.1687144                   1
 d    1 1.00
                   0.8                   1

40 0
 s    6 1.00
             3047.5249  0.0018347001629433
             457.36951    0.01403730124668
             103.94869   0.068842606114048
             29.210155    0.23218442062076
              9.286663    0.46794134155879
              3.163927    0.36231203217765
 s    3 1.00
             7.8682724   -0.11933240861517
             1.8812885   -0.16085421161283
             0.5442493     1.1434564825515
 s    1 1.00
             0.1687144                   1
 p    3 1.00
             7.8682724   0.068999095584993
             1.8812885    0.31642397975315
             0.5442493    0.74430825237435
 p    1 1.00
             0.1687144                   1
 d    1 1.00
                   0.8                   1

41 0
 s    3 1.00
             18.731137    0.03349459952309
             2.8253937    0.23472694665786
             0.6401217    0.81375731841339
 s    1 1.00
             0.1612778                   1

42 0
 s    6 1.00
             5484.6717   0.001831099805527
             825.23495   0.013950098518422
             188.04696    0.06844509273075
               52.9645    0.23271427528445
              16.89757    0.47019295006289
             5.7996353    0.35852086192309
 s    3 1.00
             15.539616   -0.11077750382508
             3.5999336   -0.14802630511126
             1.0137618     1.1307670390447
 s    1 1.00
             0.2700058                   1
 p    3 1.00
             15.539616   0.070874299543311
             3.5999336    0.33975279781076
             1.0137618    0.72715859531445
 p    1 1.00
             0.2700058                   1
 d    1 1.00
                   0.8                   1

43 0
 s    3 1.00
             18.731137    0.03349459952309
             2.8253937    0.23472694665786
             0.6401217    0.81375731841339
 s    1 1.00
             0.1612778                   1

[5d]
[7f]
[9g]

[MO]
 Sym= A
 Ene=               0
 Spin= Alpha
 Occup=    1.00000
   1    -0.020509864093555
   2    0.00084075099566577
   3    -0.0068278916806757
   4    -0.0003678861246553
   5    0.00011965462625389
   6    -0.0011689169004576
   7    -0.00083591528440245
   8    -0.0012128427714833
   9    0.0054356278351668
  10    0.00089254197538885
  11    0.00085538220515126
  12    -0.0001425826634183
  13    0.00020531632615887
  14    -3.9125726783479e-05
  15    0.00049229505526273
  16    0.00088413829445591
  17     -0.99485060585251
  18    -0.036838292003534
  19     0.028403663277604
  20    -0.00091194475861377
  21    -0.00015748839374768
  22    0.00056753760834233
  23    0.0035247027068955
  24    0.0010456746789441
  25    0.00076957281091186
  26    -0.00077218797082948
  27    0.00029839211724485
  28    0.00034391693687579
  29    -0.00029950728646845
  30    -0.00019654397123432
  31    0.0011068901329074
  32    -0.003879361240143
  33    -0.012981268871678
  34    0.00026118353686834
  35    -0.00094749421457828
  36    -0.00083201367459901
  37    -0.00031423863160299
  38    0.0011182173283437
  39    0.0021843641444236
  40    -0.0035339832198625
  41    -0.0041846489984335
  42    0.00061098627235963
  43    -0.001169389981444
  44    -0.00044645940516057
  45    0.00033297062813349
  46    0.00038688923368855
  47    0.00054993333501679
  48    0.00061037953850055
  49    0.00028486662639006
  50    0.00055044197171284
  51    -0.00035666178398693
  52    -0.00023320589321526
  53    -2.2112066606343e-05
  54    0.00041116187622544
  55    0.0046028356156597
  56    -0.0011494491840794
  57    -0.0070942972467466
  58    0.00013835566407175
  59    1.4501201136371e-05
  60    -0.00017662779248852
  61    0.00024476621005437
  62    0.00016235904610344
  63    0.00047554119400261
  64    -0.00024475939662316
  65    2.676430841669e-06
  66    4.1339944337024e-06
  67    9.4423450035558e-08
  68    1.4410307633929e-06
  69    -7.2248538391475e-06
  70    -2.1992772487115e-06
  71    4.4949949465058e-06
  72    1.9191597546887e-07
  73    -1.2604053218291e-05
  74    -2.4414507775644e-05
  75    -9.0164280953492e-06
  76    1.3845561811153e-07
  77    3.5474592145205e-07
  78    -3.4519264709032e-07
  79    -5.8000008173926e-07
  80    5.4302147816618e-08
  81    -2.3505753267276e-06
  82    -1.224498515005e-05
  83    -2.1806968400828e-07
  84    -1.2717888953573e-06
  85    6.5857559502508e-05
  86    -3.6341041174267e-06
  87    -3.0182091493226e-06
  88    -5.2504763291155e-06
  89    -2.4069839324707e-05
  90    6.2419517018488e-05
  91    -7.5012262862265e-06
  92    -1.5900391567792e-06
  93    2.7256920186093e-06
  94    -3.6854052056061e-06
  95    7.2726627809442e-07
  96    1.0541245379035e-06
  97    -6.7748475203994e-06
  98    -1.1634844903209e-05
  99    3.2263724175796e-06
 100    1.8455280149773e-05
 101    1.1440110735112e-06
 102    1.1862561894942e-05
 103    -0.00023168996284613
 104    1.5435806653046e-06
 105    7.4881880038734e-06
 106    3.4284658586361e-06
 107    0.00018932850783343
 108    -0.00018079500721017
 109    -0.00013505941287322
 110    5.8006685087803e-06
 111    1.9068300265151e-07
 112    -6.703859089416e-08
 113    -1.5381264071665e-06
 114    5.363102103414e-06
 115    3.3161166616792e-06
 116    3.1916151038588e-05
 117    -0.00023340000641911
 118    2.5027066874687e-06
 119    -3.273839120186e-06
 120    -5.0245157106666e-06
 121    4.7877102436131e-05
 122    -1.0215229485984e-05
 123    -2.8507238721443e-05
 124    -1.5411711351623e-06
 125    2.7475677842555e-06
 126    2.3821704764798e-06
 127    -5.5110239780166e-07
 128    2.0941410853267e-06
 129    5.4050889559746e-06
 130    5.2065236938642e-05
 131    -0.00015111340408296
 132    -6.034602137912e-06
 133    4.3736907507416e-06
 134    -2.1749826002385e-05
 135    0.00034472422254682
 136    -4.3749331172554e-05
 137    0.00040324853691786
 138    -9.5260585283346e-06
 139    -1.2855395722043e-05
 140    -5.4741922968639e-06
 141    -4.2957528662115e-06
 142    -6.5386601236003e-06
 143    1.9673304360853e-06
 144    2.5443335050444e-05
 145    -2.5303299140304e-05
 146    -2.2808621136476e-06
 147    -5.6741018013434e-06
 148    -1.1871195977137e-05
 149    -1.4800971036257e-05
 150    3.5666278612078e-06
 151    5.6960632903461e-05
 152    6.9237846537568e-06
 153    3.628952228642e-06
 154    2.9511644910643e-06
 155    -4.197842010071e-06
 156    3.8788251396701e-06
 157    -1.4780794947062e-06
 158    -1.1785081153135e-05
 159    3.1360762632922e-05
 160    -5.7191252711555e-06
 161    1.5917232601576e-07
 162    1.2901681662441e-06
 163    4.7480462484797e-05
 164    -2.1779882931796e-05
 165    -9.7503093646346e-06
 166    -4.134793322934e-06
 167    5.439598108288e-07
 168    1.9543980429744e-07
 169    -7.0415380680534e-07
 170    -1.8439048873102e-06
 171    4.9838935175737e-07
 172    1.1622692831884e-05
 173    -2.1602990271917e-05
 174    3.7373305344953e-06
 175    1.6048059000683e-07
 176    -1.0363131478451e-05
 177    2.696280984403e-06
 178    1.4963104026569e-06
 179    2.6483341340878e-05
 180    -1.5758022149784e-06
 181    -4.5548034570584e-06
 182    -7.3954974827874e-07
 183    1.2751926155435e-06
 184    -1.5230002385982e-06
 185    3.2371311296782e-06
 186    2.8496349483781e-05
 187    -8.0823211768382e-05
 188    2.3770362317232e-06
 189    -7.5708202870051e-07
 190    -5.2269751633333e-06
 191    1.2179752973906e-06
 192    1.2329753166418e-05
 193    6.994430145729e-05
 194    -3.3000116776513e-06
 195    -1.571055200931e-06
 196    -2.5513613721019e-06
 197    3.3826355885224e-07
 198    -3.5912894022512e-07
 199    7.5073541993809e-06
 200    3.6892435692829e-07
 201    2.0064345338275e-06
 202    -2.0376164669984e-05
 203    1.1230066669208e-05
 204    6.4487795518535e-06
 205    6.1758680389448e-07
 206    2.6101029297521e-05
 207    -9.8607259944158e-06
 208    6.4017952877753e-05
 209    -1.0375232867616e-05
 210    2.6050142986041e-05
 211    -5.7512986479104e-06
 212    -1.6739829910007e-05
 213    5.9539905660225e-07
 214    2.0131898860125e-05
 215    2.3937853036321e-06
 216    2.8925406558949e-05
 217    -1.3966471174953e-06
 218    -8.1224639575677e-06
 219    -4.976613917918e-07
 220    8.735024794229e-07
 221    8.3912318396203e-06
 222    8.1445070638753e-05
 223    -0.00080810205225567
 224    1.0690008678801e-05
 225    1.0379175031431e-06
 226    -1.2181327001277e-05
 227    -0.00059989849825366
 228    -0.00028864944275081
 229    0.00088187403733009
 230    -1.4575095203473e-06
 231    4.079619363507e-05
 232    2.038109966193e-05
 233    -2.040268139752e-05
 234    -2.1281740842793e-05
 235    1.4156065129704e-05
 236    6.525611181155e-05
 237    0.00019130828620584
 238    2.8302946976051e-05
 239    8.6739214043826e-06
 240    -2.6915517065952e-05
 241    -0.00026101351393425
 242    -0.00031453144422133
 243    0.0014513766984212
 244    -1.0176368982222e-05
 245    -6.5670148628452e-05
 246    -1.3667691284088e-05
 247    -1.6978565010205e-05
 248    9.8841563997815e-07
 249    3.3649048638394e-05
 250    -0.00029345588007735
 251    -4.4356819120828e-06
 252    0.00040011653839249
 253    -0.0020399254651075
 254    -5.8150839915146e-05
 255    3.9115927848632e-05
 256    -0.0001971482633744
 257    4.042749747777e-05
 258    -0.00040109331867619
 259     0.001739947905404
 260    5.9050613670193e-05
 261    1.6058035910415e-05
 262    1.6846442447508e-05
 263    -0.00013067783951864
 264    -8.2388951472922e-05
 265    0.00010047272684399
 266    -0.00018673579379709
 267    0.0001287786339435
 268    0.00050142395977281
 269    5.4077301694021e-05
 270    0.00049902725430329
 271    -0.0066029016860651
 272    5.9512470717688e-05
 273    -9.8295805692527e-05
 274    -0.00012786336565881
 275    0.0015879978371912
 276    0.0027368229865625
 277    -0.0025617947841558
 278    -7.7005495582918e-05
 279    0.00017358748961406
 280    8.6384685112149e-05
 281    2.9633057948487e-05