[Molden Format]
made by pyscf v[2.0.1]
[Atoms] (AU)
C   1   6     0.69100024066471     0.64692934207205    -3.48223131169301
H   2   1     2.68052439830868     1.13355088658700    -3.25784032593313
C   3   6    -0.36286361513219     0.85440132524594    -5.97030179418974
H   4   1    -2.35448549047279     0.36322488579172    -6.17995817793143
C   5   6     0.93697958957450     1.61209284601821    -8.05828437677121
H   6   1     2.50035468987728     2.93484935641869    -7.84122146962088
C   7   6     0.36255105159660     0.76050131278393   -10.56848504450332
H   8   1    -1.20802221204617    -0.56532983436663   -10.75608465244450
H   9   1     1.55630230933075    -1.92953025305990    12.99630010416247
C   10   6     0.75233899775814    -2.21270439606481    11.10705728102219
H   11   1    -0.43433408177274    -3.90944857546550    11.22216085340412
C   12   6     2.86362581178706    -2.63237380607947     9.17926416456045
H   13   1     4.39038949912609    -1.24955421540245     9.49899813497433
H   14   1     3.74629220191363    -4.48798724300892     9.47414880959024
C   15   6     2.02478325613682    -2.42177285709634     6.44560829588644
C   16   6     3.88048732735477    -3.58795445234514     4.61402886975252
C   17   6    -0.18412382258602    -1.30464291234259     5.76021113872346
C   18   6    -2.10044360464350    -0.26837831858460     7.71610340967100
C   19   6    -3.08956938670431     2.35282328359417     6.88693925039594
C   20   6    -4.37372924086464    -2.09766595989678     7.93610724222001
C   21   6    -0.83850430601230     0.06372213486173    10.33002307638377
H   22   1     0.38411922151109     1.74281358582432    10.27380136542181
H   23   1    -2.30980003007874     0.45460143924521    11.73986301809809
H   24   1     4.58527064644668    -5.38706904487420     5.36778158031719
H   25   1     5.54944938085014    -2.37631462192748     4.35398898413318
H   26   1     3.06633019150423    -3.94118377050688     2.75255466040884
H   27   1    -4.17727778763735     2.26573369139522     5.12914900961283
H   28   1    -1.52662344944051     3.68001877445626     6.59540397144508
H   29   1    -4.32916174397830     3.13643051467482     8.35225460090378
H   30   1    -5.32329548508442    -2.36691813602939     6.11583672749896
H   31   1    -5.77989366602257    -1.33896741843465     9.25748940450990
H   32   1    -3.79310905208926    -3.96389819310853     8.61386170102686
C   33   6    -1.01100794811226    -1.06331657314144     3.11929490449947
C   34   6     0.37686231036534    -0.33275864505552     1.09165013605873
H   35   1    -3.01671213906703    -1.40297922279997     2.77827895090944
C   36   6    -0.64382707979370    -0.11591880174385    -1.42063131251064
H   37   1     2.35569259782137     0.17174499283897     1.33641070251401
H   38   1    -2.63317482980319    -0.60229203511219    -1.66119700387645
C   39   6     1.60144441070444     1.46482489722556   -12.70057441592292
C   40   6     0.86980516734608     0.48994136718256   -15.17470632539007
H   41   1     3.18180515535191     2.77908821383906   -12.64635086980665
O   42   8     1.89724046327418     1.04291297454121   -17.16453627851552
H   43   1    -0.75645459108880    -0.84958730954869   -15.14122439828819
[GTO]
1 0
 s    6 1.00
             3047.5249  0.0018347001629433
             457.36951    0.01403730124668
             103.94869   0.068842606114048
             29.210155    0.23218442062076
              9.286663    0.46794134155879
              3.163927    0.36231203217765
 s    3 1.00
             7.8682724   -0.11933240861517
             1.8812885   -0.16085421161283
             0.5442493     1.1434564825515
 s    1 1.00
             0.1687144                   1
 p    3 1.00
             7.8682724   0.068999095584993
             1.8812885    0.31642397975315
             0.5442493    0.74430825237435
 p    1 1.00
             0.1687144                   1
 d    1 1.00
                   0.8                   1

2 0
 s    3 1.00
             18.731137    0.03349459952309
             2.8253937    0.23472694665786
             0.6401217    0.81375731841339
 s    1 1.00
             0.1612778                   1

3 0
 s    6 1.00
             3047.5249  0.0018347001629433
             457.36951    0.01403730124668
             103.94869   0.068842606114048
             29.210155    0.23218442062076
              9.286663    0.46794134155879
              3.163927    0.36231203217765
 s    3 1.00
             7.8682724   -0.11933240861517
             1.8812885   -0.16085421161283
             0.5442493     1.1434564825515
 s    1 1.00
             0.1687144                   1
 p    3 1.00
             7.8682724   0.068999095584993
             1.8812885    0.31642397975315
             0.5442493    0.74430825237435
 p    1 1.00
             0.1687144                   1
 d    1 1.00
                   0.8                   1

4 0
 s    3 1.00
             18.731137    0.03349459952309
             2.8253937    0.23472694665786
             0.6401217    0.81375731841339
 s    1 1.00
             0.1612778                   1

5 0
 s    6 1.00
             3047.5249  0.0018347001629433
             457.36951    0.01403730124668
             103.94869   0.068842606114048
             29.210155    0.23218442062076
              9.286663    0.46794134155879
              3.163927    0.36231203217765
 s    3 1.00
             7.8682724   -0.11933240861517
             1.8812885   -0.16085421161283
             0.5442493     1.1434564825515
 s    1 1.00
             0.1687144                   1
 p    3 1.00
             7.8682724   0.068999095584993
             1.8812885    0.31642397975315
             0.5442493    0.74430825237435
 p    1 1.00
             0.1687144                   1
 d    1 1.00
                   0.8                   1

6 0
 s    3 1.00
             18.731137    0.03349459952309
             2.8253937    0.23472694665786
             0.6401217    0.81375731841339
 s    1 1.00
             0.1612778                   1

7 0
 s    6 1.00
             3047.5249  0.0018347001629433
             457.36951    0.01403730124668
             103.94869   0.068842606114048
             29.210155    0.23218442062076
              9.286663    0.46794134155879
              3.163927    0.36231203217765
 s    3 1.00
             7.8682724   -0.11933240861517
             1.8812885   -0.16085421161283
             0.5442493     1.1434564825515
 s    1 1.00
             0.1687144                   1
 p    3 1.00
             7.8682724   0.068999095584993
             1.8812885    0.31642397975315
             0.5442493    0.74430825237435
 p    1 1.00
             0.1687144                   1
 d    1 1.00
                   0.8                   1

8 0
 s    3 1.00
             18.731137    0.03349459952309
             2.8253937    0.23472694665786
             0.6401217    0.81375731841339
 s    1 1.00
             0.1612778                   1

9 0
 s    3 1.00
             18.731137    0.03349459952309
             2.8253937    0.23472694665786
             0.6401217    0.81375731841339
 s    1 1.00
             0.1612778                   1

10 0
 s    6 1.00
             3047.5249  0.0018347001629433
             457.36951    0.01403730124668
             103.94869   0.068842606114048
             29.210155    0.23218442062076
              9.286663    0.46794134155879
              3.163927    0.36231203217765
 s    3 1.00
             7.8682724   -0.11933240861517
             1.8812885   -0.16085421161283
             0.5442493     1.1434564825515
 s    1 1.00
             0.1687144                   1
 p    3 1.00
             7.8682724   0.068999095584993
             1.8812885    0.31642397975315
             0.5442493    0.74430825237435
 p    1 1.00
             0.1687144                   1
 d    1 1.00
                   0.8                   1

11 0
 s    3 1.00
             18.731137    0.03349459952309
             2.8253937    0.23472694665786
             0.6401217    0.81375731841339
 s    1 1.00
             0.1612778                   1

12 0
 s    6 1.00
             3047.5249  0.0018347001629433
             457.36951    0.01403730124668
             103.94869   0.068842606114048
             29.210155    0.23218442062076
              9.286663    0.46794134155879
              3.163927    0.36231203217765
 s    3 1.00
             7.8682724   -0.11933240861517
             1.8812885   -0.16085421161283
             0.5442493     1.1434564825515
 s    1 1.00
             0.1687144                   1
 p    3 1.00
             7.8682724   0.068999095584993
             1.8812885    0.31642397975315
             0.5442493    0.74430825237435
 p    1 1.00
             0.1687144                   1
 d    1 1.00
                   0.8                   1

13 0
 s    3 1.00
             18.731137    0.03349459952309
             2.8253937    0.23472694665786
             0.6401217    0.81375731841339
 s    1 1.00
             0.1612778                   1

14 0
 s    3 1.00
             18.731137    0.03349459952309
             2.8253937    0.23472694665786
             0.6401217    0.81375731841339
 s    1 1.00
             0.1612778                   1

15 0
 s    6 1.00
             3047.5249  0.0018347001629433
             457.36951    0.01403730124668
             103.94869   0.068842606114048
             29.210155    0.23218442062076
              9.286663    0.46794134155879
              3.163927    0.36231203217765
 s    3 1.00
             7.8682724   -0.11933240861517
             1.8812885   -0.16085421161283
             0.5442493     1.1434564825515
 s    1 1.00
             0.1687144                   1
 p    3 1.00
             7.8682724   0.068999095584993
             1.8812885    0.31642397975315
             0.5442493    0.74430825237435
 p    1 1.00
             0.1687144                   1
 d    1 1.00
                   0.8                   1

16 0
 s    6 1.00
             3047.5249  0.0018347001629433
             457.36951    0.01403730124668
             103.94869   0.068842606114048
             29.210155    0.23218442062076
              9.286663    0.46794134155879
              3.163927    0.36231203217765
 s    3 1.00
             7.8682724   -0.11933240861517
             1.8812885   -0.16085421161283
             0.5442493     1.1434564825515
 s    1 1.00
             0.1687144                   1
 p    3 1.00
             7.8682724   0.068999095584993
             1.8812885    0.31642397975315
             0.5442493    0.74430825237435
 p    1 1.00
             0.1687144                   1
 d    1 1.00
                   0.8                   1

17 0
 s    6 1.00
             3047.5249  0.0018347001629433
             457.36951    0.01403730124668
             103.94869   0.068842606114048
             29.210155    0.23218442062076
              9.286663    0.46794134155879
              3.163927    0.36231203217765
 s    3 1.00
             7.8682724   -0.11933240861517
             1.8812885   -0.16085421161283
             0.5442493     1.1434564825515
 s    1 1.00
             0.1687144                   1
 p    3 1.00
             7.8682724   0.068999095584993
             1.8812885    0.31642397975315
             0.5442493    0.74430825237435
 p    1 1.00
             0.1687144                   1
 d    1 1.00
                   0.8                   1

18 0
 s    6 1.00
             3047.5249  0.0018347001629433
             457.36951    0.01403730124668
             103.94869   0.068842606114048
             29.210155    0.23218442062076
              9.286663    0.46794134155879
              3.163927    0.36231203217765
 s    3 1.00
             7.8682724   -0.11933240861517
             1.8812885   -0.16085421161283
             0.5442493     1.1434564825515
 s    1 1.00
             0.1687144                   1
 p    3 1.00
             7.8682724   0.068999095584993
             1.8812885    0.31642397975315
             0.5442493    0.74430825237435
 p    1 1.00
             0.1687144                   1
 d    1 1.00
                   0.8                   1

19 0
 s    6 1.00
             3047.5249  0.0018347001629433
             457.36951    0.01403730124668
             103.94869   0.068842606114048
             29.210155    0.23218442062076
              9.286663    0.46794134155879
              3.163927    0.36231203217765
 s    3 1.00
             7.8682724   -0.11933240861517
             1.8812885   -0.16085421161283
             0.5442493     1.1434564825515
 s    1 1.00
             0.1687144                   1
 p    3 1.00
             7.8682724   0.068999095584993
             1.8812885    0.31642397975315
             0.5442493    0.74430825237435
 p    1 1.00
             0.1687144                   1
 d    1 1.00
                   0.8                   1

20 0
 s    6 1.00
             3047.5249  0.0018347001629433
             457.36951    0.01403730124668
             103.94869   0.068842606114048
             29.210155    0.23218442062076
              9.286663    0.46794134155879
              3.163927    0.36231203217765
 s    3 1.00
             7.8682724   -0.11933240861517
             1.8812885   -0.16085421161283
             0.5442493     1.1434564825515
 s    1 1.00
             0.1687144                   1
 p    3 1.00
             7.8682724   0.068999095584993
             1.8812885    0.31642397975315
             0.5442493    0.74430825237435
 p    1 1.00
             0.1687144                   1
 d    1 1.00
                   0.8                   1

21 0
 s    6 1.00
             3047.5249  0.0018347001629433
             457.36951    0.01403730124668
             103.94869   0.068842606114048
             29.210155    0.23218442062076
              9.286663    0.46794134155879
              3.163927    0.36231203217765
 s    3 1.00
             7.8682724   -0.11933240861517
             1.8812885   -0.16085421161283
             0.5442493     1.1434564825515
 s    1 1.00
             0.1687144                   1
 p    3 1.00
             7.8682724   0.068999095584993
             1.8812885    0.31642397975315
             0.5442493    0.74430825237435
 p    1 1.00
             0.1687144                   1
 d    1 1.00
                   0.8                   1

22 0
 s    3 1.00
             18.731137    0.03349459952309
             2.8253937    0.23472694665786
             0.6401217    0.81375731841339
 s    1 1.00
             0.1612778                   1

23 0
 s    3 1.00
             18.731137    0.03349459952309
             2.8253937    0.23472694665786
             0.6401217    0.81375731841339
 s    1 1.00
             0.1612778                   1

24 0
 s    3 1.00
             18.731137    0.03349459952309
             2.8253937    0.23472694665786
             0.6401217    0.81375731841339
 s    1 1.00
             0.1612778                   1

25 0
 s    3 1.00
             18.731137    0.03349459952309
             2.8253937    0.23472694665786
             0.6401217    0.81375731841339
 s    1 1.00
             0.1612778                   1

26 0
 s    3 1.00
             18.731137    0.03349459952309
             2.8253937    0.23472694665786
             0.6401217    0.81375731841339
 s    1 1.00
             0.1612778                   1

27 0
 s    3 1.00
             18.731137    0.03349459952309
             2.8253937    0.23472694665786
             0.6401217    0.81375731841339
 s    1 1.00
             0.1612778                   1

28 0
 s    3 1.00
             18.731137    0.03349459952309
             2.8253937    0.23472694665786
             0.6401217    0.81375731841339
 s    1 1.00
             0.1612778                   1

29 0
 s    3 1.00
             18.731137    0.03349459952309
             2.8253937    0.23472694665786
             0.6401217    0.81375731841339
 s    1 1.00
             0.1612778                   1

30 0
 s    3 1.00
             18.731137    0.03349459952309
             2.8253937    0.23472694665786
             0.6401217    0.81375731841339
 s    1 1.00
             0.1612778                   1

31 0
 s    3 1.00
             18.731137    0.03349459952309
             2.8253937    0.23472694665786
             0.6401217    0.81375731841339
 s    1 1.00
             0.1612778                   1

32 0
 s    3 1.00
             18.731137    0.03349459952309
             2.8253937    0.23472694665786
             0.6401217    0.81375731841339
 s    1 1.00
             0.1612778                   1

33 0
 s    6 1.00
             3047.5249  0.0018347001629433
             457.36951    0.01403730124668
             103.94869   0.068842606114048
             29.210155    0.23218442062076
              9.286663    0.46794134155879
              3.163927    0.36231203217765
 s    3 1.00
             7.8682724   -0.11933240861517
             1.8812885   -0.16085421161283
             0.5442493     1.1434564825515
 s    1 1.00
             0.1687144                   1
 p    3 1.00
             7.8682724   0.068999095584993
             1.8812885    0.31642397975315
             0.5442493    0.74430825237435
 p    1 1.00
             0.1687144                   1
 d    1 1.00
                   0.8                   1

34 0
 s    6 1.00
             3047.5249  0.0018347001629433
             457.36951    0.01403730124668
             103.94869   0.068842606114048
             29.210155    0.23218442062076
              9.286663    0.46794134155879
              3.163927    0.36231203217765
 s    3 1.00
             7.8682724   -0.11933240861517
             1.8812885   -0.16085421161283
             0.5442493     1.1434564825515
 s    1 1.00
             0.1687144                   1
 p    3 1.00
             7.8682724   0.068999095584993
             1.8812885    0.31642397975315
             0.5442493    0.74430825237435
 p    1 1.00
             0.1687144                   1
 d    1 1.00
                   0.8                   1

35 0
 s    3 1.00
             18.731137    0.03349459952309
             2.8253937    0.23472694665786
             0.6401217    0.81375731841339
 s    1 1.00
             0.1612778                   1

36 0
 s    6 1.00
             3047.5249  0.0018347001629433
             457.36951    0.01403730124668
             103.94869   0.068842606114048
             29.210155    0.23218442062076
              9.286663    0.46794134155879
              3.163927    0.36231203217765
 s    3 1.00
             7.8682724   -0.11933240861517
             1.8812885   -0.16085421161283
             0.5442493     1.1434564825515
 s    1 1.00
             0.1687144                   1
 p    3 1.00
             7.8682724   0.068999095584993
             1.8812885    0.31642397975315
             0.5442493    0.74430825237435
 p    1 1.00
             0.1687144                   1
 d    1 1.00
                   0.8                   1

37 0
 s    3 1.00
             18.731137    0.03349459952309
             2.8253937    0.23472694665786
             0.6401217    0.81375731841339
 s    1 1.00
             0.1612778                   1

38 0
 s    3 1.00
             18.731137    0.03349459952309
             2.8253937    0.23472694665786
             0.6401217    0.81375731841339
 s    1 1.00
             0.1612778                   1

39 0
 s    6 1.00
             3047.5249  0.0018347001629433
             457.36951    0.01403730124668
             103.94869   0.068842606114048
             29.210155    0.23218442062076
              9.286663    0.46794134155879
              3.163927    0.36231203217765
 s    3 1.00
             7.8682724   -0.11933240861517
             1.8812885   -0.16085421161283
             0.5442493     1.1434564825515
 s    1 1.00
             0.1687144                   1
 p    3 1.00
             7.8682724   0.068999095584993
             1.8812885    0.31642397975315
             0.5442493    0.74430825237435
 p    1 1.00
             0.1687144                   1
 d    1 1.00
                   0.8                   1

40 0
 s    6 1.00
             3047.5249  0.0018347001629433
             457.36951    0.01403730124668
             103.94869   0.068842606114048
             29.210155    0.23218442062076
              9.286663    0.46794134155879
              3.163927    0.36231203217765
 s    3 1.00
             7.8682724   -0.11933240861517
             1.8812885   -0.16085421161283
             0.5442493     1.1434564825515
 s    1 1.00
             0.1687144                   1
 p    3 1.00
             7.8682724   0.068999095584993
             1.8812885    0.31642397975315
             0.5442493    0.74430825237435
 p    1 1.00
             0.1687144                   1
 d    1 1.00
                   0.8                   1

41 0
 s    3 1.00
             18.731137    0.03349459952309
             2.8253937    0.23472694665786
             0.6401217    0.81375731841339
 s    1 1.00
             0.1612778                   1

42 0
 s    6 1.00
             5484.6717   0.001831099805527
             825.23495   0.013950098518422
             188.04696    0.06844509273075
               52.9645    0.23271427528445
              16.89757    0.47019295006289
             5.7996353    0.35852086192309
 s    3 1.00
             15.539616   -0.11077750382508
             3.5999336   -0.14802630511126
             1.0137618     1.1307670390447
 s    1 1.00
             0.2700058                   1
 p    3 1.00
             15.539616   0.070874299543311
             3.5999336    0.33975279781076
             1.0137618    0.72715859531445
 p    1 1.00
             0.2700058                   1
 d    1 1.00
                   0.8                   1

43 0
 s    3 1.00
             18.731137    0.03349459952309
             2.8253937    0.23472694665786
             0.6401217    0.81375731841339
 s    1 1.00
             0.1612778                   1

[5d]
[7f]
[9g]

[MO]
 Sym= A
 Ene=               0
 Spin= Alpha
 Occup=    1.00000
   1    2.3086090299943e-05
   2    -3.786109598082e-05
   3    0.00016235004449539
   4    1.4213224794066e-05
   5    -3.9601647510551e-05
   6    -2.9219279680233e-06
   7    -0.00014676029638717
   8    0.00019345324939877
   9    -0.0004822844583657
  10    1.1783479994436e-05
  11    3.220592581099e-05
  12    5.7589924648677e-06
  13    1.3052562406663e-05
  14    3.2872214026086e-06
  15    -1.562261968106e-05
  16    0.00015240286721313
  17    0.00052629703880823
  18    -0.00036233472536662
  19     0.001294324173452
  20    -3.2304768207503e-05
  21    1.715538052769e-06
  22    0.00019114531453478
  23    0.00028978552468649
  24    0.00030444659154136
  25    -0.0010586573028308
  26    -4.5967278118553e-05
  27    -7.4290331938366e-06
  28    2.4559662679706e-05
  29    3.6159053512238e-05
  30    0.00013491172339791
  31    -8.1565639914689e-05
  32    -9.6821478939022e-05
  33     0.014333449396821
  34    -0.00099239419691801
  35    0.0066234692902111
  36    0.00023627480806029
  37    0.00036716175870981
  38    0.0011139155708471
  39    0.00058234489483389
  40    -0.00020278168689589
  41    -0.0043129089228859
  42    -0.00096958004797638
  43    -0.00052920052630563
  44    -0.0007288093788297
  45    5.678956534885e-05
  46    -0.00021706237576331
  47    -0.00040898142557893
  48    -0.0005300987195071
  49      0.99499112024896
  50     0.036045312817007
  51    -0.027930698759604
  52    0.00060066777933836
  53    0.00042177220089639
  54    -0.00012085447114675
  55    -0.0026515673176962
  56    -0.0022337117502877
  57    -0.00042652533844424
  58    0.00085774475897139
  59    -0.00042029976632104
  60    -7.6019939456817e-05
  61     0.000103887793847
  62    0.00030065048404812
  63    -0.0011240700469756
  64    0.0037907907355964
  65    -2.6844686614748e-07
  66    -1.1237441554024e-06
  67    7.2741679011646e-08
  68    7.0368353856526e-08
  69    1.5706698754054e-06
  70    -4.601720267669e-07
  71    -1.0338697488121e-07
  72    1.453650920088e-07
  73    1.0862677860239e-06
  74    3.3419588966498e-06
  75    1.8644905601292e-06
  76    -1.2154528113047e-07
  77    -7.011299396343e-08
  78    -1.4194241052622e-08
  79    2.4189742215925e-08
  80    -8.806985499911e-08
  81    4.9334651971564e-07
  82    1.1990424406024e-06
  83    -1.169771019311e-07
  84    -1.5352149125516e-06
  85    -1.5285747766334e-05
  86    1.3532342143583e-06
  87    4.2873968305608e-07
  88    9.9315952862718e-07
  89    2.4139468503828e-06
  90    -4.4984107368436e-06
  91    4.6552281396358e-06
  92    3.6640395123096e-07
  93    -1.5694400608534e-07
  94    2.245559019777e-07
  95    1.7710213543808e-07
  96    -1.5732663015349e-07
  97    1.2011027098962e-06
  98    2.1759693684758e-06
  99    -2.2171302238213e-07
 100    -2.6278247963385e-06
 101    2.8241126194982e-07
 102    2.1443385770588e-06
 103    -3.577415461357e-05
 104    -7.9927733974629e-07
 105    -4.103136076637e-06
 106    -2.5050561126784e-07
 107    -1.4241079403808e-05
 108    9.9548096702766e-06
 109     5.54642791375e-05
 110    -1.5748927996023e-06
 111    -8.4644552902387e-07
 112    5.082265968718e-07
 113    -6.0173875851654e-08
 114    3.0709358749948e-08
 115    -1.0237792481644e-06
 116    -8.0792031253723e-06
 117    5.3627076835341e-05
 118    -2.3690560647211e-07
 119    -1.3403924556257e-06
 120    1.9891644256278e-06
 121    -1.9357474547981e-05
 122    2.0568351848117e-05
 123    -4.4606557541604e-07
 124    -3.0283691062416e-07
 125    -7.3852063500631e-07
 126    6.5456598070701e-07
 127    1.0219949392361e-06
 128    -3.8508609213185e-07
 129    -1.3985559397751e-06
 130    -1.0419509205163e-05
 131    5.6524330501471e-05
 132    -2.4868940454001e-06
 133    -1.1572168569837e-06
 134    4.1598624015725e-06
 135    2.1953603839748e-05
 136    -1.6776211428858e-05
 137    -0.0001044229592657
 138    2.0755554743396e-06
 139    2.3151428370925e-06
 140    -1.1225661742172e-06
 141    6.6231290060759e-07
 142    -4.8410022707056e-07
 143    -7.9980836369944e-07
 144    -9.0417797997118e-06
 145    5.7951788786097e-05
 146    1.1657441998431e-07
 147    1.0110506086034e-06
 148    1.2413271486444e-06
 149     2.14529930051e-05
 150    -1.6879905529548e-05
 151    -1.7143370439664e-05
 152    -6.0747367361922e-07
 153    -1.2156029510863e-06
 154    4.7976093039614e-07
 155    8.5809985134721e-07
 156    -1.018512259283e-06
 157    1.0933465814561e-07
 158    4.066692009293e-08
 159    3.5095386145414e-07
 160    5.9654487834371e-07
 161    2.0666271085718e-07
 162    7.2955456184366e-08
 163    -5.2999721496068e-06
 164    5.5381399942693e-07
 165    3.9201542722287e-06
 166    7.6011400610424e-07
 167    -5.7374342671226e-07
 168    -2.3735480273357e-07
 169    3.4413119463554e-08
 170    1.6765365777241e-07
 171    2.2416825803178e-08
 172    -9.5086334370927e-07
 173    -5.930619989248e-06
 174    -1.5674494028575e-06
 175    -3.616301446065e-07
 176    7.4308499947947e-07
 177    -9.3535243897534e-07
 178    5.7750755238211e-07
 179    -1.5899733227733e-06
 180    1.3965446293308e-07
 181    1.739063411806e-07
 182    4.5401614517196e-07
 183    -6.0753116639091e-07
 184    -2.3163997210064e-08
 185    -2.9999213017923e-07
 186    -1.9834538825613e-06
 187    1.4973013397452e-07
 188    1.0761538484211e-07
 189    5.9164654761042e-08
 190    6.6859284296461e-07
 191    -1.0772462712325e-06
 192    2.083752406967e-06
 193    -4.145723240575e-06
 194    3.0237724150593e-08
 195    -3.5587980529989e-08
 196    6.7755161461564e-09
 197    3.6609865967166e-07
 198    -2.0607171897789e-07
 199    -1.2995279979904e-07
 200    -8.4867677580278e-07
 201    -5.4555138753266e-07
 202    2.0393351291341e-06
 203    -1.1479144895239e-06
 204    6.8570356564154e-06
 205    -2.084292820502e-06
 206    -3.6937403515847e-06
 207    -1.6001510736646e-06
 208    -7.3029081306619e-06
 209    8.4221515187766e-07
 210    -2.1856017956702e-06
 211    8.0796014663023e-07
 212    1.743215671879e-06
 213    -3.7533821467311e-07
 214    -1.9925871227301e-06
 215    -1.2493766552244e-07
 216    7.8229357107496e-07
 217    1.6148494171754e-07
 218    2.3372299052762e-06
 219    1.1710086294379e-07
 220    1.3204525638505e-06
 221    -6.8563286746767e-08
 222    -6.8538413100059e-06
 223    -3.4487021828342e-05
 224    -4.7518774097473e-07
 225    3.1355273351594e-06
 226    6.5268349205736e-06
 227    2.1293118989741e-06
 228    2.568504679241e-05
 229    -6.8710489962542e-05
 230    -1.4250723518958e-06
 231    -3.9541289575639e-06
 232    -1.6063062232154e-07
 233    2.4668284690715e-06
 234    1.9088741666702e-06
 235    -5.2948984014717e-06
 236    -3.3627708332791e-05
 237    0.00018849806501234
 238    -7.5145493518743e-06
 239    5.4581447304762e-06
 240    2.7061747197396e-06
 241    -7.5917302157315e-05
 242    3.3583392833447e-05
 243    -0.00015139462146781
 244    6.5163020875617e-06
 245    9.871784101097e-06
 246    -4.0723775272927e-06
 247    5.6909417212989e-06
 248    -1.6984287941338e-06
 249    -3.6065521950954e-06
 250    7.0392033232089e-06
 251    3.6910629545577e-06
 252    -1.6681468634039e-05
 253    0.00010201434569176
 254    8.7140741521173e-07
 255    1.0428921307254e-05
 256    2.0961223515027e-05
 257    0.00013498054041418
 258    2.7086978171681e-05
 259    -0.0003448276441554
 260    -1.775655636984e-06
 261    -2.1892787694467e-05
 262    -4.9731768494975e-07
 263    1.3566227187621e-05
 264    2.9681473710943e-06
 265    -6.7321200774204e-06
 266    1.3096283023939e-05
 267    -1.7336261273196e-05
 268    9.323767875809e-05
 269    0.00010840759408917
 270    -0.0020469163302202
 271    0.0085414916240298
 272    0.00079314402615216
 273    0.00045934646947514
 274    -0.0013225048216924
 275    -0.00065398845957647
 276    2.0573696456444e-05
 277    0.0037343507181058
 278    -0.00064065420474552
 279    0.00097083592896884
 280    0.00056782447868279