[Molden Format]
made by pyscf v[2.0.1]
[Atoms] (AU)
C   1   6     0.69100024066471     0.64692934207205    -3.48223131169301
H   2   1     2.68052439830868     1.13355088658700    -3.25784032593313
C   3   6    -0.36286361513219     0.85440132524594    -5.97030179418974
H   4   1    -2.35448549047279     0.36322488579172    -6.17995817793143
C   5   6     0.93697958957450     1.61209284601821    -8.05828437677121
H   6   1    -0.04002876534153     1.70579051152009    -9.86870372539436
C   7   6     3.55882871340184     2.30532870411993    -8.01809862923490
H   8   1     4.51217335653741     2.20318273111775    -6.19041637810672
H   9   1     1.55630230933075    -1.92953025305990    12.99630010416247
C   10   6     0.75233899775814    -2.21270439606481    11.10705728102219
H   11   1    -0.43433408177274    -3.90944857546550    11.22216085340412
C   12   6     2.86362581178706    -2.63237380607947     9.17926416456045
H   13   1     4.39038949912609    -1.24955421540245     9.49899813497433
H   14   1     3.74629220191363    -4.48798724300892     9.47414880959024
C   15   6     2.02478325613682    -2.42177285709634     6.44560829588644
C   16   6     3.88048732735477    -3.58795445234514     4.61402886975252
C   17   6    -0.18412382258602    -1.30464291234259     5.76021113872346
C   18   6    -2.10044360464350    -0.26837831858460     7.71610340967100
C   19   6    -3.08956938670431     2.35282328359417     6.88693925039594
C   20   6    -4.37372924086464    -2.09766595989678     7.93610724222001
C   21   6    -0.83850430601230     0.06372213486173    10.33002307638377
H   22   1     0.38411922151109     1.74281358582432    10.27380136542181
H   23   1    -2.30980003007874     0.45460143924521    11.73986301809809
H   24   1     4.58527064644668    -5.38706904487420     5.36778158031719
H   25   1     5.54944938085014    -2.37631462192748     4.35398898413318
H   26   1     3.06633019150423    -3.94118377050688     2.75255466040884
H   27   1    -4.17727778763735     2.26573369139522     5.12914900961283
H   28   1    -1.52662344944051     3.68001877445626     6.59540397144508
H   29   1    -4.32916174397830     3.13643051467482     8.35225460090378
H   30   1    -5.32329548508442    -2.36691813602939     6.11583672749896
H   31   1    -5.77989366602257    -1.33896741843465     9.25748940450990
H   32   1    -3.79310905208926    -3.96389819310853     8.61386170102686
C   33   6    -1.01100794811226    -1.06331657314144     3.11929490449947
C   34   6     0.37686231036534    -0.33275864505552     1.09165013605873
H   35   1    -3.01671213906703    -1.40297922279997     2.77827895090944
C   36   6    -0.64382707979370    -0.11591880174385    -1.42063131251064
H   37   1     2.35569259782137     0.17174499283897     1.33641070251401
H   38   1    -2.63317482980319    -0.60229203511219    -1.66119700387645
C   39   6     4.92949292707610     3.06752929189425   -10.04715344157890
C   40   6     7.59555456141448     3.73329481661799    -9.81073387339210
H   41   1     4.09542353861424     3.21030697797155   -11.92110945203513
O   42   8     8.93835728030826     4.43020973545744   -11.55200196938216
H   43   1     8.37079058468688     3.56000927179912    -7.85902689076443
[GTO]
1 0
 s    6 1.00
             3047.5249  0.0018347001629433
             457.36951    0.01403730124668
             103.94869   0.068842606114048
             29.210155    0.23218442062076
              9.286663    0.46794134155879
              3.163927    0.36231203217765
 s    3 1.00
             7.8682724   -0.11933240861517
             1.8812885   -0.16085421161283
             0.5442493     1.1434564825515
 s    1 1.00
             0.1687144                   1
 p    3 1.00
             7.8682724   0.068999095584993
             1.8812885    0.31642397975315
             0.5442493    0.74430825237435
 p    1 1.00
             0.1687144                   1
 d    1 1.00
                   0.8                   1

2 0
 s    3 1.00
             18.731137    0.03349459952309
             2.8253937    0.23472694665786
             0.6401217    0.81375731841339
 s    1 1.00
             0.1612778                   1

3 0
 s    6 1.00
             3047.5249  0.0018347001629433
             457.36951    0.01403730124668
             103.94869   0.068842606114048
             29.210155    0.23218442062076
              9.286663    0.46794134155879
              3.163927    0.36231203217765
 s    3 1.00
             7.8682724   -0.11933240861517
             1.8812885   -0.16085421161283
             0.5442493     1.1434564825515
 s    1 1.00
             0.1687144                   1
 p    3 1.00
             7.8682724   0.068999095584993
             1.8812885    0.31642397975315
             0.5442493    0.74430825237435
 p    1 1.00
             0.1687144                   1
 d    1 1.00
                   0.8                   1

4 0
 s    3 1.00
             18.731137    0.03349459952309
             2.8253937    0.23472694665786
             0.6401217    0.81375731841339
 s    1 1.00
             0.1612778                   1

5 0
 s    6 1.00
             3047.5249  0.0018347001629433
             457.36951    0.01403730124668
             103.94869   0.068842606114048
             29.210155    0.23218442062076
              9.286663    0.46794134155879
              3.163927    0.36231203217765
 s    3 1.00
             7.8682724   -0.11933240861517
             1.8812885   -0.16085421161283
             0.5442493     1.1434564825515
 s    1 1.00
             0.1687144                   1
 p    3 1.00
             7.8682724   0.068999095584993
             1.8812885    0.31642397975315
             0.5442493    0.74430825237435
 p    1 1.00
             0.1687144                   1
 d    1 1.00
                   0.8                   1

6 0
 s    3 1.00
             18.731137    0.03349459952309
             2.8253937    0.23472694665786
             0.6401217    0.81375731841339
 s    1 1.00
             0.1612778                   1

7 0
 s    6 1.00
             3047.5249  0.0018347001629433
             457.36951    0.01403730124668
             103.94869   0.068842606114048
             29.210155    0.23218442062076
              9.286663    0.46794134155879
              3.163927    0.36231203217765
 s    3 1.00
             7.8682724   -0.11933240861517
             1.8812885   -0.16085421161283
             0.5442493     1.1434564825515
 s    1 1.00
             0.1687144                   1
 p    3 1.00
             7.8682724   0.068999095584993
             1.8812885    0.31642397975315
             0.5442493    0.74430825237435
 p    1 1.00
             0.1687144                   1
 d    1 1.00
                   0.8                   1

8 0
 s    3 1.00
             18.731137    0.03349459952309
             2.8253937    0.23472694665786
             0.6401217    0.81375731841339
 s    1 1.00
             0.1612778                   1

9 0
 s    3 1.00
             18.731137    0.03349459952309
             2.8253937    0.23472694665786
             0.6401217    0.81375731841339
 s    1 1.00
             0.1612778                   1

10 0
 s    6 1.00
             3047.5249  0.0018347001629433
             457.36951    0.01403730124668
             103.94869   0.068842606114048
             29.210155    0.23218442062076
              9.286663    0.46794134155879
              3.163927    0.36231203217765
 s    3 1.00
             7.8682724   -0.11933240861517
             1.8812885   -0.16085421161283
             0.5442493     1.1434564825515
 s    1 1.00
             0.1687144                   1
 p    3 1.00
             7.8682724   0.068999095584993
             1.8812885    0.31642397975315
             0.5442493    0.74430825237435
 p    1 1.00
             0.1687144                   1
 d    1 1.00
                   0.8                   1

11 0
 s    3 1.00
             18.731137    0.03349459952309
             2.8253937    0.23472694665786
             0.6401217    0.81375731841339
 s    1 1.00
             0.1612778                   1

12 0
 s    6 1.00
             3047.5249  0.0018347001629433
             457.36951    0.01403730124668
             103.94869   0.068842606114048
             29.210155    0.23218442062076
              9.286663    0.46794134155879
              3.163927    0.36231203217765
 s    3 1.00
             7.8682724   -0.11933240861517
             1.8812885   -0.16085421161283
             0.5442493     1.1434564825515
 s    1 1.00
             0.1687144                   1
 p    3 1.00
             7.8682724   0.068999095584993
             1.8812885    0.31642397975315
             0.5442493    0.74430825237435
 p    1 1.00
             0.1687144                   1
 d    1 1.00
                   0.8                   1

13 0
 s    3 1.00
             18.731137    0.03349459952309
             2.8253937    0.23472694665786
             0.6401217    0.81375731841339
 s    1 1.00
             0.1612778                   1

14 0
 s    3 1.00
             18.731137    0.03349459952309
             2.8253937    0.23472694665786
             0.6401217    0.81375731841339
 s    1 1.00
             0.1612778                   1

15 0
 s    6 1.00
             3047.5249  0.0018347001629433
             457.36951    0.01403730124668
             103.94869   0.068842606114048
             29.210155    0.23218442062076
              9.286663    0.46794134155879
              3.163927    0.36231203217765
 s    3 1.00
             7.8682724   -0.11933240861517
             1.8812885   -0.16085421161283
             0.5442493     1.1434564825515
 s    1 1.00
             0.1687144                   1
 p    3 1.00
             7.8682724   0.068999095584993
             1.8812885    0.31642397975315
             0.5442493    0.74430825237435
 p    1 1.00
             0.1687144                   1
 d    1 1.00
                   0.8                   1

16 0
 s    6 1.00
             3047.5249  0.0018347001629433
             457.36951    0.01403730124668
             103.94869   0.068842606114048
             29.210155    0.23218442062076
              9.286663    0.46794134155879
              3.163927    0.36231203217765
 s    3 1.00
             7.8682724   -0.11933240861517
             1.8812885   -0.16085421161283
             0.5442493     1.1434564825515
 s    1 1.00
             0.1687144                   1
 p    3 1.00
             7.8682724   0.068999095584993
             1.8812885    0.31642397975315
             0.5442493    0.74430825237435
 p    1 1.00
             0.1687144                   1
 d    1 1.00
                   0.8                   1

17 0
 s    6 1.00
             3047.5249  0.0018347001629433
             457.36951    0.01403730124668
             103.94869   0.068842606114048
             29.210155    0.23218442062076
              9.286663    0.46794134155879
              3.163927    0.36231203217765
 s    3 1.00
             7.8682724   -0.11933240861517
             1.8812885   -0.16085421161283
             0.5442493     1.1434564825515
 s    1 1.00
             0.1687144                   1
 p    3 1.00
             7.8682724   0.068999095584993
             1.8812885    0.31642397975315
             0.5442493    0.74430825237435
 p    1 1.00
             0.1687144                   1
 d    1 1.00
                   0.8                   1

18 0
 s    6 1.00
             3047.5249  0.0018347001629433
             457.36951    0.01403730124668
             103.94869   0.068842606114048
             29.210155    0.23218442062076
              9.286663    0.46794134155879
              3.163927    0.36231203217765
 s    3 1.00
             7.8682724   -0.11933240861517
             1.8812885   -0.16085421161283
             0.5442493     1.1434564825515
 s    1 1.00
             0.1687144                   1
 p    3 1.00
             7.8682724   0.068999095584993
             1.8812885    0.31642397975315
             0.5442493    0.74430825237435
 p    1 1.00
             0.1687144                   1
 d    1 1.00
                   0.8                   1

19 0
 s    6 1.00
             3047.5249  0.0018347001629433
             457.36951    0.01403730124668
             103.94869   0.068842606114048
             29.210155    0.23218442062076
              9.286663    0.46794134155879
              3.163927    0.36231203217765
 s    3 1.00
             7.8682724   -0.11933240861517
             1.8812885   -0.16085421161283
             0.5442493     1.1434564825515
 s    1 1.00
             0.1687144                   1
 p    3 1.00
             7.8682724   0.068999095584993
             1.8812885    0.31642397975315
             0.5442493    0.74430825237435
 p    1 1.00
             0.1687144                   1
 d    1 1.00
                   0.8                   1

20 0
 s    6 1.00
             3047.5249  0.0018347001629433
             457.36951    0.01403730124668
             103.94869   0.068842606114048
             29.210155    0.23218442062076
              9.286663    0.46794134155879
              3.163927    0.36231203217765
 s    3 1.00
             7.8682724   -0.11933240861517
             1.8812885   -0.16085421161283
             0.5442493     1.1434564825515
 s    1 1.00
             0.1687144                   1
 p    3 1.00
             7.8682724   0.068999095584993
             1.8812885    0.31642397975315
             0.5442493    0.74430825237435
 p    1 1.00
             0.1687144                   1
 d    1 1.00
                   0.8                   1

21 0
 s    6 1.00
             3047.5249  0.0018347001629433
             457.36951    0.01403730124668
             103.94869   0.068842606114048
             29.210155    0.23218442062076
              9.286663    0.46794134155879
              3.163927    0.36231203217765
 s    3 1.00
             7.8682724   -0.11933240861517
             1.8812885   -0.16085421161283
             0.5442493     1.1434564825515
 s    1 1.00
             0.1687144                   1
 p    3 1.00
             7.8682724   0.068999095584993
             1.8812885    0.31642397975315
             0.5442493    0.74430825237435
 p    1 1.00
             0.1687144                   1
 d    1 1.00
                   0.8                   1

22 0
 s    3 1.00
             18.731137    0.03349459952309
             2.8253937    0.23472694665786
             0.6401217    0.81375731841339
 s    1 1.00
             0.1612778                   1

23 0
 s    3 1.00
             18.731137    0.03349459952309
             2.8253937    0.23472694665786
             0.6401217    0.81375731841339
 s    1 1.00
             0.1612778                   1

24 0
 s    3 1.00
             18.731137    0.03349459952309
             2.8253937    0.23472694665786
             0.6401217    0.81375731841339
 s    1 1.00
             0.1612778                   1

25 0
 s    3 1.00
             18.731137    0.03349459952309
             2.8253937    0.23472694665786
             0.6401217    0.81375731841339
 s    1 1.00
             0.1612778                   1

26 0
 s    3 1.00
             18.731137    0.03349459952309
             2.8253937    0.23472694665786
             0.6401217    0.81375731841339
 s    1 1.00
             0.1612778                   1

27 0
 s    3 1.00
             18.731137    0.03349459952309
             2.8253937    0.23472694665786
             0.6401217    0.81375731841339
 s    1 1.00
             0.1612778                   1

28 0
 s    3 1.00
             18.731137    0.03349459952309
             2.8253937    0.23472694665786
             0.6401217    0.81375731841339
 s    1 1.00
             0.1612778                   1

29 0
 s    3 1.00
             18.731137    0.03349459952309
             2.8253937    0.23472694665786
             0.6401217    0.81375731841339
 s    1 1.00
             0.1612778                   1

30 0
 s    3 1.00
             18.731137    0.03349459952309
             2.8253937    0.23472694665786
             0.6401217    0.81375731841339
 s    1 1.00
             0.1612778                   1

31 0
 s    3 1.00
             18.731137    0.03349459952309
             2.8253937    0.23472694665786
             0.6401217    0.81375731841339
 s    1 1.00
             0.1612778                   1

32 0
 s    3 1.00
             18.731137    0.03349459952309
             2.8253937    0.23472694665786
             0.6401217    0.81375731841339
 s    1 1.00
             0.1612778                   1

33 0
 s    6 1.00
             3047.5249  0.0018347001629433
             457.36951    0.01403730124668
             103.94869   0.068842606114048
             29.210155    0.23218442062076
              9.286663    0.46794134155879
              3.163927    0.36231203217765
 s    3 1.00
             7.8682724   -0.11933240861517
             1.8812885   -0.16085421161283
             0.5442493     1.1434564825515
 s    1 1.00
             0.1687144                   1
 p    3 1.00
             7.8682724   0.068999095584993
             1.8812885    0.31642397975315
             0.5442493    0.74430825237435
 p    1 1.00
             0.1687144                   1
 d    1 1.00
                   0.8                   1

34 0
 s    6 1.00
             3047.5249  0.0018347001629433
             457.36951    0.01403730124668
             103.94869   0.068842606114048
             29.210155    0.23218442062076
              9.286663    0.46794134155879
              3.163927    0.36231203217765
 s    3 1.00
             7.8682724   -0.11933240861517
             1.8812885   -0.16085421161283
             0.5442493     1.1434564825515
 s    1 1.00
             0.1687144                   1
 p    3 1.00
             7.8682724   0.068999095584993
             1.8812885    0.31642397975315
             0.5442493    0.74430825237435
 p    1 1.00
             0.1687144                   1
 d    1 1.00
                   0.8                   1

35 0
 s    3 1.00
             18.731137    0.03349459952309
             2.8253937    0.23472694665786
             0.6401217    0.81375731841339
 s    1 1.00
             0.1612778                   1

36 0
 s    6 1.00
             3047.5249  0.0018347001629433
             457.36951    0.01403730124668
             103.94869   0.068842606114048
             29.210155    0.23218442062076
              9.286663    0.46794134155879
              3.163927    0.36231203217765
 s    3 1.00
             7.8682724   -0.11933240861517
             1.8812885   -0.16085421161283
             0.5442493     1.1434564825515
 s    1 1.00
             0.1687144                   1
 p    3 1.00
             7.8682724   0.068999095584993
             1.8812885    0.31642397975315
             0.5442493    0.74430825237435
 p    1 1.00
             0.1687144                   1
 d    1 1.00
                   0.8                   1

37 0
 s    3 1.00
             18.731137    0.03349459952309
             2.8253937    0.23472694665786
             0.6401217    0.81375731841339
 s    1 1.00
             0.1612778                   1

38 0
 s    3 1.00
             18.731137    0.03349459952309
             2.8253937    0.23472694665786
             0.6401217    0.81375731841339
 s    1 1.00
             0.1612778                   1

39 0
 s    6 1.00
             3047.5249  0.0018347001629433
             457.36951    0.01403730124668
             103.94869   0.068842606114048
             29.210155    0.23218442062076
              9.286663    0.46794134155879
              3.163927    0.36231203217765
 s    3 1.00
             7.8682724   -0.11933240861517
             1.8812885   -0.16085421161283
             0.5442493     1.1434564825515
 s    1 1.00
             0.1687144                   1
 p    3 1.00
             7.8682724   0.068999095584993
             1.8812885    0.31642397975315
             0.5442493    0.74430825237435
 p    1 1.00
             0.1687144                   1
 d    1 1.00
                   0.8                   1

40 0
 s    6 1.00
             3047.5249  0.0018347001629433
             457.36951    0.01403730124668
             103.94869   0.068842606114048
             29.210155    0.23218442062076
              9.286663    0.46794134155879
              3.163927    0.36231203217765
 s    3 1.00
             7.8682724   -0.11933240861517
             1.8812885   -0.16085421161283
             0.5442493     1.1434564825515
 s    1 1.00
             0.1687144                   1
 p    3 1.00
             7.8682724   0.068999095584993
             1.8812885    0.31642397975315
             0.5442493    0.74430825237435
 p    1 1.00
             0.1687144                   1
 d    1 1.00
                   0.8                   1

41 0
 s    3 1.00
             18.731137    0.03349459952309
             2.8253937    0.23472694665786
             0.6401217    0.81375731841339
 s    1 1.00
             0.1612778                   1

42 0
 s    6 1.00
             5484.6717   0.001831099805527
             825.23495   0.013950098518422
             188.04696    0.06844509273075
               52.9645    0.23271427528445
              16.89757    0.47019295006289
             5.7996353    0.35852086192309
 s    3 1.00
             15.539616   -0.11077750382508
             3.5999336   -0.14802630511126
             1.0137618     1.1307670390447
 s    1 1.00
             0.2700058                   1
 p    3 1.00
             15.539616   0.070874299543311
             3.5999336    0.33975279781076
             1.0137618    0.72715859531445
 p    1 1.00
             0.2700058                   1
 d    1 1.00
                   0.8                   1

43 0
 s    3 1.00
             18.731137    0.03349459952309
             2.8253937    0.23472694665786
             0.6401217    0.81375731841339
 s    1 1.00
             0.1612778                   1

[5d]
[7f]
[9g]

[MO]
 Sym= A
 Ene=               0
 Spin= Alpha
 Occup=    1.00000
   1    0.00046318887855693
   2     -0.08997512412439
   3    -0.042298582106576
   4      0.02005882458306
   5     0.015178392783788
   6    -0.049884605535652
   7    -0.014938752604361
   8    -0.00020209315403895
   9    -0.019173230982133
  10    -0.0011255175142181
  11    0.0019465005153269
  12    0.0015234628983174
  13    -0.0023316259012381
  14    -0.0018408559477782
  15    -0.021003148097375
  16     0.004667428322574
  17    0.0030397447368696
  18    -0.012008159194826
  19    0.0050878151225474
  20    -0.000170111098728
  21    0.0018951553306161
  22    -0.0099808470747487
  23    -0.0023336224966247
  24    0.0045444874191319
  25    -0.026433050350662
  26    -0.0018443061344222
  27    -0.00099133994570028
  28    0.00044953812698146
  29    -0.00034640093578373
  30    -1.6337633516963e-05
  31    -0.0032911184888104
  32    -0.0046400802923383
  33    -0.0073860669943562
  34     0.038730975753399
  35     0.011396080173328
  36     0.036554531134636
  37     0.013871087648437
  38    -0.020995854293674
  39     0.027732471360426
  40     0.011200167499141
  41    -0.019322006445961
  42    -0.0025711748461325
  43    -0.0015237510056495
  44    -0.00076968450413449
  45    0.0052457043127622
  46    0.0033846186483258
  47      0.01047831774991
  48    0.0025360627180858
  49    0.0012711943838322
  50       0.2835123698818
  51      0.17415136361809
  52      0.10568422757805
  53      0.05190557941111
  54     -0.12115274084712
  55     0.049154229079509
  56     0.013310173221333
  57    -0.00089349182019711
  58    0.0085956527953252
  59    -0.0037161998067884
  60    -0.0052590767397422
  61    0.0048942933386382
  62    0.0038931101561591
  63     0.064493629781351
  64    -0.0044212094071293
  65    -1.758189374267e-05
  66    -1.869679043018e-05
  67    1.8593575978446e-06
  68    -1.6852378770539e-05
  69    9.7380321664069e-05
  70    4.6947608111807e-06
  71    -1.7950690952932e-06
  72    -3.0361549791546e-07
  73    -7.8851266440205e-05
  74    -0.00010915055159899
  75    -6.4847074290233e-05
  76    -8.9732020375029e-06
  77    -3.1579260542759e-06
  78    3.5099115364867e-06
  79    1.7352500629009e-06
  80    -3.4869222178536e-06
  81    2.3558394727618e-07
  82    -8.594060397329e-05
  83    1.5347420248524e-05
  84    -7.5015680166841e-05
  85    -0.00030524026521284
  86    6.0132042102858e-05
  87    -2.7245874611281e-05
  88    0.00013032378256953
  89    9.4489543906198e-05
  90    0.00015995092540272
  91    0.00016767990662121
  92    1.8519141533699e-06
  93    -2.1217477040803e-06
  94    -1.3547000155513e-06
  95    3.7678537130933e-06
  96    1.1985731362956e-06
  97    1.3473939766853e-05
  98    -8.5082687447049e-06
  99    2.4527660858042e-05
 100    5.6771874387735e-05
 101    -1.5103516245642e-05
 102    4.4639630662276e-05
 103    -0.00049416102118186
 104    -1.9473657555403e-05
 105    -5.3197048661011e-05
 106    -8.5840763648052e-05
 107    -0.00044775928352826
 108    -7.3959275620914e-05
 109    0.00090705015242523
 110    -2.0820288170333e-05
 111    -4.1060313937753e-05
 112    1.8196775015714e-05
 113    2.018468116472e-05
 114    -1.7019327302666e-06
 115    -4.0945392468817e-05
 116    5.6340591967085e-05
 117    0.00066907543566044
 118    -3.1079153760168e-05
 119    0.00013424745933653
 120    2.9187819848449e-05
 121    -0.00023875530987082
 122    0.00026517812407848
 123    0.00030547998545817
 124    -7.4573104083155e-06
 125    -1.2717762253897e-05
 126    1.9412527545522e-05
 127    7.2038046877241e-06
 128    -1.5351891838597e-06
 129    0.00010596982091082
 130    -0.00041676673875426
 131    0.0023317656852429
 132    0.00012833073812185
 133    -2.865243102039e-06
 134    0.00069088663366928
 135    0.00054198082327544
 136    0.00011571713004292
 137    -0.0026926918950768
 138    0.00010665737804742
 139    -5.9064729600174e-05
 140    -4.5854926975856e-05
 141    -1.9567607780881e-05
 142    -2.6820511330579e-05
 143    -5.7469903846343e-05
 144    8.6881198702845e-05
 145    0.0011133273193252
 146    9.7122989474776e-05
 147    -9.7778839449434e-05
 148    -0.0002847616926995
 149    0.00087095512111559
 150    -0.00066297379627856
 151    0.00037073412954738
 152    -3.0919646085822e-05
 153    8.0941125927804e-07
 154    1.6433210036125e-05
 155    1.6101430005797e-05
 156    -2.0893630148415e-05
 157    -1.2602879070312e-05
 158    -3.2086732632002e-05
 159    0.00049918127070047
 160    -5.8871901748829e-06
 161    -2.9980145084442e-05
 162    2.1645819687081e-05
 163    2.5631781475556e-05
 164    -0.00028128835358036
 165    -1.4268089138963e-05
 166    -1.1443539485962e-05
 167    -1.7728968658943e-06
 168    6.9928563255507e-07
 169    -1.5211131031686e-05
 170    -3.1247085144084e-06
 171    -3.9818247635526e-06
 172    5.5414030592944e-05
 173    -0.00017451980895562
 174    -8.8023923156972e-06
 175    -1.4659581547285e-07
 176    -8.9886927897102e-05
 177    -0.0001045276919044
 178    0.00016678653433919
 179    -1.1756042044729e-05
 180    -1.5971187407438e-06
 181    -2.1236641742732e-05
 182    -7.6882842842818e-06
 183    -6.6369524281034e-06
 184    9.6182169221082e-07
 185    2.6655188541081e-05
 186    -2.0206742085209e-05
 187    -0.00065362938877742
 188    3.3116473544897e-05
 189    2.9156943099335e-05
 190    0.00016084999478471
 191    0.00026130020052561
 192    0.00019336055458054
 193    0.00029642987300963
 194    -3.6250317592917e-06
 195    -1.9209314898677e-05
 196    -6.8398418100934e-06
 197    1.3177310883972e-06
 198    -7.4637561817545e-06
 199    6.7550835124932e-06
 200    -9.8772358745756e-05
 201    6.3094917603222e-05
 202    0.00016574884508252
 203    -5.8831188774994e-05
 204    -8.9398032379313e-05
 205    6.6654849348203e-05
 206    6.3082131149035e-05
 207    -6.7437024355886e-05
 208    0.00013901668973912
 209    -4.1446195167276e-05
 210    -5.1182709032405e-05
 211    -1.8005421031954e-05
 212    3.8861309112328e-07
 213    7.4174251086491e-06
 214    7.5479225718745e-05
 215    1.8778382390426e-06
 216    0.00015875598906057
 217    -4.3391959748818e-07
 218    -3.1082129588222e-05
 219    -7.697273330853e-06
 220    0.00011840713455497
 221    -0.00065056052051737
 222    0.0014032798148971
 223    -0.0049950747682994
 224    0.0008829296363694
 225    0.00049144719035194
 226    -0.0017662422583025
 227    -0.0045198111675085
 228    -0.00065351728769521
 229    -0.0017483046603684
 230    -0.00016063647464523
 231    7.0953634873766e-05
 232    9.1093046700492e-05
 233    -9.4921178256387e-06
 234    -3.6762395945871e-05
 235    0.0034723519482333
 236    -0.018570619413537
 237    -0.0083100088132828
 238    -0.0019553975034821
 239    -0.0045413717618505
 240     0.020610241849177
 241    -0.0019821445051253
 242    -0.0023005210862748
 243    0.0092553191610217
 244    -0.0021574165713124
 245    -0.00090870488434114
 246    0.00058675693616069
 247    -0.00039604247075258
 248    -6.9200403688837e-05
 249    3.0734759614634e-06
 250    -0.0024771385268265
 251    -0.0023084168753142
 252    -0.095970026828973
 253    -0.069891513642062
 254    -0.027331494172437
 255    -0.015341110484475
 256     0.040851206871452
 257    0.0019430706857666
 258    -0.0027624285221337
 259     0.016707783904431
 260    -0.0015396222014233
 261    0.0017867547727938
 262    0.0016468290322565
 263    -0.0024571384388561
 264    -0.0018863375486448
 265    -0.0050711938742625
 266    -0.0014267831034816
 267    -0.020014950516903
 268    0.0025760731866073
 269    0.0040206784385351
 270        0.281324943654
 271      0.19122371397843
 272      -0.0931550134964
 273    -0.048928171951592
 274      0.12329934614529
 275    -0.040645594649534
 276    -0.012494876488399
 277    0.0084846785630944
 278    0.0089929091854609
 279     -0.00409597104882
 280    -0.0055204111655662
 281    0.0049564666976342
 282    0.0040215680213979
 283    -0.0095379840878353