[Molden Format]
made by pyscf v[2.0.1]
[Atoms] (AU)
C   1   6     0.69100024066471     0.64692934207205    -3.48223131169301
H   2   1     2.68052439830868     1.13355088658700    -3.25784032593313
C   3   6    -0.36286361513219     0.85440132524594    -5.97030179418974
H   4   1    -2.35448549047279     0.36322488579172    -6.17995817793143
C   5   6     0.93697958957450     1.61209284601821    -8.05828437677121
H   6   1     1.01317567978386     3.61775130597871    -8.51923024455703
C   7   6     2.23318006711868    -0.09916996805052    -9.71591146992396
H   8   1     2.14101227267567    -2.10272353634710    -9.22908458474476
H   9   1     1.55630230933075    -1.92953025305990    12.99630010416247
C   10   6     0.75233899775814    -2.21270439606481    11.10705728102219
H   11   1    -0.43433408177274    -3.90944857546550    11.22216085340412
C   12   6     2.86362581178706    -2.63237380607947     9.17926416456045
H   13   1     4.39038949912609    -1.24955421540245     9.49899813497433
H   14   1     3.74629220191363    -4.48798724300892     9.47414880959024
C   15   6     2.02478325613682    -2.42177285709634     6.44560829588644
C   16   6     3.88048732735477    -3.58795445234514     4.61402886975252
C   17   6    -0.18412382258602    -1.30464291234259     5.76021113872346
C   18   6    -2.10044360464350    -0.26837831858460     7.71610340967100
C   19   6    -3.08956938670431     2.35282328359417     6.88693925039594
C   20   6    -4.37372924086464    -2.09766595989678     7.93610724222001
C   21   6    -0.83850430601230     0.06372213486173    10.33002307638377
H   22   1     0.38411922151109     1.74281358582432    10.27380136542181
H   23   1    -2.30980003007874     0.45460143924521    11.73986301809809
H   24   1     4.58527064644668    -5.38706904487420     5.36778158031719
H   25   1     5.54944938085014    -2.37631462192748     4.35398898413318
H   26   1     3.06633019150423    -3.94118377050688     2.75255466040884
H   27   1    -4.17727778763735     2.26573369139522     5.12914900961283
H   28   1    -1.52662344944051     3.68001877445626     6.59540397144508
H   29   1    -4.32916174397830     3.13643051467482     8.35225460090378
H   30   1    -5.32329548508442    -2.36691813602939     6.11583672749896
H   31   1    -5.77989366602257    -1.33896741843465     9.25748940450990
H   32   1    -3.79310905208926    -3.96389819310853     8.61386170102686
C   33   6    -1.01100794811226    -1.06331657314144     3.11929490449947
C   34   6     0.37686231036534    -0.33275864505552     1.09165013605873
H   35   1    -3.01671213906703    -1.40297922279997     2.77827895090944
C   36   6    -0.64382707979370    -0.11591880174385    -1.42063131251064
H   37   1     2.35569259782137     0.17174499283897     1.33641070251401
H   38   1    -2.63317482980319    -0.60229203511219    -1.66119700387645
C   39   6     3.54725246111133     0.56802416581284   -11.81467283923754
C   40   6     4.80361465317200    -1.32115012773234   -13.38298311351627
H   41   1     3.71304591439982     2.53035338251259   -12.40589607739641
O   42   8     6.01278787963721    -0.85546385399510   -15.29134904549642
H   43   1     4.58468921437884    -3.30497271823068   -12.70718839688766
[GTO]
1 0
 s    6 1.00
             3047.5249  0.0018347001629433
             457.36951    0.01403730124668
             103.94869   0.068842606114048
             29.210155    0.23218442062076
              9.286663    0.46794134155879
              3.163927    0.36231203217765
 s    3 1.00
             7.8682724   -0.11933240861517
             1.8812885   -0.16085421161283
             0.5442493     1.1434564825515
 s    1 1.00
             0.1687144                   1
 p    3 1.00
             7.8682724   0.068999095584993
             1.8812885    0.31642397975315
             0.5442493    0.74430825237435
 p    1 1.00
             0.1687144                   1
 d    1 1.00
                   0.8                   1

2 0
 s    3 1.00
             18.731137    0.03349459952309
             2.8253937    0.23472694665786
             0.6401217    0.81375731841339
 s    1 1.00
             0.1612778                   1

3 0
 s    6 1.00
             3047.5249  0.0018347001629433
             457.36951    0.01403730124668
             103.94869   0.068842606114048
             29.210155    0.23218442062076
              9.286663    0.46794134155879
              3.163927    0.36231203217765
 s    3 1.00
             7.8682724   -0.11933240861517
             1.8812885   -0.16085421161283
             0.5442493     1.1434564825515
 s    1 1.00
             0.1687144                   1
 p    3 1.00
             7.8682724   0.068999095584993
             1.8812885    0.31642397975315
             0.5442493    0.74430825237435
 p    1 1.00
             0.1687144                   1
 d    1 1.00
                   0.8                   1

4 0
 s    3 1.00
             18.731137    0.03349459952309
             2.8253937    0.23472694665786
             0.6401217    0.81375731841339
 s    1 1.00
             0.1612778                   1

5 0
 s    6 1.00
             3047.5249  0.0018347001629433
             457.36951    0.01403730124668
             103.94869   0.068842606114048
             29.210155    0.23218442062076
              9.286663    0.46794134155879
              3.163927    0.36231203217765
 s    3 1.00
             7.8682724   -0.11933240861517
             1.8812885   -0.16085421161283
             0.5442493     1.1434564825515
 s    1 1.00
             0.1687144                   1
 p    3 1.00
             7.8682724   0.068999095584993
             1.8812885    0.31642397975315
             0.5442493    0.74430825237435
 p    1 1.00
             0.1687144                   1
 d    1 1.00
                   0.8                   1

6 0
 s    3 1.00
             18.731137    0.03349459952309
             2.8253937    0.23472694665786
             0.6401217    0.81375731841339
 s    1 1.00
             0.1612778                   1

7 0
 s    6 1.00
             3047.5249  0.0018347001629433
             457.36951    0.01403730124668
             103.94869   0.068842606114048
             29.210155    0.23218442062076
              9.286663    0.46794134155879
              3.163927    0.36231203217765
 s    3 1.00
             7.8682724   -0.11933240861517
             1.8812885   -0.16085421161283
             0.5442493     1.1434564825515
 s    1 1.00
             0.1687144                   1
 p    3 1.00
             7.8682724   0.068999095584993
             1.8812885    0.31642397975315
             0.5442493    0.74430825237435
 p    1 1.00
             0.1687144                   1
 d    1 1.00
                   0.8                   1

8 0
 s    3 1.00
             18.731137    0.03349459952309
             2.8253937    0.23472694665786
             0.6401217    0.81375731841339
 s    1 1.00
             0.1612778                   1

9 0
 s    3 1.00
             18.731137    0.03349459952309
             2.8253937    0.23472694665786
             0.6401217    0.81375731841339
 s    1 1.00
             0.1612778                   1

10 0
 s    6 1.00
             3047.5249  0.0018347001629433
             457.36951    0.01403730124668
             103.94869   0.068842606114048
             29.210155    0.23218442062076
              9.286663    0.46794134155879
              3.163927    0.36231203217765
 s    3 1.00
             7.8682724   -0.11933240861517
             1.8812885   -0.16085421161283
             0.5442493     1.1434564825515
 s    1 1.00
             0.1687144                   1
 p    3 1.00
             7.8682724   0.068999095584993
             1.8812885    0.31642397975315
             0.5442493    0.74430825237435
 p    1 1.00
             0.1687144                   1
 d    1 1.00
                   0.8                   1

11 0
 s    3 1.00
             18.731137    0.03349459952309
             2.8253937    0.23472694665786
             0.6401217    0.81375731841339
 s    1 1.00
             0.1612778                   1

12 0
 s    6 1.00
             3047.5249  0.0018347001629433
             457.36951    0.01403730124668
             103.94869   0.068842606114048
             29.210155    0.23218442062076
              9.286663    0.46794134155879
              3.163927    0.36231203217765
 s    3 1.00
             7.8682724   -0.11933240861517
             1.8812885   -0.16085421161283
             0.5442493     1.1434564825515
 s    1 1.00
             0.1687144                   1
 p    3 1.00
             7.8682724   0.068999095584993
             1.8812885    0.31642397975315
             0.5442493    0.74430825237435
 p    1 1.00
             0.1687144                   1
 d    1 1.00
                   0.8                   1

13 0
 s    3 1.00
             18.731137    0.03349459952309
             2.8253937    0.23472694665786
             0.6401217    0.81375731841339
 s    1 1.00
             0.1612778                   1

14 0
 s    3 1.00
             18.731137    0.03349459952309
             2.8253937    0.23472694665786
             0.6401217    0.81375731841339
 s    1 1.00
             0.1612778                   1

15 0
 s    6 1.00
             3047.5249  0.0018347001629433
             457.36951    0.01403730124668
             103.94869   0.068842606114048
             29.210155    0.23218442062076
              9.286663    0.46794134155879
              3.163927    0.36231203217765
 s    3 1.00
             7.8682724   -0.11933240861517
             1.8812885   -0.16085421161283
             0.5442493     1.1434564825515
 s    1 1.00
             0.1687144                   1
 p    3 1.00
             7.8682724   0.068999095584993
             1.8812885    0.31642397975315
             0.5442493    0.74430825237435
 p    1 1.00
             0.1687144                   1
 d    1 1.00
                   0.8                   1

16 0
 s    6 1.00
             3047.5249  0.0018347001629433
             457.36951    0.01403730124668
             103.94869   0.068842606114048
             29.210155    0.23218442062076
              9.286663    0.46794134155879
              3.163927    0.36231203217765
 s    3 1.00
             7.8682724   -0.11933240861517
             1.8812885   -0.16085421161283
             0.5442493     1.1434564825515
 s    1 1.00
             0.1687144                   1
 p    3 1.00
             7.8682724   0.068999095584993
             1.8812885    0.31642397975315
             0.5442493    0.74430825237435
 p    1 1.00
             0.1687144                   1
 d    1 1.00
                   0.8                   1

17 0
 s    6 1.00
             3047.5249  0.0018347001629433
             457.36951    0.01403730124668
             103.94869   0.068842606114048
             29.210155    0.23218442062076
              9.286663    0.46794134155879
              3.163927    0.36231203217765
 s    3 1.00
             7.8682724   -0.11933240861517
             1.8812885   -0.16085421161283
             0.5442493     1.1434564825515
 s    1 1.00
             0.1687144                   1
 p    3 1.00
             7.8682724   0.068999095584993
             1.8812885    0.31642397975315
             0.5442493    0.74430825237435
 p    1 1.00
             0.1687144                   1
 d    1 1.00
                   0.8                   1

18 0
 s    6 1.00
             3047.5249  0.0018347001629433
             457.36951    0.01403730124668
             103.94869   0.068842606114048
             29.210155    0.23218442062076
              9.286663    0.46794134155879
              3.163927    0.36231203217765
 s    3 1.00
             7.8682724   -0.11933240861517
             1.8812885   -0.16085421161283
             0.5442493     1.1434564825515
 s    1 1.00
             0.1687144                   1
 p    3 1.00
             7.8682724   0.068999095584993
             1.8812885    0.31642397975315
             0.5442493    0.74430825237435
 p    1 1.00
             0.1687144                   1
 d    1 1.00
                   0.8                   1

19 0
 s    6 1.00
             3047.5249  0.0018347001629433
             457.36951    0.01403730124668
             103.94869   0.068842606114048
             29.210155    0.23218442062076
              9.286663    0.46794134155879
              3.163927    0.36231203217765
 s    3 1.00
             7.8682724   -0.11933240861517
             1.8812885   -0.16085421161283
             0.5442493     1.1434564825515
 s    1 1.00
             0.1687144                   1
 p    3 1.00
             7.8682724   0.068999095584993
             1.8812885    0.31642397975315
             0.5442493    0.74430825237435
 p    1 1.00
             0.1687144                   1
 d    1 1.00
                   0.8                   1

20 0
 s    6 1.00
             3047.5249  0.0018347001629433
             457.36951    0.01403730124668
             103.94869   0.068842606114048
             29.210155    0.23218442062076
              9.286663    0.46794134155879
              3.163927    0.36231203217765
 s    3 1.00
             7.8682724   -0.11933240861517
             1.8812885   -0.16085421161283
             0.5442493     1.1434564825515
 s    1 1.00
             0.1687144                   1
 p    3 1.00
             7.8682724   0.068999095584993
             1.8812885    0.31642397975315
             0.5442493    0.74430825237435
 p    1 1.00
             0.1687144                   1
 d    1 1.00
                   0.8                   1

21 0
 s    6 1.00
             3047.5249  0.0018347001629433
             457.36951    0.01403730124668
             103.94869   0.068842606114048
             29.210155    0.23218442062076
              9.286663    0.46794134155879
              3.163927    0.36231203217765
 s    3 1.00
             7.8682724   -0.11933240861517
             1.8812885   -0.16085421161283
             0.5442493     1.1434564825515
 s    1 1.00
             0.1687144                   1
 p    3 1.00
             7.8682724   0.068999095584993
             1.8812885    0.31642397975315
             0.5442493    0.74430825237435
 p    1 1.00
             0.1687144                   1
 d    1 1.00
                   0.8                   1

22 0
 s    3 1.00
             18.731137    0.03349459952309
             2.8253937    0.23472694665786
             0.6401217    0.81375731841339
 s    1 1.00
             0.1612778                   1

23 0
 s    3 1.00
             18.731137    0.03349459952309
             2.8253937    0.23472694665786
             0.6401217    0.81375731841339
 s    1 1.00
             0.1612778                   1

24 0
 s    3 1.00
             18.731137    0.03349459952309
             2.8253937    0.23472694665786
             0.6401217    0.81375731841339
 s    1 1.00
             0.1612778                   1

25 0
 s    3 1.00
             18.731137    0.03349459952309
             2.8253937    0.23472694665786
             0.6401217    0.81375731841339
 s    1 1.00
             0.1612778                   1

26 0
 s    3 1.00
             18.731137    0.03349459952309
             2.8253937    0.23472694665786
             0.6401217    0.81375731841339
 s    1 1.00
             0.1612778                   1

27 0
 s    3 1.00
             18.731137    0.03349459952309
             2.8253937    0.23472694665786
             0.6401217    0.81375731841339
 s    1 1.00
             0.1612778                   1

28 0
 s    3 1.00
             18.731137    0.03349459952309
             2.8253937    0.23472694665786
             0.6401217    0.81375731841339
 s    1 1.00
             0.1612778                   1

29 0
 s    3 1.00
             18.731137    0.03349459952309
             2.8253937    0.23472694665786
             0.6401217    0.81375731841339
 s    1 1.00
             0.1612778                   1

30 0
 s    3 1.00
             18.731137    0.03349459952309
             2.8253937    0.23472694665786
             0.6401217    0.81375731841339
 s    1 1.00
             0.1612778                   1

31 0
 s    3 1.00
             18.731137    0.03349459952309
             2.8253937    0.23472694665786
             0.6401217    0.81375731841339
 s    1 1.00
             0.1612778                   1

32 0
 s    3 1.00
             18.731137    0.03349459952309
             2.8253937    0.23472694665786
             0.6401217    0.81375731841339
 s    1 1.00
             0.1612778                   1

33 0
 s    6 1.00
             3047.5249  0.0018347001629433
             457.36951    0.01403730124668
             103.94869   0.068842606114048
             29.210155    0.23218442062076
              9.286663    0.46794134155879
              3.163927    0.36231203217765
 s    3 1.00
             7.8682724   -0.11933240861517
             1.8812885   -0.16085421161283
             0.5442493     1.1434564825515
 s    1 1.00
             0.1687144                   1
 p    3 1.00
             7.8682724   0.068999095584993
             1.8812885    0.31642397975315
             0.5442493    0.74430825237435
 p    1 1.00
             0.1687144                   1
 d    1 1.00
                   0.8                   1

34 0
 s    6 1.00
             3047.5249  0.0018347001629433
             457.36951    0.01403730124668
             103.94869   0.068842606114048
             29.210155    0.23218442062076
              9.286663    0.46794134155879
              3.163927    0.36231203217765
 s    3 1.00
             7.8682724   -0.11933240861517
             1.8812885   -0.16085421161283
             0.5442493     1.1434564825515
 s    1 1.00
             0.1687144                   1
 p    3 1.00
             7.8682724   0.068999095584993
             1.8812885    0.31642397975315
             0.5442493    0.74430825237435
 p    1 1.00
             0.1687144                   1
 d    1 1.00
                   0.8                   1

35 0
 s    3 1.00
             18.731137    0.03349459952309
             2.8253937    0.23472694665786
             0.6401217    0.81375731841339
 s    1 1.00
             0.1612778                   1

36 0
 s    6 1.00
             3047.5249  0.0018347001629433
             457.36951    0.01403730124668
             103.94869   0.068842606114048
             29.210155    0.23218442062076
              9.286663    0.46794134155879
              3.163927    0.36231203217765
 s    3 1.00
             7.8682724   -0.11933240861517
             1.8812885   -0.16085421161283
             0.5442493     1.1434564825515
 s    1 1.00
             0.1687144                   1
 p    3 1.00
             7.8682724   0.068999095584993
             1.8812885    0.31642397975315
             0.5442493    0.74430825237435
 p    1 1.00
             0.1687144                   1
 d    1 1.00
                   0.8                   1

37 0
 s    3 1.00
             18.731137    0.03349459952309
             2.8253937    0.23472694665786
             0.6401217    0.81375731841339
 s    1 1.00
             0.1612778                   1

38 0
 s    3 1.00
             18.731137    0.03349459952309
             2.8253937    0.23472694665786
             0.6401217    0.81375731841339
 s    1 1.00
             0.1612778                   1

39 0
 s    6 1.00
             3047.5249  0.0018347001629433
             457.36951    0.01403730124668
             103.94869   0.068842606114048
             29.210155    0.23218442062076
              9.286663    0.46794134155879
              3.163927    0.36231203217765
 s    3 1.00
             7.8682724   -0.11933240861517
             1.8812885   -0.16085421161283
             0.5442493     1.1434564825515
 s    1 1.00
             0.1687144                   1
 p    3 1.00
             7.8682724   0.068999095584993
             1.8812885    0.31642397975315
             0.5442493    0.74430825237435
 p    1 1.00
             0.1687144                   1
 d    1 1.00
                   0.8                   1

40 0
 s    6 1.00
             3047.5249  0.0018347001629433
             457.36951    0.01403730124668
             103.94869   0.068842606114048
             29.210155    0.23218442062076
              9.286663    0.46794134155879
              3.163927    0.36231203217765
 s    3 1.00
             7.8682724   -0.11933240861517
             1.8812885   -0.16085421161283
             0.5442493     1.1434564825515
 s    1 1.00
             0.1687144                   1
 p    3 1.00
             7.8682724   0.068999095584993
             1.8812885    0.31642397975315
             0.5442493    0.74430825237435
 p    1 1.00
             0.1687144                   1
 d    1 1.00
                   0.8                   1

41 0
 s    3 1.00
             18.731137    0.03349459952309
             2.8253937    0.23472694665786
             0.6401217    0.81375731841339
 s    1 1.00
             0.1612778                   1

42 0
 s    6 1.00
             5484.6717   0.001831099805527
             825.23495   0.013950098518422
             188.04696    0.06844509273075
               52.9645    0.23271427528445
              16.89757    0.47019295006289
             5.7996353    0.35852086192309
 s    3 1.00
             15.539616   -0.11077750382508
             3.5999336   -0.14802630511126
             1.0137618     1.1307670390447
 s    1 1.00
             0.2700058                   1
 p    3 1.00
             15.539616   0.070874299543311
             3.5999336    0.33975279781076
             1.0137618    0.72715859531445
 p    1 1.00
             0.2700058                   1
 d    1 1.00
                   0.8                   1

43 0
 s    3 1.00
             18.731137    0.03349459952309
             2.8253937    0.23472694665786
             0.6401217    0.81375731841339
 s    1 1.00
             0.1612778                   1

[5d]
[7f]
[9g]

[MO]
 Sym= A
 Ene=               0
 Spin= Alpha
 Occup=    1.00000
   1    -0.019883477968892
   2    0.00086065003614613
   3    -0.0068775565761903
   4    -0.00037050950673818
   5    0.00013016129256399
   6    -0.0011621901520384
   7    -0.00082774698328439
   8    -0.0012596248952144
   9    0.0054704772503884
  10    0.00088841284820985
  11    0.00085525494787426
  12    -0.00014052653499532
  13    0.00020487600040178
  14    -3.8480375515852e-05
  15    0.00049023919254099
  16    0.0008915887034509
  17     -0.99487711183874
  18    -0.036852159495592
  19     0.028455264806984
  20    -0.00092409590079996
  21    -0.00016365433363926
  22    0.00057701285954881
  23    0.0035582759130229
  24    0.0010680495108589
  25    0.00078626513370341
  26    -0.00076930332304576
  27     0.000302398854411
  28    0.00034105046089239
  29    -0.00029859484981153
  30    -0.00020543105383172
  31    0.0011145140040821
  32    -0.0038660360256041
  33    -0.011997919585098
  34    0.00029113875257912
  35    -0.00095754278757914
  36    -0.00083269937772647
  37    -0.00031581338703506
  38    0.0011156008418914
  39    0.0023542885094947
  40    -0.0035332464403334
  41    -0.0040646662820984
  42    0.00060097888855721
  43    -0.0011769036897527
  44    -0.00045472790085932
  45    0.00033841838538369
  46    0.00037916655708167
  47    0.00055070952534903
  48    0.00060865884191086
  49    0.00026446279174087
  50    0.00054694129110231
  51    -0.00030518702706652
  52    -0.00025267651568466
  53    -2.5039298019319e-05
  54    0.00040003529157052
  55    0.0048357790725016
  56    -0.0011176557449727
  57    -0.0070034833554211
  58    0.00014715519585783
  59    1.7873512968181e-05
  60    -0.00016155415130852
  61    0.00023544190322943
  62    0.00018917618317886
  63    0.00047761786247949
  64    -0.00024457783279046
  65    2.6723347379389e-06
  66    4.1301162663558e-06
  67    8.8214722280845e-08
  68    1.3844523501422e-06
  69    -6.6973360441039e-06
  70    -2.1654469928256e-06
  71    4.5153279196443e-06
  72    1.8336702322068e-07
  73    -1.2800951649358e-05
  74    -2.4660687743894e-05
  75    -9.0592738825245e-06
  76    1.3141442712275e-07
  77    3.3458981427683e-07
  78    -3.2917739368819e-07
  79    -5.7001387570135e-07
  80    4.4644779019402e-08
  81    -2.4044039457046e-06
  82    -1.2452983179414e-05
  83    -2.1118356511615e-07
  84    -1.2128170258382e-06
  85    6.5958463836072e-05
  86    -3.6699679073435e-06
  87    -3.0256958745153e-06
  88    -5.2342164426019e-06
  89    -2.3667068681895e-05
  90    6.2625068631903e-05
  91    -7.6932783144174e-06
  92    -1.5988727457501e-06
  93    2.7020825059728e-06
  94    -3.6969408678661e-06
  95    7.1710638961889e-07
  96    1.0617596117124e-06
  97    -6.8163346958521e-06
  98    -1.1757000789996e-05
  99    3.2416446385508e-06
 100    1.8529482806651e-05
 101    1.0922232004341e-06
 102    1.1505506399308e-05
 103    -0.00022695396540672
 104    1.5189715839529e-06
 105    7.606925504961e-06
 106    3.4162393574553e-06
 107    0.00018781447006165
 108    -0.000180901527896
 109    -0.00013653829110348
 110    5.8578169511535e-06
 111    2.0058471373977e-07
 112    -6.0600622254964e-08
 113    -1.3820508924569e-06
 114    5.3373785196797e-06
 115    3.3217994995501e-06
 116    3.1937893600383e-05
 117    -0.0002333517077205
 118    2.4667239514926e-06
 119    -3.1088816474358e-06
 120    -5.0887087130139e-06
 121    4.8573592472469e-05
 122    -1.1321703486413e-05
 123    -2.9002440725254e-05
 124    -1.519070578615e-06
 125    2.826057014743e-06
 126    2.3632676755612e-06
 127    -6.3499001966908e-07
 128    2.1357171787495e-06
 129    5.3724557192627e-06
 130    5.1879535046456e-05
 131    -0.00015096096316555
 132    -5.9491045066177e-06
 133    4.0687916042421e-06
 134    -2.1785811271152e-05
 135    0.00034162964078165
 136    -3.9737023317309e-05
 137    0.00040288797119737
 138    -9.332640658334e-06
 139    -1.3004242281945e-05
 140    -5.477159939809e-06
 141    -4.3664305728297e-06
 142    -6.5783449096308e-06
 143    2.0560898802788e-06
 144    2.6210076426072e-05
 145    -2.9396755741167e-05
 146    -2.2930574835565e-06
 147    -5.5153664136534e-06
 148    -1.2027390677838e-05
 149    -1.564033023079e-05
 150    1.3834795937817e-06
 151    6.0511030425807e-05
 152    6.8141575555156e-06
 153    3.7454224929246e-06
 154    3.0026793071037e-06
 155    -4.1719561593101e-06
 156    3.9512998055836e-06
 157    -1.5242659043213e-06
 158    -1.2141917363232e-05
 159    3.4277323144651e-05
 160    -5.7057953979281e-06
 161    6.1336765044536e-08
 162    1.4699158207002e-06
 163    4.8312873388439e-05
 164    -2.3078544444852e-05
 165    -1.0272600445957e-05
 166    -4.2320522545915e-06
 167    6.5226910661835e-07
 168    1.9651628646981e-07
 169    -7.7309255801623e-07
 170    -1.8789649888363e-06
 171    5.1878961367479e-07
 172    1.1830959838473e-05
 173    -2.2314368907478e-05
 174    3.8065048648952e-06
 175    1.8131700385955e-07
 176    -1.0462979438536e-05
 177    1.7892049709455e-06
 178    1.4227674427571e-06
 179    2.6173443089993e-05
 180    -1.5558082859207e-06
 181    -4.6176913717862e-06
 182    -7.952613072157e-07
 183    1.2266758743942e-06
 184    -1.5658944216601e-06
 185    3.2407805632716e-06
 186    2.8516332446805e-05
 187    -8.1537755696435e-05
 188    2.3601720928304e-06
 189    -7.3397339610912e-07
 190    -5.2146428843292e-06
 191    1.9927716909593e-06
 192    1.2914585040361e-05
 193    6.9891375112224e-05
 194    -3.2431149228478e-06
 195    -1.6098205399105e-06
 196    -2.63550155026e-06
 197    3.1717345721146e-07
 198    -3.7910272096471e-07
 199    7.464189459275e-06
 200    3.7161392030289e-08
 201    2.0764375758102e-06
 202    -2.0160985449089e-05
 203    1.1154360446862e-05
 204    5.8581758761111e-06
 205    5.9646081254753e-07
 206    2.6351905181604e-05
 207    -9.5544443858809e-06
 208    6.2253691590082e-05
 209    -1.0599776900892e-05
 210     2.59460549361e-05
 211    -5.9350196831973e-06
 212    -1.6894037613634e-05
 213    5.9837696260551e-07
 214    2.0399267151423e-05
 215    2.5254608669723e-06
 216    2.8218193569733e-05
 217    -1.3920702377402e-06
 218    -8.3681144142199e-06
 219    -4.8922711594689e-07
 220    1.1837266053567e-06
 221    8.5652527678344e-06
 222    8.2575760702546e-05
 223    -0.00082335128259972
 224    1.0363986197194e-05
 225    1.5325202545885e-06
 226    -1.1892508656522e-05
 227    -0.00060321089414747
 228    -0.0002922091128961
 229    0.0008875710775858
 230    -1.8015586605008e-06
 231    4.1226454612421e-05
 232    2.0454709975116e-05
 233    -2.0653233550993e-05
 234    -2.1364591263029e-05
 235    1.3988583957907e-05
 236    6.4298350926568e-05
 237    0.00021127732586058
 238    2.8502572252405e-05
 239    8.8696018593333e-06
 240    -2.7895760913484e-05
 241    -0.00026649276221721
 242    -0.00032218243994843
 243    0.0014555779453654
 244    -9.4699673628151e-06
 245    -6.6183694341811e-05
 246    -1.3042425430375e-05
 247    -1.718949109313e-05
 248    1.8012613380019e-06
 249    3.3937695754096e-05
 250    -0.00029307740510176
 251    -4.2737690209194e-06
 252    0.00039998255777259
 253    -0.0020554751583503
 254    -5.7013833653456e-05
 255    3.6103234166254e-05
 256    -0.00019666114979474
 257    2.3456016606097e-05
 258    -0.00038309682325838
 259    0.0017388672859241
 260    5.8169145681088e-05
 261    1.7018956408801e-05
 262    1.5592637524911e-05
 263    -0.00013216391830446
 264    -8.0633435591681e-05
 265    0.00010093451752125
 266    -0.00018725801574786
 267    0.00012807243431487
 268    0.0004968452559673
 269    5.478446566164e-05
 270    0.00050323280266778
 271    -0.006665658370163
 272    6.9784173587501e-05
 273    -9.9492177435567e-05
 274    -0.00012357593289697
 275    0.0015012309767114
 276    0.0027514467212174
 277    -0.0026489118133106
 278    -8.0190138784369e-05
 279    0.00017320144822282
 280    9.1613389569859e-05