[Molden Format]
made by pyscf v[2.0.1]
[Atoms] (AU)
C   1   6     0.69100024066471     0.64692934207205    -3.48223131169301
H   2   1     2.68052439830868     1.13355088658700    -3.25784032593313
C   3   6    -0.36286361513219     0.85440132524594    -5.97030179418974
H   4   1    -2.35448549047279     0.36322488579172    -6.17995817793143
C   5   6     0.93697958957450     1.61209284601821    -8.05828437677121
H   6   1     1.79023114573091     3.48620134168797    -8.08322278856913
C   7   6     1.25568723688000     0.06665493916240   -10.26426053014808
H   8   1     0.39118722523993    -1.80671768770582   -10.21099750517578
H   9   1     1.55630230933075    -1.92953025305990    12.99630010416247
C   10   6     0.75233899775814    -2.21270439606481    11.10705728102219
H   11   1    -0.43433408177274    -3.90944857546550    11.22216085340412
C   12   6     2.86362581178706    -2.63237380607947     9.17926416456045
H   13   1     4.39038949912609    -1.24955421540245     9.49899813497433
H   14   1     3.74629220191363    -4.48798724300892     9.47414880959024
C   15   6     2.02478325613682    -2.42177285709634     6.44560829588644
C   16   6     3.88048732735477    -3.58795445234514     4.61402886975252
C   17   6    -0.18412382258602    -1.30464291234259     5.76021113872346
C   18   6    -2.10044360464350    -0.26837831858460     7.71610340967100
C   19   6    -3.08956938670431     2.35282328359417     6.88693925039594
C   20   6    -4.37372924086464    -2.09766595989678     7.93610724222001
C   21   6    -0.83850430601230     0.06372213486173    10.33002307638377
H   22   1     0.38411922151109     1.74281358582432    10.27380136542181
H   23   1    -2.30980003007874     0.45460143924521    11.73986301809809
H   24   1     4.58527064644668    -5.38706904487420     5.36778158031719
H   25   1     5.54944938085014    -2.37631462192748     4.35398898413318
H   26   1     3.06633019150423    -3.94118377050688     2.75255466040884
H   27   1    -4.17727778763735     2.26573369139522     5.12914900961283
H   28   1    -1.52662344944051     3.68001877445626     6.59540397144508
H   29   1    -4.32916174397830     3.13643051467482     8.35225460090378
H   30   1    -5.32329548508442    -2.36691813602939     6.11583672749896
H   31   1    -5.77989366602257    -1.33896741843465     9.25748940450990
H   32   1    -3.79310905208926    -3.96389819310853     8.61386170102686
C   33   6    -1.01100794811226    -1.06331657314144     3.11929490449947
C   34   6     0.37686231036534    -0.33275864505552     1.09165013605873
H   35   1    -3.01671213906703    -1.40297922279997     2.77827895090944
C   36   6    -0.64382707979370    -0.11591880174385    -1.42063131251064
H   37   1     2.35569259782137     0.17174499283897     1.33641070251401
H   38   1    -2.63317482980319    -0.60229203511219    -1.66119700387645
C   39   6     2.53016326718275     0.74184279311179   -12.38477126217512
C   40   6     2.74761784180424    -0.97075180884473   -14.53576076061004
H   41   1     3.43489191747297     2.57981441042514   -12.56110828288274
O   42   8     3.86136937293188    -0.48701494751058   -16.49697984673750
H   43   1     1.79359090776017    -2.83108880557309   -14.27278208139205
[GTO]
1 0
 s    6 1.00
             3047.5249  0.0018347001629433
             457.36951    0.01403730124668
             103.94869   0.068842606114048
             29.210155    0.23218442062076
              9.286663    0.46794134155879
              3.163927    0.36231203217765
 s    3 1.00
             7.8682724   -0.11933240861517
             1.8812885   -0.16085421161283
             0.5442493     1.1434564825515
 s    1 1.00
             0.1687144                   1
 p    3 1.00
             7.8682724   0.068999095584993
             1.8812885    0.31642397975315
             0.5442493    0.74430825237435
 p    1 1.00
             0.1687144                   1
 d    1 1.00
                   0.8                   1

2 0
 s    3 1.00
             18.731137    0.03349459952309
             2.8253937    0.23472694665786
             0.6401217    0.81375731841339
 s    1 1.00
             0.1612778                   1

3 0
 s    6 1.00
             3047.5249  0.0018347001629433
             457.36951    0.01403730124668
             103.94869   0.068842606114048
             29.210155    0.23218442062076
              9.286663    0.46794134155879
              3.163927    0.36231203217765
 s    3 1.00
             7.8682724   -0.11933240861517
             1.8812885   -0.16085421161283
             0.5442493     1.1434564825515
 s    1 1.00
             0.1687144                   1
 p    3 1.00
             7.8682724   0.068999095584993
             1.8812885    0.31642397975315
             0.5442493    0.74430825237435
 p    1 1.00
             0.1687144                   1
 d    1 1.00
                   0.8                   1

4 0
 s    3 1.00
             18.731137    0.03349459952309
             2.8253937    0.23472694665786
             0.6401217    0.81375731841339
 s    1 1.00
             0.1612778                   1

5 0
 s    6 1.00
             3047.5249  0.0018347001629433
             457.36951    0.01403730124668
             103.94869   0.068842606114048
             29.210155    0.23218442062076
              9.286663    0.46794134155879
              3.163927    0.36231203217765
 s    3 1.00
             7.8682724   -0.11933240861517
             1.8812885   -0.16085421161283
             0.5442493     1.1434564825515
 s    1 1.00
             0.1687144                   1
 p    3 1.00
             7.8682724   0.068999095584993
             1.8812885    0.31642397975315
             0.5442493    0.74430825237435
 p    1 1.00
             0.1687144                   1
 d    1 1.00
                   0.8                   1

6 0
 s    3 1.00
             18.731137    0.03349459952309
             2.8253937    0.23472694665786
             0.6401217    0.81375731841339
 s    1 1.00
             0.1612778                   1

7 0
 s    6 1.00
             3047.5249  0.0018347001629433
             457.36951    0.01403730124668
             103.94869   0.068842606114048
             29.210155    0.23218442062076
              9.286663    0.46794134155879
              3.163927    0.36231203217765
 s    3 1.00
             7.8682724   -0.11933240861517
             1.8812885   -0.16085421161283
             0.5442493     1.1434564825515
 s    1 1.00
             0.1687144                   1
 p    3 1.00
             7.8682724   0.068999095584993
             1.8812885    0.31642397975315
             0.5442493    0.74430825237435
 p    1 1.00
             0.1687144                   1
 d    1 1.00
                   0.8                   1

8 0
 s    3 1.00
             18.731137    0.03349459952309
             2.8253937    0.23472694665786
             0.6401217    0.81375731841339
 s    1 1.00
             0.1612778                   1

9 0
 s    3 1.00
             18.731137    0.03349459952309
             2.8253937    0.23472694665786
             0.6401217    0.81375731841339
 s    1 1.00
             0.1612778                   1

10 0
 s    6 1.00
             3047.5249  0.0018347001629433
             457.36951    0.01403730124668
             103.94869   0.068842606114048
             29.210155    0.23218442062076
              9.286663    0.46794134155879
              3.163927    0.36231203217765
 s    3 1.00
             7.8682724   -0.11933240861517
             1.8812885   -0.16085421161283
             0.5442493     1.1434564825515
 s    1 1.00
             0.1687144                   1
 p    3 1.00
             7.8682724   0.068999095584993
             1.8812885    0.31642397975315
             0.5442493    0.74430825237435
 p    1 1.00
             0.1687144                   1
 d    1 1.00
                   0.8                   1

11 0
 s    3 1.00
             18.731137    0.03349459952309
             2.8253937    0.23472694665786
             0.6401217    0.81375731841339
 s    1 1.00
             0.1612778                   1

12 0
 s    6 1.00
             3047.5249  0.0018347001629433
             457.36951    0.01403730124668
             103.94869   0.068842606114048
             29.210155    0.23218442062076
              9.286663    0.46794134155879
              3.163927    0.36231203217765
 s    3 1.00
             7.8682724   -0.11933240861517
             1.8812885   -0.16085421161283
             0.5442493     1.1434564825515
 s    1 1.00
             0.1687144                   1
 p    3 1.00
             7.8682724   0.068999095584993
             1.8812885    0.31642397975315
             0.5442493    0.74430825237435
 p    1 1.00
             0.1687144                   1
 d    1 1.00
                   0.8                   1

13 0
 s    3 1.00
             18.731137    0.03349459952309
             2.8253937    0.23472694665786
             0.6401217    0.81375731841339
 s    1 1.00
             0.1612778                   1

14 0
 s    3 1.00
             18.731137    0.03349459952309
             2.8253937    0.23472694665786
             0.6401217    0.81375731841339
 s    1 1.00
             0.1612778                   1

15 0
 s    6 1.00
             3047.5249  0.0018347001629433
             457.36951    0.01403730124668
             103.94869   0.068842606114048
             29.210155    0.23218442062076
              9.286663    0.46794134155879
              3.163927    0.36231203217765
 s    3 1.00
             7.8682724   -0.11933240861517
             1.8812885   -0.16085421161283
             0.5442493     1.1434564825515
 s    1 1.00
             0.1687144                   1
 p    3 1.00
             7.8682724   0.068999095584993
             1.8812885    0.31642397975315
             0.5442493    0.74430825237435
 p    1 1.00
             0.1687144                   1
 d    1 1.00
                   0.8                   1

16 0
 s    6 1.00
             3047.5249  0.0018347001629433
             457.36951    0.01403730124668
             103.94869   0.068842606114048
             29.210155    0.23218442062076
              9.286663    0.46794134155879
              3.163927    0.36231203217765
 s    3 1.00
             7.8682724   -0.11933240861517
             1.8812885   -0.16085421161283
             0.5442493     1.1434564825515
 s    1 1.00
             0.1687144                   1
 p    3 1.00
             7.8682724   0.068999095584993
             1.8812885    0.31642397975315
             0.5442493    0.74430825237435
 p    1 1.00
             0.1687144                   1
 d    1 1.00
                   0.8                   1

17 0
 s    6 1.00
             3047.5249  0.0018347001629433
             457.36951    0.01403730124668
             103.94869   0.068842606114048
             29.210155    0.23218442062076
              9.286663    0.46794134155879
              3.163927    0.36231203217765
 s    3 1.00
             7.8682724   -0.11933240861517
             1.8812885   -0.16085421161283
             0.5442493     1.1434564825515
 s    1 1.00
             0.1687144                   1
 p    3 1.00
             7.8682724   0.068999095584993
             1.8812885    0.31642397975315
             0.5442493    0.74430825237435
 p    1 1.00
             0.1687144                   1
 d    1 1.00
                   0.8                   1

18 0
 s    6 1.00
             3047.5249  0.0018347001629433
             457.36951    0.01403730124668
             103.94869   0.068842606114048
             29.210155    0.23218442062076
              9.286663    0.46794134155879
              3.163927    0.36231203217765
 s    3 1.00
             7.8682724   -0.11933240861517
             1.8812885   -0.16085421161283
             0.5442493     1.1434564825515
 s    1 1.00
             0.1687144                   1
 p    3 1.00
             7.8682724   0.068999095584993
             1.8812885    0.31642397975315
             0.5442493    0.74430825237435
 p    1 1.00
             0.1687144                   1
 d    1 1.00
                   0.8                   1

19 0
 s    6 1.00
             3047.5249  0.0018347001629433
             457.36951    0.01403730124668
             103.94869   0.068842606114048
             29.210155    0.23218442062076
              9.286663    0.46794134155879
              3.163927    0.36231203217765
 s    3 1.00
             7.8682724   -0.11933240861517
             1.8812885   -0.16085421161283
             0.5442493     1.1434564825515
 s    1 1.00
             0.1687144                   1
 p    3 1.00
             7.8682724   0.068999095584993
             1.8812885    0.31642397975315
             0.5442493    0.74430825237435
 p    1 1.00
             0.1687144                   1
 d    1 1.00
                   0.8                   1

20 0
 s    6 1.00
             3047.5249  0.0018347001629433
             457.36951    0.01403730124668
             103.94869   0.068842606114048
             29.210155    0.23218442062076
              9.286663    0.46794134155879
              3.163927    0.36231203217765
 s    3 1.00
             7.8682724   -0.11933240861517
             1.8812885   -0.16085421161283
             0.5442493     1.1434564825515
 s    1 1.00
             0.1687144                   1
 p    3 1.00
             7.8682724   0.068999095584993
             1.8812885    0.31642397975315
             0.5442493    0.74430825237435
 p    1 1.00
             0.1687144                   1
 d    1 1.00
                   0.8                   1

21 0
 s    6 1.00
             3047.5249  0.0018347001629433
             457.36951    0.01403730124668
             103.94869   0.068842606114048
             29.210155    0.23218442062076
              9.286663    0.46794134155879
              3.163927    0.36231203217765
 s    3 1.00
             7.8682724   -0.11933240861517
             1.8812885   -0.16085421161283
             0.5442493     1.1434564825515
 s    1 1.00
             0.1687144                   1
 p    3 1.00
             7.8682724   0.068999095584993
             1.8812885    0.31642397975315
             0.5442493    0.74430825237435
 p    1 1.00
             0.1687144                   1
 d    1 1.00
                   0.8                   1

22 0
 s    3 1.00
             18.731137    0.03349459952309
             2.8253937    0.23472694665786
             0.6401217    0.81375731841339
 s    1 1.00
             0.1612778                   1

23 0
 s    3 1.00
             18.731137    0.03349459952309
             2.8253937    0.23472694665786
             0.6401217    0.81375731841339
 s    1 1.00
             0.1612778                   1

24 0
 s    3 1.00
             18.731137    0.03349459952309
             2.8253937    0.23472694665786
             0.6401217    0.81375731841339
 s    1 1.00
             0.1612778                   1

25 0
 s    3 1.00
             18.731137    0.03349459952309
             2.8253937    0.23472694665786
             0.6401217    0.81375731841339
 s    1 1.00
             0.1612778                   1

26 0
 s    3 1.00
             18.731137    0.03349459952309
             2.8253937    0.23472694665786
             0.6401217    0.81375731841339
 s    1 1.00
             0.1612778                   1

27 0
 s    3 1.00
             18.731137    0.03349459952309
             2.8253937    0.23472694665786
             0.6401217    0.81375731841339
 s    1 1.00
             0.1612778                   1

28 0
 s    3 1.00
             18.731137    0.03349459952309
             2.8253937    0.23472694665786
             0.6401217    0.81375731841339
 s    1 1.00
             0.1612778                   1

29 0
 s    3 1.00
             18.731137    0.03349459952309
             2.8253937    0.23472694665786
             0.6401217    0.81375731841339
 s    1 1.00
             0.1612778                   1

30 0
 s    3 1.00
             18.731137    0.03349459952309
             2.8253937    0.23472694665786
             0.6401217    0.81375731841339
 s    1 1.00
             0.1612778                   1

31 0
 s    3 1.00
             18.731137    0.03349459952309
             2.8253937    0.23472694665786
             0.6401217    0.81375731841339
 s    1 1.00
             0.1612778                   1

32 0
 s    3 1.00
             18.731137    0.03349459952309
             2.8253937    0.23472694665786
             0.6401217    0.81375731841339
 s    1 1.00
             0.1612778                   1

33 0
 s    6 1.00
             3047.5249  0.0018347001629433
             457.36951    0.01403730124668
             103.94869   0.068842606114048
             29.210155    0.23218442062076
              9.286663    0.46794134155879
              3.163927    0.36231203217765
 s    3 1.00
             7.8682724   -0.11933240861517
             1.8812885   -0.16085421161283
             0.5442493     1.1434564825515
 s    1 1.00
             0.1687144                   1
 p    3 1.00
             7.8682724   0.068999095584993
             1.8812885    0.31642397975315
             0.5442493    0.74430825237435
 p    1 1.00
             0.1687144                   1
 d    1 1.00
                   0.8                   1

34 0
 s    6 1.00
             3047.5249  0.0018347001629433
             457.36951    0.01403730124668
             103.94869   0.068842606114048
             29.210155    0.23218442062076
              9.286663    0.46794134155879
              3.163927    0.36231203217765
 s    3 1.00
             7.8682724   -0.11933240861517
             1.8812885   -0.16085421161283
             0.5442493     1.1434564825515
 s    1 1.00
             0.1687144                   1
 p    3 1.00
             7.8682724   0.068999095584993
             1.8812885    0.31642397975315
             0.5442493    0.74430825237435
 p    1 1.00
             0.1687144                   1
 d    1 1.00
                   0.8                   1

35 0
 s    3 1.00
             18.731137    0.03349459952309
             2.8253937    0.23472694665786
             0.6401217    0.81375731841339
 s    1 1.00
             0.1612778                   1

36 0
 s    6 1.00
             3047.5249  0.0018347001629433
             457.36951    0.01403730124668
             103.94869   0.068842606114048
             29.210155    0.23218442062076
              9.286663    0.46794134155879
              3.163927    0.36231203217765
 s    3 1.00
             7.8682724   -0.11933240861517
             1.8812885   -0.16085421161283
             0.5442493     1.1434564825515
 s    1 1.00
             0.1687144                   1
 p    3 1.00
             7.8682724   0.068999095584993
             1.8812885    0.31642397975315
             0.5442493    0.74430825237435
 p    1 1.00
             0.1687144                   1
 d    1 1.00
                   0.8                   1

37 0
 s    3 1.00
             18.731137    0.03349459952309
             2.8253937    0.23472694665786
             0.6401217    0.81375731841339
 s    1 1.00
             0.1612778                   1

38 0
 s    3 1.00
             18.731137    0.03349459952309
             2.8253937    0.23472694665786
             0.6401217    0.81375731841339
 s    1 1.00
             0.1612778                   1

39 0
 s    6 1.00
             3047.5249  0.0018347001629433
             457.36951    0.01403730124668
             103.94869   0.068842606114048
             29.210155    0.23218442062076
              9.286663    0.46794134155879
              3.163927    0.36231203217765
 s    3 1.00
             7.8682724   -0.11933240861517
             1.8812885   -0.16085421161283
             0.5442493     1.1434564825515
 s    1 1.00
             0.1687144                   1
 p    3 1.00
             7.8682724   0.068999095584993
             1.8812885    0.31642397975315
             0.5442493    0.74430825237435
 p    1 1.00
             0.1687144                   1
 d    1 1.00
                   0.8                   1

40 0
 s    6 1.00
             3047.5249  0.0018347001629433
             457.36951    0.01403730124668
             103.94869   0.068842606114048
             29.210155    0.23218442062076
              9.286663    0.46794134155879
              3.163927    0.36231203217765
 s    3 1.00
             7.8682724   -0.11933240861517
             1.8812885   -0.16085421161283
             0.5442493     1.1434564825515
 s    1 1.00
             0.1687144                   1
 p    3 1.00
             7.8682724   0.068999095584993
             1.8812885    0.31642397975315
             0.5442493    0.74430825237435
 p    1 1.00
             0.1687144                   1
 d    1 1.00
                   0.8                   1

41 0
 s    3 1.00
             18.731137    0.03349459952309
             2.8253937    0.23472694665786
             0.6401217    0.81375731841339
 s    1 1.00
             0.1612778                   1

42 0
 s    6 1.00
             5484.6717   0.001831099805527
             825.23495   0.013950098518422
             188.04696    0.06844509273075
               52.9645    0.23271427528445
              16.89757    0.47019295006289
             5.7996353    0.35852086192309
 s    3 1.00
             15.539616   -0.11077750382508
             3.5999336   -0.14802630511126
             1.0137618     1.1307670390447
 s    1 1.00
             0.2700058                   1
 p    3 1.00
             15.539616   0.070874299543311
             3.5999336    0.33975279781076
             1.0137618    0.72715859531445
 p    1 1.00
             0.2700058                   1
 d    1 1.00
                   0.8                   1

43 0
 s    3 1.00
             18.731137    0.03349459952309
             2.8253937    0.23472694665786
             0.6401217    0.81375731841339
 s    1 1.00
             0.1612778                   1

[5d]
[7f]
[9g]

[MO]
 Sym= A
 Ene=               0
 Spin= Alpha
 Occup=    1.00000
   1    0.0029965085020602
   2      0.29441551147692
   3      0.19211118457682
   4    -0.075938068327054
   5    -0.049518121935008
   6      0.14507144934094
   7      0.01150057746774
   8    -0.0066715934880932
   9     0.047949549947283
  10    0.0044173732731196
  11    -0.0061439551542827
  12    -0.0051445673018407
  13    0.0074999646171077
  14    0.0062067216226928
  15     0.065418784493992
  16    -0.0023137087925871
  17    -0.0084012086734753
  18     0.045752877713964
  19      0.02251708851564
  20    -0.0060596651774794
  21    -0.011978861512576
  22     0.052040945230625
  23     -0.01024076392241
  24    -0.0066979505295667
  25     0.026380698097441
  26    0.0064696892474778
  27    0.0027353547793957
  28    -0.0018052252974825
  29    0.00089092243954527
  30    0.00021634392849901
  31     0.012783584258443
  32    0.00063913844087322
  33     0.000111181117491
  34    0.0038161964234487
  35     0.020969697743921
  36    0.0035125322266056
  37    0.00067169851704312
  38    -0.011507955618753
  39    -0.0057869829727718
  40    -0.0061459999483371
  41    -0.0041406507563388
  42    0.00085033191733983
  43    -0.00084284394985613
  44    0.00082915523599086
  45    -0.00016109894531809
  46    9.3661761733758e-05
  47    0.0024919793823264
  48    0.0041321108985974
  49    1.5477984155224e-05
  50     0.049856817857546
  51     0.024473792688782
  52     0.013647575437188
  53     0.005559212619565
  54    -0.025331326456393
  55    0.0029457738511518
  56    -0.0056022379520051
  57    -0.010180087533634
  58    0.00044767544150411
  59    -0.0013954697802556
  60    -0.00056851688319826
  61    -0.00045242410713867
  62    0.0012918304504668
  63     0.011049247712212
  64    0.00032446121025502
  65    2.7419373471417e-05
  66    -1.716680577865e-05
  67    1.219919872596e-05
  68    4.2687130170471e-05
  69    -0.00039553283889486
  70    -1.5729943699713e-05
  71    -1.4952511948833e-05
  72    8.3106348409472e-07
  73    0.00024870374361452
  74    0.00036210158598585
  75    0.00026168147490586
  76    2.6569557902491e-05
  77    1.1837423927072e-05
  78    -1.0076114740611e-05
  79    -8.1681308356479e-06
  80    9.9438520887156e-06
  81    9.9558262384869e-06
  82    0.00032458836267788
  83    -2.6218174350126e-05
  84    0.00014732630655724
  85    0.0012362016178201
  86    -0.00016920999326517
  87    8.4920044791759e-05
  88    -0.00029381494602181
  89    -0.00043315869909762
  90    -0.00040924732927349
  91    -0.000516067648477
  92    -4.6224229493061e-06
  93    2.608054754094e-05
  94    -9.8988818176757e-06
  95    -4.9395398995415e-06
  96    -6.6975733814252e-06
  97    -4.2396104689425e-05
  98    8.7570148354866e-05
  99    -6.4441305902573e-05
 100    -0.00015138249585351
 101    8.2912829094602e-05
 102    -6.3920751114411e-05
 103    -0.0011065398549621
 104    6.3964227725333e-06
 105    0.00013654352375116
 106    0.00037510865334969
 107    0.0025504597531345
 108    -0.00070724877508105
 109    -0.0031220468242008
 110    3.6675362355953e-05
 111    8.7939603979096e-05
 112    -3.1114447901233e-05
 113    -6.1561053286279e-05
 114     3.02368142657e-05
 115    8.8127846826953e-05
 116    -0.00020919123020695
 117    -0.0022001162800449
 118    0.00012216287594633
 119    -0.00038105275371492
 120    5.470678068198e-05
 121    0.00046113729027805
 122    -0.00014172668022423
 123    -0.0014418930703388
 124    1.458628561977e-05
 125    4.595870989984e-05
 126    -5.1514886779232e-05
 127    -6.7776753343915e-06
 128    1.2977972223433e-05
 129    -6.4653541980815e-06
 130    0.00073496158626478
 131    -0.011292510314869
 132    -0.0002142370959656
 133    -0.00010281138574748
 134    -0.00069442689522693
 135    0.0015257469169171
 136    -0.0011875038900036
 137     0.012241410465868
 138    -0.00037942999024448
 139    7.7855376274935e-05
 140    0.00013193653735698
 141    5.7107158887347e-05
 142    8.6351435223935e-05
 143    6.1147778718602e-05
 144    -2.412616432848e-05
 145    -0.0021680747413018
 146    5.9395697037036e-05
 147    0.00012411742125653
 148    0.00037728432598168
 149    -0.0026654324104695
 150    0.0016472859846241
 151    -0.0019941487628357
 152    8.919350259367e-05
 153    -2.7794176513496e-05
 154    -3.8031331266878e-05
 155    -5.7340684531315e-05
 156      5.5644798401e-05
 157    1.4974872443485e-05
 158    0.0001725576652706
 159    -0.0015142795832803
 160     4.03986762694e-05
 161    8.6366807843814e-06
 162    -8.0546434392676e-05
 163    2.010045990538e-05
 164    0.00094641202618632
 165    0.00022657669821193
 166    2.1342633812191e-05
 167    1.2541774899083e-06
 168    -4.3986989383852e-07
 169    5.2870437336052e-05
 170    -7.2392169041134e-06
 171    1.1662999924992e-05
 172    -0.00023216832325768
 173    0.00035582357538847
 174    -2.0773112666175e-05
 175    8.8773564312885e-06
 176    0.0002837964888074
 177    0.00038155592598047
 178    -0.00072960950122532
 179    -9.0867123872583e-05
 180    4.005830288721e-06
 181    5.2171043932565e-05
 182    1.9195109460033e-05
 183    3.3500702362189e-05
 184    -8.1539259160519e-06
 185    -1.3636364521185e-05
 186    3.387791410365e-05
 187    0.0016921462050777
 188    5.0807239790144e-06
 189    -4.988409584884e-05
 190    -0.00025451771666298
 191    -0.00091900066452798
 192    -0.0004344539528216
 193    -0.00049202171174451
 194    2.089361536409e-05
 195    3.8688687332745e-05
 196    2.4931034161086e-05
 197    -6.0835184454993e-06
 198    2.1829532871925e-05
 199    -1.2291418888169e-05
 200    0.00031136384106791
 201    -9.5666104921532e-05
 202    -0.00042169715956339
 203    0.00021688860962649
 204    0.00079041579245453
 205    -0.00020400860355385
 206    -0.00015480946642136
 207    0.00014147246758925
 208    -0.0007554288156587
 209    0.00012110713797687
 210    0.00020959845297222
 211    4.1713235418569e-05
 212    -9.7776855911154e-05
 213    -1.374059685171e-05
 214    -0.00025526476265187
 215    -4.4593280662587e-05
 216    -0.00065039924051856
 217    5.9292971249061e-05
 218    0.00041460415666445
 219    -1.1375965866816e-05
 220    -0.00046326234119219
 221    0.0012189188608156
 222    -0.002810843624225
 223     0.022655851921382
 224    -0.0014269713468213
 225    -0.001433089511773
 226    0.0028835493385471
 227     0.016358490028013
 228    0.0015115696329651
 229    0.0087175761533101
 230    0.00023110238629712
 231    -0.00016253630990044
 232    -0.00017123006717015
 233    0.00011845836215005
 234    0.00013953180087747
 235    -0.0080765689367653
 236     0.042776413747653
 237     0.019745572534826
 238    0.0061968370235073
 239      0.01124047236426
 240    -0.047887698498787
 241    0.0071408303163131
 242    0.0076902583506141
 243    -0.028469778634179
 244    0.0064643007454068
 245    0.0024248613210883
 246    -0.0018766005395954
 247    0.00093864662555668
 248    0.00012184629606296
 249    0.00074579998286619
 250    0.0081627357491363
 251    0.0016216994535706
 252      0.29296433168951
 253      0.18523151096613
 254     0.077990627399991
 255     0.050911938544584
 256     -0.14751034931135
 257    -0.012544950506847
 258    0.0067475319511895
 259    -0.046714350679013
 260    0.0043549804042077
 261    -0.0062783889661897
 262    -0.0049696166378134
 263    0.0075723414360737
 264    0.0058500795263678
 265     0.011785800457551
 266    0.0018137230936457
 267     0.063674893290641
 268    -0.0038519286118738
 269    0.0012199252953275
 270     0.049581255034399
 271     0.032650835041141
 272    -0.013978411982348
 273    -0.0050166573611172
 274     0.023257924546262
 275    -0.002333618519623
 276    0.0051980957527919
 277      0.00841787348691
 278    0.00075088741497693
 279    -0.0016605011192572
 280    -0.00061596330546479
 281    -0.0004515036310947
 282    0.0013094149221475
 283    -0.0016866179765423
 284       0.0083224502107
 285    0.0066385567415432