[Molden Format]
made by pyscf v[2.0.1]
[Atoms] (AU)
C   1   6     0.69100024066471     0.64692934207205    -3.48223131169301
H   2   1     2.68052439830868     1.13355088658700    -3.25784032593313
C   3   6    -0.36286361513219     0.85440132524594    -5.97030179418974
H   4   1    -2.35448549047279     0.36322488579172    -6.17995817793143
C   5   6     0.93697958957450     1.61209284601821    -8.05828437677121
H   6   1     2.04771873455416     3.34419409619576    -7.97445952172335
C   7   6     0.93181860145248     0.24539724069794   -10.40101785795171
H   8   1    -0.18866463604211    -1.48700602985521   -10.45595821195799
H   9   1     1.55630230933075    -1.92953025305990    12.99630010416247
C   10   6     0.75233899775814    -2.21270439606481    11.10705728102219
H   11   1    -0.43433408177274    -3.90944857546550    11.22216085340412
C   12   6     2.86362581178706    -2.63237380607947     9.17926416456045
H   13   1     4.39038949912609    -1.24955421540245     9.49899813497433
H   14   1     3.74629220191363    -4.48798724300892     9.47414880959024
C   15   6     2.02478325613682    -2.42177285709634     6.44560829588644
C   16   6     3.88048732735477    -3.58795445234514     4.61402886975252
C   17   6    -0.18412382258602    -1.30464291234259     5.76021113872346
C   18   6    -2.10044360464350    -0.26837831858460     7.71610340967100
C   19   6    -3.08956938670431     2.35282328359417     6.88693925039594
C   20   6    -4.37372924086464    -2.09766595989678     7.93610724222001
C   21   6    -0.83850430601230     0.06372213486173    10.33002307638377
H   22   1     0.38411922151109     1.74281358582432    10.27380136542181
H   23   1    -2.30980003007874     0.45460143924521    11.73986301809809
H   24   1     4.58527064644668    -5.38706904487420     5.36778158031719
H   25   1     5.54944938085014    -2.37631462192748     4.35398898413318
H   26   1     3.06633019150423    -3.94118377050688     2.75255466040884
H   27   1    -4.17727778763735     2.26573369139522     5.12914900961283
H   28   1    -1.52662344944051     3.68001877445626     6.59540397144508
H   29   1    -4.32916174397830     3.13643051467482     8.35225460090378
H   30   1    -5.32329548508442    -2.36691813602939     6.11583672749896
H   31   1    -5.77989366602257    -1.33896741843465     9.25748940450990
H   32   1    -3.79310905208926    -3.96389819310853     8.61386170102686
C   33   6    -1.01100794811226    -1.06331657314144     3.11929490449947
C   34   6     0.37686231036534    -0.33275864505552     1.09165013605873
H   35   1    -3.01671213906703    -1.40297922279997     2.77827895090944
C   36   6    -0.64382707979370    -0.11591880174385    -1.42063131251064
H   37   1     2.35569259782137     0.17174499283897     1.33641070251401
H   38   1    -2.63317482980319    -0.60229203511219    -1.66119700387645
C   39   6     2.19331151370285     0.92821726401642   -12.52684146370420
C   40   6     2.06658501336205    -0.59430170292716   -14.82312084011087
H   41   1     3.34297492540252     2.63137484242591   -12.59961951178576
O   42   8     3.14891962090165    -0.09254461622574   -16.79735885819125
H   43   1     0.86886987612456    -2.32059369084518   -14.66320417409860
[GTO]
1 0
 s    6 1.00
             3047.5249  0.0018347001629433
             457.36951    0.01403730124668
             103.94869   0.068842606114048
             29.210155    0.23218442062076
              9.286663    0.46794134155879
              3.163927    0.36231203217765
 s    3 1.00
             7.8682724   -0.11933240861517
             1.8812885   -0.16085421161283
             0.5442493     1.1434564825515
 s    1 1.00
             0.1687144                   1
 p    3 1.00
             7.8682724   0.068999095584993
             1.8812885    0.31642397975315
             0.5442493    0.74430825237435
 p    1 1.00
             0.1687144                   1
 d    1 1.00
                   0.8                   1

2 0
 s    3 1.00
             18.731137    0.03349459952309
             2.8253937    0.23472694665786
             0.6401217    0.81375731841339
 s    1 1.00
             0.1612778                   1

3 0
 s    6 1.00
             3047.5249  0.0018347001629433
             457.36951    0.01403730124668
             103.94869   0.068842606114048
             29.210155    0.23218442062076
              9.286663    0.46794134155879
              3.163927    0.36231203217765
 s    3 1.00
             7.8682724   -0.11933240861517
             1.8812885   -0.16085421161283
             0.5442493     1.1434564825515
 s    1 1.00
             0.1687144                   1
 p    3 1.00
             7.8682724   0.068999095584993
             1.8812885    0.31642397975315
             0.5442493    0.74430825237435
 p    1 1.00
             0.1687144                   1
 d    1 1.00
                   0.8                   1

4 0
 s    3 1.00
             18.731137    0.03349459952309
             2.8253937    0.23472694665786
             0.6401217    0.81375731841339
 s    1 1.00
             0.1612778                   1

5 0
 s    6 1.00
             3047.5249  0.0018347001629433
             457.36951    0.01403730124668
             103.94869   0.068842606114048
             29.210155    0.23218442062076
              9.286663    0.46794134155879
              3.163927    0.36231203217765
 s    3 1.00
             7.8682724   -0.11933240861517
             1.8812885   -0.16085421161283
             0.5442493     1.1434564825515
 s    1 1.00
             0.1687144                   1
 p    3 1.00
             7.8682724   0.068999095584993
             1.8812885    0.31642397975315
             0.5442493    0.74430825237435
 p    1 1.00
             0.1687144                   1
 d    1 1.00
                   0.8                   1

6 0
 s    3 1.00
             18.731137    0.03349459952309
             2.8253937    0.23472694665786
             0.6401217    0.81375731841339
 s    1 1.00
             0.1612778                   1

7 0
 s    6 1.00
             3047.5249  0.0018347001629433
             457.36951    0.01403730124668
             103.94869   0.068842606114048
             29.210155    0.23218442062076
              9.286663    0.46794134155879
              3.163927    0.36231203217765
 s    3 1.00
             7.8682724   -0.11933240861517
             1.8812885   -0.16085421161283
             0.5442493     1.1434564825515
 s    1 1.00
             0.1687144                   1
 p    3 1.00
             7.8682724   0.068999095584993
             1.8812885    0.31642397975315
             0.5442493    0.74430825237435
 p    1 1.00
             0.1687144                   1
 d    1 1.00
                   0.8                   1

8 0
 s    3 1.00
             18.731137    0.03349459952309
             2.8253937    0.23472694665786
             0.6401217    0.81375731841339
 s    1 1.00
             0.1612778                   1

9 0
 s    3 1.00
             18.731137    0.03349459952309
             2.8253937    0.23472694665786
             0.6401217    0.81375731841339
 s    1 1.00
             0.1612778                   1

10 0
 s    6 1.00
             3047.5249  0.0018347001629433
             457.36951    0.01403730124668
             103.94869   0.068842606114048
             29.210155    0.23218442062076
              9.286663    0.46794134155879
              3.163927    0.36231203217765
 s    3 1.00
             7.8682724   -0.11933240861517
             1.8812885   -0.16085421161283
             0.5442493     1.1434564825515
 s    1 1.00
             0.1687144                   1
 p    3 1.00
             7.8682724   0.068999095584993
             1.8812885    0.31642397975315
             0.5442493    0.74430825237435
 p    1 1.00
             0.1687144                   1
 d    1 1.00
                   0.8                   1

11 0
 s    3 1.00
             18.731137    0.03349459952309
             2.8253937    0.23472694665786
             0.6401217    0.81375731841339
 s    1 1.00
             0.1612778                   1

12 0
 s    6 1.00
             3047.5249  0.0018347001629433
             457.36951    0.01403730124668
             103.94869   0.068842606114048
             29.210155    0.23218442062076
              9.286663    0.46794134155879
              3.163927    0.36231203217765
 s    3 1.00
             7.8682724   -0.11933240861517
             1.8812885   -0.16085421161283
             0.5442493     1.1434564825515
 s    1 1.00
             0.1687144                   1
 p    3 1.00
             7.8682724   0.068999095584993
             1.8812885    0.31642397975315
             0.5442493    0.74430825237435
 p    1 1.00
             0.1687144                   1
 d    1 1.00
                   0.8                   1

13 0
 s    3 1.00
             18.731137    0.03349459952309
             2.8253937    0.23472694665786
             0.6401217    0.81375731841339
 s    1 1.00
             0.1612778                   1

14 0
 s    3 1.00
             18.731137    0.03349459952309
             2.8253937    0.23472694665786
             0.6401217    0.81375731841339
 s    1 1.00
             0.1612778                   1

15 0
 s    6 1.00
             3047.5249  0.0018347001629433
             457.36951    0.01403730124668
             103.94869   0.068842606114048
             29.210155    0.23218442062076
              9.286663    0.46794134155879
              3.163927    0.36231203217765
 s    3 1.00
             7.8682724   -0.11933240861517
             1.8812885   -0.16085421161283
             0.5442493     1.1434564825515
 s    1 1.00
             0.1687144                   1
 p    3 1.00
             7.8682724   0.068999095584993
             1.8812885    0.31642397975315
             0.5442493    0.74430825237435
 p    1 1.00
             0.1687144                   1
 d    1 1.00
                   0.8                   1

16 0
 s    6 1.00
             3047.5249  0.0018347001629433
             457.36951    0.01403730124668
             103.94869   0.068842606114048
             29.210155    0.23218442062076
              9.286663    0.46794134155879
              3.163927    0.36231203217765
 s    3 1.00
             7.8682724   -0.11933240861517
             1.8812885   -0.16085421161283
             0.5442493     1.1434564825515
 s    1 1.00
             0.1687144                   1
 p    3 1.00
             7.8682724   0.068999095584993
             1.8812885    0.31642397975315
             0.5442493    0.74430825237435
 p    1 1.00
             0.1687144                   1
 d    1 1.00
                   0.8                   1

17 0
 s    6 1.00
             3047.5249  0.0018347001629433
             457.36951    0.01403730124668
             103.94869   0.068842606114048
             29.210155    0.23218442062076
              9.286663    0.46794134155879
              3.163927    0.36231203217765
 s    3 1.00
             7.8682724   -0.11933240861517
             1.8812885   -0.16085421161283
             0.5442493     1.1434564825515
 s    1 1.00
             0.1687144                   1
 p    3 1.00
             7.8682724   0.068999095584993
             1.8812885    0.31642397975315
             0.5442493    0.74430825237435
 p    1 1.00
             0.1687144                   1
 d    1 1.00
                   0.8                   1

18 0
 s    6 1.00
             3047.5249  0.0018347001629433
             457.36951    0.01403730124668
             103.94869   0.068842606114048
             29.210155    0.23218442062076
              9.286663    0.46794134155879
              3.163927    0.36231203217765
 s    3 1.00
             7.8682724   -0.11933240861517
             1.8812885   -0.16085421161283
             0.5442493     1.1434564825515
 s    1 1.00
             0.1687144                   1
 p    3 1.00
             7.8682724   0.068999095584993
             1.8812885    0.31642397975315
             0.5442493    0.74430825237435
 p    1 1.00
             0.1687144                   1
 d    1 1.00
                   0.8                   1

19 0
 s    6 1.00
             3047.5249  0.0018347001629433
             457.36951    0.01403730124668
             103.94869   0.068842606114048
             29.210155    0.23218442062076
              9.286663    0.46794134155879
              3.163927    0.36231203217765
 s    3 1.00
             7.8682724   -0.11933240861517
             1.8812885   -0.16085421161283
             0.5442493     1.1434564825515
 s    1 1.00
             0.1687144                   1
 p    3 1.00
             7.8682724   0.068999095584993
             1.8812885    0.31642397975315
             0.5442493    0.74430825237435
 p    1 1.00
             0.1687144                   1
 d    1 1.00
                   0.8                   1

20 0
 s    6 1.00
             3047.5249  0.0018347001629433
             457.36951    0.01403730124668
             103.94869   0.068842606114048
             29.210155    0.23218442062076
              9.286663    0.46794134155879
              3.163927    0.36231203217765
 s    3 1.00
             7.8682724   -0.11933240861517
             1.8812885   -0.16085421161283
             0.5442493     1.1434564825515
 s    1 1.00
             0.1687144                   1
 p    3 1.00
             7.8682724   0.068999095584993
             1.8812885    0.31642397975315
             0.5442493    0.74430825237435
 p    1 1.00
             0.1687144                   1
 d    1 1.00
                   0.8                   1

21 0
 s    6 1.00
             3047.5249  0.0018347001629433
             457.36951    0.01403730124668
             103.94869   0.068842606114048
             29.210155    0.23218442062076
              9.286663    0.46794134155879
              3.163927    0.36231203217765
 s    3 1.00
             7.8682724   -0.11933240861517
             1.8812885   -0.16085421161283
             0.5442493     1.1434564825515
 s    1 1.00
             0.1687144                   1
 p    3 1.00
             7.8682724   0.068999095584993
             1.8812885    0.31642397975315
             0.5442493    0.74430825237435
 p    1 1.00
             0.1687144                   1
 d    1 1.00
                   0.8                   1

22 0
 s    3 1.00
             18.731137    0.03349459952309
             2.8253937    0.23472694665786
             0.6401217    0.81375731841339
 s    1 1.00
             0.1612778                   1

23 0
 s    3 1.00
             18.731137    0.03349459952309
             2.8253937    0.23472694665786
             0.6401217    0.81375731841339
 s    1 1.00
             0.1612778                   1

24 0
 s    3 1.00
             18.731137    0.03349459952309
             2.8253937    0.23472694665786
             0.6401217    0.81375731841339
 s    1 1.00
             0.1612778                   1

25 0
 s    3 1.00
             18.731137    0.03349459952309
             2.8253937    0.23472694665786
             0.6401217    0.81375731841339
 s    1 1.00
             0.1612778                   1

26 0
 s    3 1.00
             18.731137    0.03349459952309
             2.8253937    0.23472694665786
             0.6401217    0.81375731841339
 s    1 1.00
             0.1612778                   1

27 0
 s    3 1.00
             18.731137    0.03349459952309
             2.8253937    0.23472694665786
             0.6401217    0.81375731841339
 s    1 1.00
             0.1612778                   1

28 0
 s    3 1.00
             18.731137    0.03349459952309
             2.8253937    0.23472694665786
             0.6401217    0.81375731841339
 s    1 1.00
             0.1612778                   1

29 0
 s    3 1.00
             18.731137    0.03349459952309
             2.8253937    0.23472694665786
             0.6401217    0.81375731841339
 s    1 1.00
             0.1612778                   1

30 0
 s    3 1.00
             18.731137    0.03349459952309
             2.8253937    0.23472694665786
             0.6401217    0.81375731841339
 s    1 1.00
             0.1612778                   1

31 0
 s    3 1.00
             18.731137    0.03349459952309
             2.8253937    0.23472694665786
             0.6401217    0.81375731841339
 s    1 1.00
             0.1612778                   1

32 0
 s    3 1.00
             18.731137    0.03349459952309
             2.8253937    0.23472694665786
             0.6401217    0.81375731841339
 s    1 1.00
             0.1612778                   1

33 0
 s    6 1.00
             3047.5249  0.0018347001629433
             457.36951    0.01403730124668
             103.94869   0.068842606114048
             29.210155    0.23218442062076
              9.286663    0.46794134155879
              3.163927    0.36231203217765
 s    3 1.00
             7.8682724   -0.11933240861517
             1.8812885   -0.16085421161283
             0.5442493     1.1434564825515
 s    1 1.00
             0.1687144                   1
 p    3 1.00
             7.8682724   0.068999095584993
             1.8812885    0.31642397975315
             0.5442493    0.74430825237435
 p    1 1.00
             0.1687144                   1
 d    1 1.00
                   0.8                   1

34 0
 s    6 1.00
             3047.5249  0.0018347001629433
             457.36951    0.01403730124668
             103.94869   0.068842606114048
             29.210155    0.23218442062076
              9.286663    0.46794134155879
              3.163927    0.36231203217765
 s    3 1.00
             7.8682724   -0.11933240861517
             1.8812885   -0.16085421161283
             0.5442493     1.1434564825515
 s    1 1.00
             0.1687144                   1
 p    3 1.00
             7.8682724   0.068999095584993
             1.8812885    0.31642397975315
             0.5442493    0.74430825237435
 p    1 1.00
             0.1687144                   1
 d    1 1.00
                   0.8                   1

35 0
 s    3 1.00
             18.731137    0.03349459952309
             2.8253937    0.23472694665786
             0.6401217    0.81375731841339
 s    1 1.00
             0.1612778                   1

36 0
 s    6 1.00
             3047.5249  0.0018347001629433
             457.36951    0.01403730124668
             103.94869   0.068842606114048
             29.210155    0.23218442062076
              9.286663    0.46794134155879
              3.163927    0.36231203217765
 s    3 1.00
             7.8682724   -0.11933240861517
             1.8812885   -0.16085421161283
             0.5442493     1.1434564825515
 s    1 1.00
             0.1687144                   1
 p    3 1.00
             7.8682724   0.068999095584993
             1.8812885    0.31642397975315
             0.5442493    0.74430825237435
 p    1 1.00
             0.1687144                   1
 d    1 1.00
                   0.8                   1

37 0
 s    3 1.00
             18.731137    0.03349459952309
             2.8253937    0.23472694665786
             0.6401217    0.81375731841339
 s    1 1.00
             0.1612778                   1

38 0
 s    3 1.00
             18.731137    0.03349459952309
             2.8253937    0.23472694665786
             0.6401217    0.81375731841339
 s    1 1.00
             0.1612778                   1

39 0
 s    6 1.00
             3047.5249  0.0018347001629433
             457.36951    0.01403730124668
             103.94869   0.068842606114048
             29.210155    0.23218442062076
              9.286663    0.46794134155879
              3.163927    0.36231203217765
 s    3 1.00
             7.8682724   -0.11933240861517
             1.8812885   -0.16085421161283
             0.5442493     1.1434564825515
 s    1 1.00
             0.1687144                   1
 p    3 1.00
             7.8682724   0.068999095584993
             1.8812885    0.31642397975315
             0.5442493    0.74430825237435
 p    1 1.00
             0.1687144                   1
 d    1 1.00
                   0.8                   1

40 0
 s    6 1.00
             3047.5249  0.0018347001629433
             457.36951    0.01403730124668
             103.94869   0.068842606114048
             29.210155    0.23218442062076
              9.286663    0.46794134155879
              3.163927    0.36231203217765
 s    3 1.00
             7.8682724   -0.11933240861517
             1.8812885   -0.16085421161283
             0.5442493     1.1434564825515
 s    1 1.00
             0.1687144                   1
 p    3 1.00
             7.8682724   0.068999095584993
             1.8812885    0.31642397975315
             0.5442493    0.74430825237435
 p    1 1.00
             0.1687144                   1
 d    1 1.00
                   0.8                   1

41 0
 s    3 1.00
             18.731137    0.03349459952309
             2.8253937    0.23472694665786
             0.6401217    0.81375731841339
 s    1 1.00
             0.1612778                   1

42 0
 s    6 1.00
             5484.6717   0.001831099805527
             825.23495   0.013950098518422
             188.04696    0.06844509273075
               52.9645    0.23271427528445
              16.89757    0.47019295006289
             5.7996353    0.35852086192309
 s    3 1.00
             15.539616   -0.11077750382508
             3.5999336   -0.14802630511126
             1.0137618     1.1307670390447
 s    1 1.00
             0.2700058                   1
 p    3 1.00
             15.539616   0.070874299543311
             3.5999336    0.33975279781076
             1.0137618    0.72715859531445
 p    1 1.00
             0.2700058                   1
 d    1 1.00
                   0.8                   1

43 0
 s    3 1.00
             18.731137    0.03349459952309
             2.8253937    0.23472694665786
             0.6401217    0.81375731841339
 s    1 1.00
             0.1612778                   1

[5d]
[7f]
[9g]

[MO]
 Sym= A
 Ene=               0
 Spin= Alpha
 Occup=    1.00000
   1     0.019179049130107
   2    -0.00080949071948398
   3    0.0063082631585504
   4    0.0003894770912451
   5    -6.0215774427352e-05
   6    0.0011616281854515
   7    0.00071827815167795
   8    0.00074923814518635
   9    -0.0038511527303917
  10    -0.00094962880311855
  11    -0.00090412767984954
  12     0.000135899697653
  13    -0.00023211384092591
  14    4.4244811492282e-05
  15    -0.00043535395937347
  16    -0.00086823063692512
  17      0.99458054567856
  18     0.036264140219408
  19    -0.026896702028366
  20    0.00072871976433835
  21    0.00015613517514522
  22    -0.00031421986995379
  23    -0.0029390481387829
  24    -0.00090078514433707
  25    -0.00016767940288785
  26    0.00080491020595985
  27    -0.00024482815413605
  28    -0.00038235749250449
  29    0.00026581082259137
  30    0.00013637835201619
  31    -0.0010537602819182
  32     0.003854022130865
  33     0.025918392021528
  34    -0.00037681371468122
  35    0.0035827169564596
  36    0.00082150766280547
  37    0.00034807236310923
  38    -0.0012450236447865
  39    -0.00045731493525146
  40    0.0016466387969586
  41     0.004659240192538
  42    -0.00065825951144844
  43    0.0010072543515804
  44    0.00048189899596759
  45    -0.00035112311002777
  46    -0.0004330156001716
  47    -0.00048619846888219
  48    -0.00056051162210214
  49    -0.00042446865262894
  50    -0.00045453298387057
  51    0.00044432819717813
  52    2.6927356975092e-05
  53    9.0593236076234e-05
  54    -0.00036469372488653
  55    -0.0014517709897811
  56    1.4422373171303e-05
  57    0.0051372784270516
  58    -3.843936491376e-05
  59    7.1191783945968e-05
  60    0.00015605118912155
  61    -0.00010612563745179
  62    0.00010100924899643
  63    -0.00031287062542637
  64    -5.8667911893032e-05
  65    -2.0995183258532e-06
  66    -4.9222623301219e-06
  67    1.2251457290253e-08
  68    -1.2503792441448e-07
  69    6.6526984558433e-06
  70    1.2777612538656e-06
  71    -3.0117571874712e-06
  72    -4.8748394223189e-07
  73    8.5383867290936e-06
  74    1.9694621258457e-05
  75    9.5876171413241e-06
  76    -3.3230025637394e-07
  77    -3.7122971291057e-07
  78    1.9050685522779e-07
  79    3.9109222043127e-07
  80    -1.179446550914e-07
  81    1.7392388679042e-06
  82    9.7538954861257e-06
  83    -2.2358045897568e-08
  84    -1.6164397041109e-07
  85    -4.5150775101867e-05
  86    2.6254434790026e-06
  87    2.4617248914173e-06
  88    3.7306550210415e-06
  89    1.6755287630246e-05
  90    -4.5337802747654e-05
  91    5.1442497250894e-06
  92    1.3815259121598e-06
  93    -1.9876504249945e-06
  94    2.4169089166531e-06
  95    -4.0900549675071e-07
  96    -8.6158851325693e-07
  97    4.6249654656392e-06
  98    8.8683625612335e-06
  99    -2.4839218448689e-06
 100    -1.4119443776916e-05
 101    -6.5534946301254e-07
 102    -9.0526678526602e-06
 103    0.00014887705918933
 104    -7.8444206203566e-07
 105    -6.1526623868826e-06
 106    -1.1354294775487e-06
 107    -0.00013681186203671
 108    0.00012567592849511
 109    0.00010780029439164
 110    -5.1778089226037e-06
 111    -8.9618478739503e-07
 112    3.6609866470489e-07
 113    1.9743277035428e-06
 114    -3.3975086087263e-06
 115    -2.9451120772942e-06
 116    -2.8457816740183e-05
 117    0.00019416150662582
 118    -1.7915148670383e-06
 119    1.955433167228e-06
 120    4.547424468769e-06
 121    -3.9485911114326e-05
 122    1.3004018398899e-05
 123    1.1474052890702e-05
 124    1.0465457781257e-06
 125    -1.6899267213265e-06
 126    -1.6477421422821e-06
 127    2.8332544838174e-07
 128    -1.5032980288926e-06
 129    -4.9142989984018e-06
 130    -4.5122865531909e-05
 131    7.9759983621267e-05
 132    1.2448304240379e-06
 133    -5.3779482419779e-06
 134    1.9824882828536e-05
 135    -0.0002171770588053
 136    3.9853707459009e-05
 137    -0.00030345729897117
 138    7.4123447756582e-06
 139    9.8098176710028e-06
 140    2.7630925780319e-06
 141    3.7328169553939e-06
 142    4.1807606917311e-06
 143    -1.3514430436535e-06
 144    -1.7736164517243e-05
 145    3.4368071601708e-05
 146    1.6460960132366e-06
 147    6.0259879969404e-06
 148    5.8539434697491e-06
 149    1.8217075318616e-05
 150    -3.3571056231714e-05
 151    -2.2476045938233e-05
 152    -5.2193649287868e-06
 153    -2.7692257196442e-06
 154    -8.8957747972434e-07
 155    3.6121806256161e-06
 156    -2.2140400993516e-06
 157    6.2896102932475e-07
 158    4.8202202061724e-06
 159    5.1816182149766e-06
 160    4.3685218635381e-06
 161    -1.0307097001565e-06
 162    2.7789579255616e-07
 163    -2.9409730739076e-05
 164    6.1216462046441e-06
 165    3.7775429034527e-06
 166    2.4045167657048e-06
 167    1.1034030488056e-07
 168    -2.365224633006e-07
 169     4.82825655984e-08
 170    9.3418395173933e-07
 171    -5.1254555475456e-07
 172    -1.0263591318115e-05
 173    2.0559693530376e-05
 174    -2.0827979835373e-06
 175    2.6411542130761e-07
 176    7.2412232388058e-06
 177    -1.7203048913433e-05
 178    -5.0358568414081e-06
 179    -2.9230032780229e-05
 180    1.7163186710335e-06
 181    2.6897740570092e-06
 182    4.8404929962203e-07
 183    -1.6907840419601e-06
 184    2.9015271861069e-07
 185    -2.1908536266724e-06
 186    -1.9220311104077e-05
 187    4.3301830412517e-05
 188    -1.0787191466967e-06
 189    8.0554311917213e-07
 190    4.3821795873533e-06
 191    7.4744528106522e-07
 192    -2.4105812481569e-06
 193    -4.779372223366e-05
 194    2.3915942138762e-06
 195    6.4894983725257e-07
 196    8.4874247358757e-07
 197    -2.7437031280459e-08
 198    3.2724415615126e-08
 199    -5.0182771292862e-06
 200    -1.3403130293012e-06
 201    -1.3532107763219e-06
 202    1.6083414884666e-05
 203    -8.8265589905303e-06
 204    -2.2835658825039e-06
 205    -2.3291588784525e-06
 206    -2.1000286939348e-05
 207    9.0816820482566e-06
 208    -6.6353181046709e-05
 209    6.2992183016851e-06
 210    -2.3399425587308e-05
 211    2.8795059885768e-06
 212    1.0385374330105e-05
 213    -8.4337304496705e-07
 214    -1.3012771106128e-05
 215    1.3771833110749e-06
 216    -4.7696233519316e-05
 217    1.4627983642583e-07
 218    4.6073131323158e-06
 219    -2.4704337052341e-07
 220    1.6130466250226e-06
 221    -3.2053397405826e-06
 222    -4.2630886661944e-05
 223    0.00045296858059832
 224    -1.5702318899095e-05
 225    3.1763585621954e-07
 226    9.9531725168681e-06
 227    0.00048539825130312
 228    0.00019487977409905
 229    -0.00050984223219399
 230    -4.4962406446727e-06
 231    -2.6152171658657e-05
 232    -1.1754831171604e-05
 233    1.3694521961741e-05
 234    1.5271418093714e-05
 235    -1.8575612963451e-05
 236    -8.3155002816712e-05
 237    0.00048104998944186
 238    -2.2829180691305e-05
 239    -1.1200064306756e-06
 240    -1.4133530072546e-06
 241    4.8562519334628e-05
 242    0.00022002700228252
 243    -0.0013178363841887
 244    2.5109306877957e-05
 245    4.9351596562451e-05
 246    7.730103459924e-06
 247    1.3182786831926e-05
 248    2.5247780127262e-06
 249    -2.1413199148038e-05
 250    0.00028807041335068
 251    1.5382125852871e-05
 252    -0.00031656511032594
 253    0.00089349476258326
 254    7.4709648054108e-05
 255    -4.4332576839292e-05
 256    0.00020854901551108
 257    -0.00060891553760161
 258    0.00027618335424227
 259    -0.0015586996743801
 260    -7.3268272478999e-05
 261    1.3387896936772e-06
 262    -1.1196785804007e-05
 263    0.00011370129781482
 264    7.8756625037165e-05
 265    -8.0966526418646e-05
 266    0.00015371235605429
 267    -0.00014256156946128
 268    -0.00063493376296935
 269    -2.7707036184006e-05
 270    -0.00030590340363144
 271    0.0039906930287436
 272    2.893892134516e-05
 273    1.0577425679706e-05
 274    9.067318871119e-05
 275    -0.0017114184823216
 276    -0.0012131806075634
 277    0.0015411828957061
 278    4.5767439063155e-05
 279    -0.00010927219023298
 280    -2.5398176472571e-05