[Molden Format]
made by pyscf v[2.0.1]
[Atoms] (AU)
C   1   6     0.69100024066471     0.64692934207205    -3.48223131169301
H   2   1     2.68052439830868     1.13355088658700    -3.25784032593313
C   3   6    -0.36286361513219     0.85440132524594    -5.97030179418974
H   4   1    -2.35448549047279     0.36322488579172    -6.17995817793143
C   5   6     0.93697958957450     1.61209284601821    -8.05828437677121
H   6   1    -0.06960811584452     2.58702669474359    -9.56733307637730
C   7   6     3.59571274713804     1.19684402678434    -8.39738626626495
H   8   1     4.57899779978681     0.21871567749258    -6.86894337963000
H   9   1     1.55630230933075    -1.92953025305990    12.99630010416247
C   10   6     0.75233899775814    -2.21270439606481    11.10705728102219
H   11   1    -0.43433408177274    -3.90944857546550    11.22216085340412
C   12   6     2.86362581178706    -2.63237380607947     9.17926416456045
H   13   1     4.39038949912609    -1.24955421540245     9.49899813497433
H   14   1     3.74629220191363    -4.48798724300892     9.47414880959024
C   15   6     2.02478325613682    -2.42177285709634     6.44560829588644
C   16   6     3.88048732735477    -3.58795445234514     4.61402886975252
C   17   6    -0.18412382258602    -1.30464291234259     5.76021113872346
C   18   6    -2.10044360464350    -0.26837831858460     7.71610340967100
C   19   6    -3.08956938670431     2.35282328359417     6.88693925039594
C   20   6    -4.37372924086464    -2.09766595989678     7.93610724222001
C   21   6    -0.83850430601230     0.06372213486173    10.33002307638377
H   22   1     0.38411922151109     1.74281358582432    10.27380136542181
H   23   1    -2.30980003007874     0.45460143924521    11.73986301809809
H   24   1     4.58527064644668    -5.38706904487420     5.36778158031719
H   25   1     5.54944938085014    -2.37631462192748     4.35398898413318
H   26   1     3.06633019150423    -3.94118377050688     2.75255466040884
H   27   1    -4.17727778763735     2.26573369139522     5.12914900961283
H   28   1    -1.52662344944051     3.68001877445626     6.59540397144508
H   29   1    -4.32916174397830     3.13643051467482     8.35225460090378
H   30   1    -5.32329548508442    -2.36691813602939     6.11583672749896
H   31   1    -5.77989366602257    -1.33896741843465     9.25748940450990
H   32   1    -3.79310905208926    -3.96389819310853     8.61386170102686
C   33   6    -1.01100794811226    -1.06331657314144     3.11929490449947
C   34   6     0.37686231036534    -0.33275864505552     1.09165013605873
H   35   1    -3.01671213906703    -1.40297922279997     2.77827895090944
C   36   6    -0.64382707979370    -0.11591880174385    -1.42063131251064
H   37   1     2.35569259782137     0.17174499283897     1.33641070251401
H   38   1    -2.63317482980319    -0.60229203511219    -1.66119700387645
C   39   6     4.96665860975130     1.91437223239220   -10.44247655051683
C   40   6     7.67160233174465     1.40206885234173   -10.60935163126053
H   41   1     4.10375913642339     2.89528826049847   -12.03023490303406
O   42   8     9.01623610133373     1.99111078946158   -12.38862500825095
H   43   1     8.47573431044455     0.39495244048141    -8.94223819440966
[GTO]
1 0
 s    6 1.00
             3047.5249  0.0018347001629433
             457.36951    0.01403730124668
             103.94869   0.068842606114048
             29.210155    0.23218442062076
              9.286663    0.46794134155879
              3.163927    0.36231203217765
 s    3 1.00
             7.8682724   -0.11933240861517
             1.8812885   -0.16085421161283
             0.5442493     1.1434564825515
 s    1 1.00
             0.1687144                   1
 p    3 1.00
             7.8682724   0.068999095584993
             1.8812885    0.31642397975315
             0.5442493    0.74430825237435
 p    1 1.00
             0.1687144                   1
 d    1 1.00
                   0.8                   1

2 0
 s    3 1.00
             18.731137    0.03349459952309
             2.8253937    0.23472694665786
             0.6401217    0.81375731841339
 s    1 1.00
             0.1612778                   1

3 0
 s    6 1.00
             3047.5249  0.0018347001629433
             457.36951    0.01403730124668
             103.94869   0.068842606114048
             29.210155    0.23218442062076
              9.286663    0.46794134155879
              3.163927    0.36231203217765
 s    3 1.00
             7.8682724   -0.11933240861517
             1.8812885   -0.16085421161283
             0.5442493     1.1434564825515
 s    1 1.00
             0.1687144                   1
 p    3 1.00
             7.8682724   0.068999095584993
             1.8812885    0.31642397975315
             0.5442493    0.74430825237435
 p    1 1.00
             0.1687144                   1
 d    1 1.00
                   0.8                   1

4 0
 s    3 1.00
             18.731137    0.03349459952309
             2.8253937    0.23472694665786
             0.6401217    0.81375731841339
 s    1 1.00
             0.1612778                   1

5 0
 s    6 1.00
             3047.5249  0.0018347001629433
             457.36951    0.01403730124668
             103.94869   0.068842606114048
             29.210155    0.23218442062076
              9.286663    0.46794134155879
              3.163927    0.36231203217765
 s    3 1.00
             7.8682724   -0.11933240861517
             1.8812885   -0.16085421161283
             0.5442493     1.1434564825515
 s    1 1.00
             0.1687144                   1
 p    3 1.00
             7.8682724   0.068999095584993
             1.8812885    0.31642397975315
             0.5442493    0.74430825237435
 p    1 1.00
             0.1687144                   1
 d    1 1.00
                   0.8                   1

6 0
 s    3 1.00
             18.731137    0.03349459952309
             2.8253937    0.23472694665786
             0.6401217    0.81375731841339
 s    1 1.00
             0.1612778                   1

7 0
 s    6 1.00
             3047.5249  0.0018347001629433
             457.36951    0.01403730124668
             103.94869   0.068842606114048
             29.210155    0.23218442062076
              9.286663    0.46794134155879
              3.163927    0.36231203217765
 s    3 1.00
             7.8682724   -0.11933240861517
             1.8812885   -0.16085421161283
             0.5442493     1.1434564825515
 s    1 1.00
             0.1687144                   1
 p    3 1.00
             7.8682724   0.068999095584993
             1.8812885    0.31642397975315
             0.5442493    0.74430825237435
 p    1 1.00
             0.1687144                   1
 d    1 1.00
                   0.8                   1

8 0
 s    3 1.00
             18.731137    0.03349459952309
             2.8253937    0.23472694665786
             0.6401217    0.81375731841339
 s    1 1.00
             0.1612778                   1

9 0
 s    3 1.00
             18.731137    0.03349459952309
             2.8253937    0.23472694665786
             0.6401217    0.81375731841339
 s    1 1.00
             0.1612778                   1

10 0
 s    6 1.00
             3047.5249  0.0018347001629433
             457.36951    0.01403730124668
             103.94869   0.068842606114048
             29.210155    0.23218442062076
              9.286663    0.46794134155879
              3.163927    0.36231203217765
 s    3 1.00
             7.8682724   -0.11933240861517
             1.8812885   -0.16085421161283
             0.5442493     1.1434564825515
 s    1 1.00
             0.1687144                   1
 p    3 1.00
             7.8682724   0.068999095584993
             1.8812885    0.31642397975315
             0.5442493    0.74430825237435
 p    1 1.00
             0.1687144                   1
 d    1 1.00
                   0.8                   1

11 0
 s    3 1.00
             18.731137    0.03349459952309
             2.8253937    0.23472694665786
             0.6401217    0.81375731841339
 s    1 1.00
             0.1612778                   1

12 0
 s    6 1.00
             3047.5249  0.0018347001629433
             457.36951    0.01403730124668
             103.94869   0.068842606114048
             29.210155    0.23218442062076
              9.286663    0.46794134155879
              3.163927    0.36231203217765
 s    3 1.00
             7.8682724   -0.11933240861517
             1.8812885   -0.16085421161283
             0.5442493     1.1434564825515
 s    1 1.00
             0.1687144                   1
 p    3 1.00
             7.8682724   0.068999095584993
             1.8812885    0.31642397975315
             0.5442493    0.74430825237435
 p    1 1.00
             0.1687144                   1
 d    1 1.00
                   0.8                   1

13 0
 s    3 1.00
             18.731137    0.03349459952309
             2.8253937    0.23472694665786
             0.6401217    0.81375731841339
 s    1 1.00
             0.1612778                   1

14 0
 s    3 1.00
             18.731137    0.03349459952309
             2.8253937    0.23472694665786
             0.6401217    0.81375731841339
 s    1 1.00
             0.1612778                   1

15 0
 s    6 1.00
             3047.5249  0.0018347001629433
             457.36951    0.01403730124668
             103.94869   0.068842606114048
             29.210155    0.23218442062076
              9.286663    0.46794134155879
              3.163927    0.36231203217765
 s    3 1.00
             7.8682724   -0.11933240861517
             1.8812885   -0.16085421161283
             0.5442493     1.1434564825515
 s    1 1.00
             0.1687144                   1
 p    3 1.00
             7.8682724   0.068999095584993
             1.8812885    0.31642397975315
             0.5442493    0.74430825237435
 p    1 1.00
             0.1687144                   1
 d    1 1.00
                   0.8                   1

16 0
 s    6 1.00
             3047.5249  0.0018347001629433
             457.36951    0.01403730124668
             103.94869   0.068842606114048
             29.210155    0.23218442062076
              9.286663    0.46794134155879
              3.163927    0.36231203217765
 s    3 1.00
             7.8682724   -0.11933240861517
             1.8812885   -0.16085421161283
             0.5442493     1.1434564825515
 s    1 1.00
             0.1687144                   1
 p    3 1.00
             7.8682724   0.068999095584993
             1.8812885    0.31642397975315
             0.5442493    0.74430825237435
 p    1 1.00
             0.1687144                   1
 d    1 1.00
                   0.8                   1

17 0
 s    6 1.00
             3047.5249  0.0018347001629433
             457.36951    0.01403730124668
             103.94869   0.068842606114048
             29.210155    0.23218442062076
              9.286663    0.46794134155879
              3.163927    0.36231203217765
 s    3 1.00
             7.8682724   -0.11933240861517
             1.8812885   -0.16085421161283
             0.5442493     1.1434564825515
 s    1 1.00
             0.1687144                   1
 p    3 1.00
             7.8682724   0.068999095584993
             1.8812885    0.31642397975315
             0.5442493    0.74430825237435
 p    1 1.00
             0.1687144                   1
 d    1 1.00
                   0.8                   1

18 0
 s    6 1.00
             3047.5249  0.0018347001629433
             457.36951    0.01403730124668
             103.94869   0.068842606114048
             29.210155    0.23218442062076
              9.286663    0.46794134155879
              3.163927    0.36231203217765
 s    3 1.00
             7.8682724   -0.11933240861517
             1.8812885   -0.16085421161283
             0.5442493     1.1434564825515
 s    1 1.00
             0.1687144                   1
 p    3 1.00
             7.8682724   0.068999095584993
             1.8812885    0.31642397975315
             0.5442493    0.74430825237435
 p    1 1.00
             0.1687144                   1
 d    1 1.00
                   0.8                   1

19 0
 s    6 1.00
             3047.5249  0.0018347001629433
             457.36951    0.01403730124668
             103.94869   0.068842606114048
             29.210155    0.23218442062076
              9.286663    0.46794134155879
              3.163927    0.36231203217765
 s    3 1.00
             7.8682724   -0.11933240861517
             1.8812885   -0.16085421161283
             0.5442493     1.1434564825515
 s    1 1.00
             0.1687144                   1
 p    3 1.00
             7.8682724   0.068999095584993
             1.8812885    0.31642397975315
             0.5442493    0.74430825237435
 p    1 1.00
             0.1687144                   1
 d    1 1.00
                   0.8                   1

20 0
 s    6 1.00
             3047.5249  0.0018347001629433
             457.36951    0.01403730124668
             103.94869   0.068842606114048
             29.210155    0.23218442062076
              9.286663    0.46794134155879
              3.163927    0.36231203217765
 s    3 1.00
             7.8682724   -0.11933240861517
             1.8812885   -0.16085421161283
             0.5442493     1.1434564825515
 s    1 1.00
             0.1687144                   1
 p    3 1.00
             7.8682724   0.068999095584993
             1.8812885    0.31642397975315
             0.5442493    0.74430825237435
 p    1 1.00
             0.1687144                   1
 d    1 1.00
                   0.8                   1

21 0
 s    6 1.00
             3047.5249  0.0018347001629433
             457.36951    0.01403730124668
             103.94869   0.068842606114048
             29.210155    0.23218442062076
              9.286663    0.46794134155879
              3.163927    0.36231203217765
 s    3 1.00
             7.8682724   -0.11933240861517
             1.8812885   -0.16085421161283
             0.5442493     1.1434564825515
 s    1 1.00
             0.1687144                   1
 p    3 1.00
             7.8682724   0.068999095584993
             1.8812885    0.31642397975315
             0.5442493    0.74430825237435
 p    1 1.00
             0.1687144                   1
 d    1 1.00
                   0.8                   1

22 0
 s    3 1.00
             18.731137    0.03349459952309
             2.8253937    0.23472694665786
             0.6401217    0.81375731841339
 s    1 1.00
             0.1612778                   1

23 0
 s    3 1.00
             18.731137    0.03349459952309
             2.8253937    0.23472694665786
             0.6401217    0.81375731841339
 s    1 1.00
             0.1612778                   1

24 0
 s    3 1.00
             18.731137    0.03349459952309
             2.8253937    0.23472694665786
             0.6401217    0.81375731841339
 s    1 1.00
             0.1612778                   1

25 0
 s    3 1.00
             18.731137    0.03349459952309
             2.8253937    0.23472694665786
             0.6401217    0.81375731841339
 s    1 1.00
             0.1612778                   1

26 0
 s    3 1.00
             18.731137    0.03349459952309
             2.8253937    0.23472694665786
             0.6401217    0.81375731841339
 s    1 1.00
             0.1612778                   1

27 0
 s    3 1.00
             18.731137    0.03349459952309
             2.8253937    0.23472694665786
             0.6401217    0.81375731841339
 s    1 1.00
             0.1612778                   1

28 0
 s    3 1.00
             18.731137    0.03349459952309
             2.8253937    0.23472694665786
             0.6401217    0.81375731841339
 s    1 1.00
             0.1612778                   1

29 0
 s    3 1.00
             18.731137    0.03349459952309
             2.8253937    0.23472694665786
             0.6401217    0.81375731841339
 s    1 1.00
             0.1612778                   1

30 0
 s    3 1.00
             18.731137    0.03349459952309
             2.8253937    0.23472694665786
             0.6401217    0.81375731841339
 s    1 1.00
             0.1612778                   1

31 0
 s    3 1.00
             18.731137    0.03349459952309
             2.8253937    0.23472694665786
             0.6401217    0.81375731841339
 s    1 1.00
             0.1612778                   1

32 0
 s    3 1.00
             18.731137    0.03349459952309
             2.8253937    0.23472694665786
             0.6401217    0.81375731841339
 s    1 1.00
             0.1612778                   1

33 0
 s    6 1.00
             3047.5249  0.0018347001629433
             457.36951    0.01403730124668
             103.94869   0.068842606114048
             29.210155    0.23218442062076
              9.286663    0.46794134155879
              3.163927    0.36231203217765
 s    3 1.00
             7.8682724   -0.11933240861517
             1.8812885   -0.16085421161283
             0.5442493     1.1434564825515
 s    1 1.00
             0.1687144                   1
 p    3 1.00
             7.8682724   0.068999095584993
             1.8812885    0.31642397975315
             0.5442493    0.74430825237435
 p    1 1.00
             0.1687144                   1
 d    1 1.00
                   0.8                   1

34 0
 s    6 1.00
             3047.5249  0.0018347001629433
             457.36951    0.01403730124668
             103.94869   0.068842606114048
             29.210155    0.23218442062076
              9.286663    0.46794134155879
              3.163927    0.36231203217765
 s    3 1.00
             7.8682724   -0.11933240861517
             1.8812885   -0.16085421161283
             0.5442493     1.1434564825515
 s    1 1.00
             0.1687144                   1
 p    3 1.00
             7.8682724   0.068999095584993
             1.8812885    0.31642397975315
             0.5442493    0.74430825237435
 p    1 1.00
             0.1687144                   1
 d    1 1.00
                   0.8                   1

35 0
 s    3 1.00
             18.731137    0.03349459952309
             2.8253937    0.23472694665786
             0.6401217    0.81375731841339
 s    1 1.00
             0.1612778                   1

36 0
 s    6 1.00
             3047.5249  0.0018347001629433
             457.36951    0.01403730124668
             103.94869   0.068842606114048
             29.210155    0.23218442062076
              9.286663    0.46794134155879
              3.163927    0.36231203217765
 s    3 1.00
             7.8682724   -0.11933240861517
             1.8812885   -0.16085421161283
             0.5442493     1.1434564825515
 s    1 1.00
             0.1687144                   1
 p    3 1.00
             7.8682724   0.068999095584993
             1.8812885    0.31642397975315
             0.5442493    0.74430825237435
 p    1 1.00
             0.1687144                   1
 d    1 1.00
                   0.8                   1

37 0
 s    3 1.00
             18.731137    0.03349459952309
             2.8253937    0.23472694665786
             0.6401217    0.81375731841339
 s    1 1.00
             0.1612778                   1

38 0
 s    3 1.00
             18.731137    0.03349459952309
             2.8253937    0.23472694665786
             0.6401217    0.81375731841339
 s    1 1.00
             0.1612778                   1

39 0
 s    6 1.00
             3047.5249  0.0018347001629433
             457.36951    0.01403730124668
             103.94869   0.068842606114048
             29.210155    0.23218442062076
              9.286663    0.46794134155879
              3.163927    0.36231203217765
 s    3 1.00
             7.8682724   -0.11933240861517
             1.8812885   -0.16085421161283
             0.5442493     1.1434564825515
 s    1 1.00
             0.1687144                   1
 p    3 1.00
             7.8682724   0.068999095584993
             1.8812885    0.31642397975315
             0.5442493    0.74430825237435
 p    1 1.00
             0.1687144                   1
 d    1 1.00
                   0.8                   1

40 0
 s    6 1.00
             3047.5249  0.0018347001629433
             457.36951    0.01403730124668
             103.94869   0.068842606114048
             29.210155    0.23218442062076
              9.286663    0.46794134155879
              3.163927    0.36231203217765
 s    3 1.00
             7.8682724   -0.11933240861517
             1.8812885   -0.16085421161283
             0.5442493     1.1434564825515
 s    1 1.00
             0.1687144                   1
 p    3 1.00
             7.8682724   0.068999095584993
             1.8812885    0.31642397975315
             0.5442493    0.74430825237435
 p    1 1.00
             0.1687144                   1
 d    1 1.00
                   0.8                   1

41 0
 s    3 1.00
             18.731137    0.03349459952309
             2.8253937    0.23472694665786
             0.6401217    0.81375731841339
 s    1 1.00
             0.1612778                   1

42 0
 s    6 1.00
             5484.6717   0.001831099805527
             825.23495   0.013950098518422
             188.04696    0.06844509273075
               52.9645    0.23271427528445
              16.89757    0.47019295006289
             5.7996353    0.35852086192309
 s    3 1.00
             15.539616   -0.11077750382508
             3.5999336   -0.14802630511126
             1.0137618     1.1307670390447
 s    1 1.00
             0.2700058                   1
 p    3 1.00
             15.539616   0.070874299543311
             3.5999336    0.33975279781076
             1.0137618    0.72715859531445
 p    1 1.00
             0.2700058                   1
 d    1 1.00
                   0.8                   1

43 0
 s    3 1.00
             18.731137    0.03349459952309
             2.8253937    0.23472694665786
             0.6401217    0.81375731841339
 s    1 1.00
             0.1612778                   1

[5d]
[7f]
[9g]

[MO]
 Sym= A
 Ene=               0
 Spin= Alpha
 Occup=    1.00000
   1    0.00017620874533914
   2    -3.9724168488497e-05
   3    0.0012650459615964
   4    1.2139018511364e-05
   5    6.561215240601e-05
   6    -0.00011021939008575
   7    -0.0004640167104746
   8    -0.00062466154733811
   9    0.0015237702269718
  10    5.2871031559663e-05
  11    -9.7831286878996e-05
  12    -2.1554976292052e-05
  13    -1.4038351508343e-05
  14    2.2016464612192e-05
  15    8.3407126465393e-05
  16    4.7368803375702e-05
  17    -0.0011757505493251
  18    0.00031555589730737
  19    -0.0009463011603334
  20    0.00014228807421797
  21    1.4735822491682e-06
  22    -0.0001044320610924
  23    7.5955989782839e-05
  24    -0.00012429800003594
  25    0.00094273294497659
  26    -3.5309036351092e-05
  27    -4.5169845143187e-05
  28     0.000110468411491
  29    -4.0421643782495e-05
  30    7.6848501645307e-05
  31    3.5509785650069e-05
  32    5.4833354116122e-05
  33    -0.014454371121173
  34    0.00092993836761119
  35    -0.006751456578602
  36    0.0011619481800531
  37    -0.00017347508080452
  38    -0.00019660013065709
  39    -0.0037815459748447
  40    -0.00022590081883957
  41    0.0020318467368024
  42    -0.00065378611376087
  43    -0.00017093127141642
  44    2.1361036060218e-05
  45    0.0010984404554126
  46    -0.00040740946501212
  47    0.00041708552483469
  48    0.00047432496377228
  49     -0.99498641945831
  50    -0.036059381956714
  51     0.027842450536566
  52    0.00018533910496646
  53    -0.00032331666836227
  54    0.00061535923351849
  55    -0.0017596798005433
  56    0.0016270215488298
  57    -0.0023717587195306
  58    -0.0001632177360013
  59    0.00073262546595374
  60    0.0003511000329067
  61    -0.00058816686913971
  62    -7.7434053039886e-05
  63    0.0011164118210253
  64    -0.0038228988217287
  65    6.348805985881e-07
  66    -9.53219210072e-07
  67    1.8928012136311e-07
  68    3.1025688690045e-06
  69    -8.7814448261869e-06
  70    -1.4158414731715e-06
  71    1.6544208448355e-06
  72    -1.1187029285072e-06
  73    -3.2865933752744e-06
  74    -2.6737988961833e-06
  75    2.6852655151976e-06
  76    5.5140557688072e-08
  77    4.4678282464056e-07
  78    -4.7378069528438e-07
  79    -3.151391657775e-07
  80    2.8526785971364e-07
  81    -3.4985423131089e-07
  82    3.7153383975755e-07
  83    -2.8380269323464e-07
  84    -4.8884539886296e-08
  85     6.10386838514e-05
  86    -3.2139982638535e-06
  87    5.4171993341826e-07
  88    -4.2092036091223e-06
  89    -1.9398511641936e-05
  90    1.916884974288e-05
  91    -1.2775426103415e-05
  92    -5.6378861193656e-07
  93    1.722764731383e-06
  94    -1.9650136627587e-06
  95    1.1350104976536e-07
  96    4.4605863939699e-07
  97    -3.1428168959953e-06
  98    -1.6300578152424e-06
  99    -4.5971974597915e-07
 100    4.3080953865116e-06
 101    8.0705383483447e-07
 102    3.9664965274289e-06
 103    -0.00012286910439306
 104    -6.4343511424433e-07
 105    2.5937846001625e-06
 106    5.4586192124349e-06
 107    0.00011989469501309
 108    -9.6340905519845e-05
 109    -0.00012334008852457
 110    1.2966027636796e-06
 111    5.9990160914014e-07
 112    -3.4522731755063e-07
 113    -3.2811432200592e-07
 114    3.5973173674419e-06
 115    1.1118504825285e-06
 116    8.511817886768e-06
 117    -0.00011379824977601
 118    2.8629940156206e-06
 119    -3.2767237259579e-06
 120    -1.4479301045591e-06
 121    2.8330640783802e-05
 122    -9.3396140983288e-06
 123    -4.1316054976799e-05
 124    -1.744359790209e-07
 125    1.980107520543e-06
 126    -6.8136977096679e-08
 127    -7.9356101397351e-07
 128    1.5192245425455e-06
 129    3.1353656293988e-06
 130    2.3578979949344e-05
 131    -0.00027052958446661
 132    -6.8318882615556e-06
 133    -2.4057290792569e-06
 134    -4.5091447094437e-06
 135    0.00019504387134805
 136    -1.7461058768408e-05
 137    0.00037979234046449
 138    -1.2052852560641e-05
 139    -6.2052382116816e-06
 140    -2.122155582414e-06
 141    -2.2638049469059e-07
 142    -8.9182264885621e-07
 143    1.6816739620479e-06
 144    1.8823504160016e-05
 145    -5.5396449553704e-05
 146    5.5032681866787e-07
 147    3.2094820096044e-07
 148    -6.8905090690931e-06
 149    -4.5930702164615e-05
 150    -1.5970385236194e-06
 151    2.1991367201623e-05
 152    4.9100392012897e-06
 153    1.0121576148622e-06
 154    1.8982957802925e-06
 155    -2.7308529982484e-06
 156    4.0219211324962e-06
 157    -6.4521453587705e-07
 158    -4.0517712286886e-06
 159    1.6330183463735e-05
 160    -1.5847637511855e-06
 161    -1.1357537368719e-06
 162    4.9615417101377e-07
 163    2.6027377138978e-05
 164    -5.7068086704355e-06
 165    -2.8712960987456e-06
 166    -2.5948716333136e-06
 167    8.5674375809744e-07
 168    -1.669935291107e-07
 169    4.6165151163735e-07
 170    -1.922870823368e-06
 171    -4.492751346527e-07
 172    -1.8233342142945e-06
 173    8.8305544088237e-06
 174    1.5520417078498e-06
 175    1.0384374161442e-06
 176    -2.6979476668688e-06
 177    -3.7866533658674e-06
 178    -1.3123445541262e-05
 179    -4.6898616757362e-06
 180    1.8171552263812e-07
 181    -1.6020751227077e-06
 182    -5.0354322830444e-07
 183    1.0925697484723e-06
 184    -1.0920841105832e-06
 185    1.6135810709866e-06
 186    1.5515540614484e-05
 187    -2.6589972476567e-05
 188    1.6514786108541e-06
 189    -6.5536353102499e-07
 190    -4.182759450927e-06
 191    -1.0420153545003e-05
 192    6.9180261774086e-06
 193    2.7871879105589e-05
 194    -1.387712676568e-06
 195    -4.174865332007e-07
 196    -1.8985379076208e-06
 197    -2.9274077249798e-08
 198    3.5489070287354e-07
 199    3.7971317138412e-06
 200    2.9287616085768e-06
 201    8.4959709155924e-08
 202    -1.3911269005582e-05
 203    4.8473192145783e-06
 204    7.7310209295349e-06
 205    -1.5600517340939e-06
 206    9.7570834690025e-06
 207    2.1859511138357e-06
 208    -9.9077131436562e-06
 209    -3.7193898354307e-06
 210    1.0892162722171e-05
 211    -3.22507093319e-06
 212    -9.187399807598e-06
 213    3.9277800344489e-07
 214    7.0462197682824e-06
 215    2.8047227134896e-06
 216    -2.0360803941103e-05
 217    -1.2393038012912e-06
 218    9.323659193766e-07
 219    -2.3824614983841e-06
 220    -4.7314244440543e-06
 221    3.2555154003795e-06
 222    3.174030487231e-05
 223    4.4676648806221e-05
 224    -9.0654485469565e-06
 225    3.4102083563673e-06
 226    -2.2711958530313e-05
 227    3.5715495389118e-05
 228    -9.9752687967725e-05
 229    0.00058941555607904
 230    1.4019669111253e-06
 231    2.1340292092827e-05
 232    8.4051557817037e-06
 233    -8.8153212761871e-06
 234    -7.2425284163508e-06
 235    -5.0315785105635e-06
 236    -2.1248757632187e-05
 237    0.00061465431782682
 238    -2.4349905035938e-06
 239    2.2683016260908e-06
 240    -2.258438176632e-05
 241    -4.902800852147e-05
 242    -2.4363064483724e-05
 243    -4.659577305704e-05
 244    2.0636128599412e-05
 245    -1.8646124576433e-05
 246    -7.5905881777957e-06
 247    -6.2771876537668e-06
 248    4.3722820972397e-06
 249    2.646305218652e-05
 250    1.1146357920877e-05
 251    2.5251348746072e-05
 252    0.00017967632468934
 253    -0.0020559337212488
 254    1.8886732430512e-05
 255    -8.5842400707652e-06
 256    1.6395226786863e-05
 257    -0.00095591556052106
 258    -0.00031854969591982
 259    0.0007904706685445
 260    -4.6812380705449e-05
 261    5.6522190278068e-05
 262    3.0177012970466e-05
 263    -3.2028825343484e-05
 264    -2.1639526340525e-05
 265    4.0020234963596e-06
 266    -9.5645464635288e-05
 267    -1.3098427304036e-06
 268    -0.00022341095825122
 269    -0.00010845279533479
 270    0.0020438126172732
 271    -0.0084201040583799
 272    -0.00083745986356889
 273    -0.0004613574199464
 274    0.0012997454432915
 275    0.0031029187122373
 276    0.00027899933664746
 277    -0.0020022977354749
 278    0.00069867708155142
 279    -0.00093996049856483
 280    -0.00062730311734668