[Molden Format]
made by pyscf v[2.0.1]
[Atoms] (AU)
C   1   6     0.69100024066471     0.64692934207205    -3.48223131169301
H   2   1     2.68052439830868     1.13355088658700    -3.25784032593313
C   3   6    -0.36286361513219     0.85440132524594    -5.97030179418974
H   4   1    -2.35448549047279     0.36322488579172    -6.17995817793143
C   5   6     0.93697958957450     1.61209284601821    -8.05828437677121
H   6   1     0.50725181311820     3.44287068169954    -8.89764684313250
C   7   6     2.86970100877903     0.12057508237944    -9.23991306333710
H   8   1     3.28022106466413    -1.70875314533660    -8.37692190559989
H   9   1     1.55630230933075    -1.92953025305990    12.99630010416247
C   10   6     0.75233899775814    -2.21270439606481    11.10705728102219
H   11   1    -0.43433408177274    -3.90944857546550    11.22216085340412
C   12   6     2.86362581178706    -2.63237380607947     9.17926416456045
H   13   1     4.39038949912609    -1.24955421540245     9.49899813497433
H   14   1     3.74629220191363    -4.48798724300892     9.47414880959024
C   15   6     2.02478325613682    -2.42177285709634     6.44560829588644
C   16   6     3.88048732735477    -3.58795445234514     4.61402886975252
C   17   6    -0.18412382258602    -1.30464291234259     5.76021113872346
C   18   6    -2.10044360464350    -0.26837831858460     7.71610340967100
C   19   6    -3.08956938670431     2.35282328359417     6.88693925039594
C   20   6    -4.37372924086464    -2.09766595989678     7.93610724222001
C   21   6    -0.83850430601230     0.06372213486173    10.33002307638377
H   22   1     0.38411922151109     1.74281358582432    10.27380136542181
H   23   1    -2.30980003007874     0.45460143924521    11.73986301809809
H   24   1     4.58527064644668    -5.38706904487420     5.36778158031719
H   25   1     5.54944938085014    -2.37631462192748     4.35398898413318
H   26   1     3.06633019150423    -3.94118377050688     2.75255466040884
H   27   1    -4.17727778763735     2.26573369139522     5.12914900961283
H   28   1    -1.52662344944051     3.68001877445626     6.59540397144508
H   29   1    -4.32916174397830     3.13643051467482     8.35225460090378
H   30   1    -5.32329548508442    -2.36691813602939     6.11583672749896
H   31   1    -5.77989366602257    -1.33896741843465     9.25748940450990
H   32   1    -3.79310905208926    -3.96389819310853     8.61386170102686
C   33   6    -1.01100794811226    -1.06331657314144     3.11929490449947
C   34   6     0.37686231036534    -0.33275864505552     1.09165013605873
H   35   1    -3.01671213906703    -1.40297922279997     2.77827895090944
C   36   6    -0.64382707979370    -0.11591880174385    -1.42063131251064
H   37   1     2.35569259782137     0.17174499283897     1.33641070251401
H   38   1    -2.63317482980319    -0.60229203511219    -1.66119700387645
C   39   6     4.20991814769739     0.79575668965015   -11.31949989075694
C   40   6     6.14288813089389    -0.86010693489370   -12.38193355267250
H   41   1     3.89481568247576     2.59125541029260   -12.27063769452772
O   42   8     7.41472391465697    -0.37430332261595   -14.24398959848541
H   43   1     6.40229959564941    -2.67780216203268   -11.34807250251721
[GTO]
1 0
 s    6 1.00
             3047.5249  0.0018347001629433
             457.36951    0.01403730124668
             103.94869   0.068842606114048
             29.210155    0.23218442062076
              9.286663    0.46794134155879
              3.163927    0.36231203217765
 s    3 1.00
             7.8682724   -0.11933240861517
             1.8812885   -0.16085421161283
             0.5442493     1.1434564825515
 s    1 1.00
             0.1687144                   1
 p    3 1.00
             7.8682724   0.068999095584993
             1.8812885    0.31642397975315
             0.5442493    0.74430825237435
 p    1 1.00
             0.1687144                   1
 d    1 1.00
                   0.8                   1

2 0
 s    3 1.00
             18.731137    0.03349459952309
             2.8253937    0.23472694665786
             0.6401217    0.81375731841339
 s    1 1.00
             0.1612778                   1

3 0
 s    6 1.00
             3047.5249  0.0018347001629433
             457.36951    0.01403730124668
             103.94869   0.068842606114048
             29.210155    0.23218442062076
              9.286663    0.46794134155879
              3.163927    0.36231203217765
 s    3 1.00
             7.8682724   -0.11933240861517
             1.8812885   -0.16085421161283
             0.5442493     1.1434564825515
 s    1 1.00
             0.1687144                   1
 p    3 1.00
             7.8682724   0.068999095584993
             1.8812885    0.31642397975315
             0.5442493    0.74430825237435
 p    1 1.00
             0.1687144                   1
 d    1 1.00
                   0.8                   1

4 0
 s    3 1.00
             18.731137    0.03349459952309
             2.8253937    0.23472694665786
             0.6401217    0.81375731841339
 s    1 1.00
             0.1612778                   1

5 0
 s    6 1.00
             3047.5249  0.0018347001629433
             457.36951    0.01403730124668
             103.94869   0.068842606114048
             29.210155    0.23218442062076
              9.286663    0.46794134155879
              3.163927    0.36231203217765
 s    3 1.00
             7.8682724   -0.11933240861517
             1.8812885   -0.16085421161283
             0.5442493     1.1434564825515
 s    1 1.00
             0.1687144                   1
 p    3 1.00
             7.8682724   0.068999095584993
             1.8812885    0.31642397975315
             0.5442493    0.74430825237435
 p    1 1.00
             0.1687144                   1
 d    1 1.00
                   0.8                   1

6 0
 s    3 1.00
             18.731137    0.03349459952309
             2.8253937    0.23472694665786
             0.6401217    0.81375731841339
 s    1 1.00
             0.1612778                   1

7 0
 s    6 1.00
             3047.5249  0.0018347001629433
             457.36951    0.01403730124668
             103.94869   0.068842606114048
             29.210155    0.23218442062076
              9.286663    0.46794134155879
              3.163927    0.36231203217765
 s    3 1.00
             7.8682724   -0.11933240861517
             1.8812885   -0.16085421161283
             0.5442493     1.1434564825515
 s    1 1.00
             0.1687144                   1
 p    3 1.00
             7.8682724   0.068999095584993
             1.8812885    0.31642397975315
             0.5442493    0.74430825237435
 p    1 1.00
             0.1687144                   1
 d    1 1.00
                   0.8                   1

8 0
 s    3 1.00
             18.731137    0.03349459952309
             2.8253937    0.23472694665786
             0.6401217    0.81375731841339
 s    1 1.00
             0.1612778                   1

9 0
 s    3 1.00
             18.731137    0.03349459952309
             2.8253937    0.23472694665786
             0.6401217    0.81375731841339
 s    1 1.00
             0.1612778                   1

10 0
 s    6 1.00
             3047.5249  0.0018347001629433
             457.36951    0.01403730124668
             103.94869   0.068842606114048
             29.210155    0.23218442062076
              9.286663    0.46794134155879
              3.163927    0.36231203217765
 s    3 1.00
             7.8682724   -0.11933240861517
             1.8812885   -0.16085421161283
             0.5442493     1.1434564825515
 s    1 1.00
             0.1687144                   1
 p    3 1.00
             7.8682724   0.068999095584993
             1.8812885    0.31642397975315
             0.5442493    0.74430825237435
 p    1 1.00
             0.1687144                   1
 d    1 1.00
                   0.8                   1

11 0
 s    3 1.00
             18.731137    0.03349459952309
             2.8253937    0.23472694665786
             0.6401217    0.81375731841339
 s    1 1.00
             0.1612778                   1

12 0
 s    6 1.00
             3047.5249  0.0018347001629433
             457.36951    0.01403730124668
             103.94869   0.068842606114048
             29.210155    0.23218442062076
              9.286663    0.46794134155879
              3.163927    0.36231203217765
 s    3 1.00
             7.8682724   -0.11933240861517
             1.8812885   -0.16085421161283
             0.5442493     1.1434564825515
 s    1 1.00
             0.1687144                   1
 p    3 1.00
             7.8682724   0.068999095584993
             1.8812885    0.31642397975315
             0.5442493    0.74430825237435
 p    1 1.00
             0.1687144                   1
 d    1 1.00
                   0.8                   1

13 0
 s    3 1.00
             18.731137    0.03349459952309
             2.8253937    0.23472694665786
             0.6401217    0.81375731841339
 s    1 1.00
             0.1612778                   1

14 0
 s    3 1.00
             18.731137    0.03349459952309
             2.8253937    0.23472694665786
             0.6401217    0.81375731841339
 s    1 1.00
             0.1612778                   1

15 0
 s    6 1.00
             3047.5249  0.0018347001629433
             457.36951    0.01403730124668
             103.94869   0.068842606114048
             29.210155    0.23218442062076
              9.286663    0.46794134155879
              3.163927    0.36231203217765
 s    3 1.00
             7.8682724   -0.11933240861517
             1.8812885   -0.16085421161283
             0.5442493     1.1434564825515
 s    1 1.00
             0.1687144                   1
 p    3 1.00
             7.8682724   0.068999095584993
             1.8812885    0.31642397975315
             0.5442493    0.74430825237435
 p    1 1.00
             0.1687144                   1
 d    1 1.00
                   0.8                   1

16 0
 s    6 1.00
             3047.5249  0.0018347001629433
             457.36951    0.01403730124668
             103.94869   0.068842606114048
             29.210155    0.23218442062076
              9.286663    0.46794134155879
              3.163927    0.36231203217765
 s    3 1.00
             7.8682724   -0.11933240861517
             1.8812885   -0.16085421161283
             0.5442493     1.1434564825515
 s    1 1.00
             0.1687144                   1
 p    3 1.00
             7.8682724   0.068999095584993
             1.8812885    0.31642397975315
             0.5442493    0.74430825237435
 p    1 1.00
             0.1687144                   1
 d    1 1.00
                   0.8                   1

17 0
 s    6 1.00
             3047.5249  0.0018347001629433
             457.36951    0.01403730124668
             103.94869   0.068842606114048
             29.210155    0.23218442062076
              9.286663    0.46794134155879
              3.163927    0.36231203217765
 s    3 1.00
             7.8682724   -0.11933240861517
             1.8812885   -0.16085421161283
             0.5442493     1.1434564825515
 s    1 1.00
             0.1687144                   1
 p    3 1.00
             7.8682724   0.068999095584993
             1.8812885    0.31642397975315
             0.5442493    0.74430825237435
 p    1 1.00
             0.1687144                   1
 d    1 1.00
                   0.8                   1

18 0
 s    6 1.00
             3047.5249  0.0018347001629433
             457.36951    0.01403730124668
             103.94869   0.068842606114048
             29.210155    0.23218442062076
              9.286663    0.46794134155879
              3.163927    0.36231203217765
 s    3 1.00
             7.8682724   -0.11933240861517
             1.8812885   -0.16085421161283
             0.5442493     1.1434564825515
 s    1 1.00
             0.1687144                   1
 p    3 1.00
             7.8682724   0.068999095584993
             1.8812885    0.31642397975315
             0.5442493    0.74430825237435
 p    1 1.00
             0.1687144                   1
 d    1 1.00
                   0.8                   1

19 0
 s    6 1.00
             3047.5249  0.0018347001629433
             457.36951    0.01403730124668
             103.94869   0.068842606114048
             29.210155    0.23218442062076
              9.286663    0.46794134155879
              3.163927    0.36231203217765
 s    3 1.00
             7.8682724   -0.11933240861517
             1.8812885   -0.16085421161283
             0.5442493     1.1434564825515
 s    1 1.00
             0.1687144                   1
 p    3 1.00
             7.8682724   0.068999095584993
             1.8812885    0.31642397975315
             0.5442493    0.74430825237435
 p    1 1.00
             0.1687144                   1
 d    1 1.00
                   0.8                   1

20 0
 s    6 1.00
             3047.5249  0.0018347001629433
             457.36951    0.01403730124668
             103.94869   0.068842606114048
             29.210155    0.23218442062076
              9.286663    0.46794134155879
              3.163927    0.36231203217765
 s    3 1.00
             7.8682724   -0.11933240861517
             1.8812885   -0.16085421161283
             0.5442493     1.1434564825515
 s    1 1.00
             0.1687144                   1
 p    3 1.00
             7.8682724   0.068999095584993
             1.8812885    0.31642397975315
             0.5442493    0.74430825237435
 p    1 1.00
             0.1687144                   1
 d    1 1.00
                   0.8                   1

21 0
 s    6 1.00
             3047.5249  0.0018347001629433
             457.36951    0.01403730124668
             103.94869   0.068842606114048
             29.210155    0.23218442062076
              9.286663    0.46794134155879
              3.163927    0.36231203217765
 s    3 1.00
             7.8682724   -0.11933240861517
             1.8812885   -0.16085421161283
             0.5442493     1.1434564825515
 s    1 1.00
             0.1687144                   1
 p    3 1.00
             7.8682724   0.068999095584993
             1.8812885    0.31642397975315
             0.5442493    0.74430825237435
 p    1 1.00
             0.1687144                   1
 d    1 1.00
                   0.8                   1

22 0
 s    3 1.00
             18.731137    0.03349459952309
             2.8253937    0.23472694665786
             0.6401217    0.81375731841339
 s    1 1.00
             0.1612778                   1

23 0
 s    3 1.00
             18.731137    0.03349459952309
             2.8253937    0.23472694665786
             0.6401217    0.81375731841339
 s    1 1.00
             0.1612778                   1

24 0
 s    3 1.00
             18.731137    0.03349459952309
             2.8253937    0.23472694665786
             0.6401217    0.81375731841339
 s    1 1.00
             0.1612778                   1

25 0
 s    3 1.00
             18.731137    0.03349459952309
             2.8253937    0.23472694665786
             0.6401217    0.81375731841339
 s    1 1.00
             0.1612778                   1

26 0
 s    3 1.00
             18.731137    0.03349459952309
             2.8253937    0.23472694665786
             0.6401217    0.81375731841339
 s    1 1.00
             0.1612778                   1

27 0
 s    3 1.00
             18.731137    0.03349459952309
             2.8253937    0.23472694665786
             0.6401217    0.81375731841339
 s    1 1.00
             0.1612778                   1

28 0
 s    3 1.00
             18.731137    0.03349459952309
             2.8253937    0.23472694665786
             0.6401217    0.81375731841339
 s    1 1.00
             0.1612778                   1

29 0
 s    3 1.00
             18.731137    0.03349459952309
             2.8253937    0.23472694665786
             0.6401217    0.81375731841339
 s    1 1.00
             0.1612778                   1

30 0
 s    3 1.00
             18.731137    0.03349459952309
             2.8253937    0.23472694665786
             0.6401217    0.81375731841339
 s    1 1.00
             0.1612778                   1

31 0
 s    3 1.00
             18.731137    0.03349459952309
             2.8253937    0.23472694665786
             0.6401217    0.81375731841339
 s    1 1.00
             0.1612778                   1

32 0
 s    3 1.00
             18.731137    0.03349459952309
             2.8253937    0.23472694665786
             0.6401217    0.81375731841339
 s    1 1.00
             0.1612778                   1

33 0
 s    6 1.00
             3047.5249  0.0018347001629433
             457.36951    0.01403730124668
             103.94869   0.068842606114048
             29.210155    0.23218442062076
              9.286663    0.46794134155879
              3.163927    0.36231203217765
 s    3 1.00
             7.8682724   -0.11933240861517
             1.8812885   -0.16085421161283
             0.5442493     1.1434564825515
 s    1 1.00
             0.1687144                   1
 p    3 1.00
             7.8682724   0.068999095584993
             1.8812885    0.31642397975315
             0.5442493    0.74430825237435
 p    1 1.00
             0.1687144                   1
 d    1 1.00
                   0.8                   1

34 0
 s    6 1.00
             3047.5249  0.0018347001629433
             457.36951    0.01403730124668
             103.94869   0.068842606114048
             29.210155    0.23218442062076
              9.286663    0.46794134155879
              3.163927    0.36231203217765
 s    3 1.00
             7.8682724   -0.11933240861517
             1.8812885   -0.16085421161283
             0.5442493     1.1434564825515
 s    1 1.00
             0.1687144                   1
 p    3 1.00
             7.8682724   0.068999095584993
             1.8812885    0.31642397975315
             0.5442493    0.74430825237435
 p    1 1.00
             0.1687144                   1
 d    1 1.00
                   0.8                   1

35 0
 s    3 1.00
             18.731137    0.03349459952309
             2.8253937    0.23472694665786
             0.6401217    0.81375731841339
 s    1 1.00
             0.1612778                   1

36 0
 s    6 1.00
             3047.5249  0.0018347001629433
             457.36951    0.01403730124668
             103.94869   0.068842606114048
             29.210155    0.23218442062076
              9.286663    0.46794134155879
              3.163927    0.36231203217765
 s    3 1.00
             7.8682724   -0.11933240861517
             1.8812885   -0.16085421161283
             0.5442493     1.1434564825515
 s    1 1.00
             0.1687144                   1
 p    3 1.00
             7.8682724   0.068999095584993
             1.8812885    0.31642397975315
             0.5442493    0.74430825237435
 p    1 1.00
             0.1687144                   1
 d    1 1.00
                   0.8                   1

37 0
 s    3 1.00
             18.731137    0.03349459952309
             2.8253937    0.23472694665786
             0.6401217    0.81375731841339
 s    1 1.00
             0.1612778                   1

38 0
 s    3 1.00
             18.731137    0.03349459952309
             2.8253937    0.23472694665786
             0.6401217    0.81375731841339
 s    1 1.00
             0.1612778                   1

39 0
 s    6 1.00
             3047.5249  0.0018347001629433
             457.36951    0.01403730124668
             103.94869   0.068842606114048
             29.210155    0.23218442062076
              9.286663    0.46794134155879
              3.163927    0.36231203217765
 s    3 1.00
             7.8682724   -0.11933240861517
             1.8812885   -0.16085421161283
             0.5442493     1.1434564825515
 s    1 1.00
             0.1687144                   1
 p    3 1.00
             7.8682724   0.068999095584993
             1.8812885    0.31642397975315
             0.5442493    0.74430825237435
 p    1 1.00
             0.1687144                   1
 d    1 1.00
                   0.8                   1

40 0
 s    6 1.00
             3047.5249  0.0018347001629433
             457.36951    0.01403730124668
             103.94869   0.068842606114048
             29.210155    0.23218442062076
              9.286663    0.46794134155879
              3.163927    0.36231203217765
 s    3 1.00
             7.8682724   -0.11933240861517
             1.8812885   -0.16085421161283
             0.5442493     1.1434564825515
 s    1 1.00
             0.1687144                   1
 p    3 1.00
             7.8682724   0.068999095584993
             1.8812885    0.31642397975315
             0.5442493    0.74430825237435
 p    1 1.00
             0.1687144                   1
 d    1 1.00
                   0.8                   1

41 0
 s    3 1.00
             18.731137    0.03349459952309
             2.8253937    0.23472694665786
             0.6401217    0.81375731841339
 s    1 1.00
             0.1612778                   1

42 0
 s    6 1.00
             5484.6717   0.001831099805527
             825.23495   0.013950098518422
             188.04696    0.06844509273075
               52.9645    0.23271427528445
              16.89757    0.47019295006289
             5.7996353    0.35852086192309
 s    3 1.00
             15.539616   -0.11077750382508
             3.5999336   -0.14802630511126
             1.0137618     1.1307670390447
 s    1 1.00
             0.2700058                   1
 p    3 1.00
             15.539616   0.070874299543311
             3.5999336    0.33975279781076
             1.0137618    0.72715859531445
 p    1 1.00
             0.2700058                   1
 d    1 1.00
                   0.8                   1

43 0
 s    3 1.00
             18.731137    0.03349459952309
             2.8253937    0.23472694665786
             0.6401217    0.81375731841339
 s    1 1.00
             0.1612778                   1

[5d]
[7f]
[9g]

[MO]
 Sym= A
 Ene=               0
 Spin= Alpha
 Occup=    1.00000
   1    -0.0030140098524334
   2     -0.29672305593647
   3     -0.19628352100873
   4     0.076422903838576
   5     0.048453831592744
   6     -0.14627224718339
   7    -0.010580403405585
   8    0.0069191610004772
   9    -0.048566758200956
  10    -0.0045440522948366
  11    0.0063424924482618
  12    0.0052798405606238
  13    -0.0077977945997123
  14    -0.0058341156432946
  15    -0.066113047562317
  16    0.0021206775546212
  17    0.0085861912211379
  18    -0.046165435562471
  19    -0.020848281483685
  20    0.0064705237334171
  21     0.011261478525103
  22     -0.05251266072277
  23     0.011571501744738
  24    0.0073821181906988
  25    -0.025392601245789
  26    -0.0064963673104496
  27    -0.0027990108255018
  28    0.0018232052900593
  29    -0.00092187263350507
  30    -1.1245065070844e-05
  31    -0.012856302742001
  32    8.654655113194e-05
  33    -0.00074046926600632
  34    -0.0011871346667847
  35    -0.017297191074627
  36    -0.0038491877580897
  37    -0.00038779420547807
  38    0.0082427387147856
  39    0.0060955811512385
  40    0.0038331672166367
  41    -0.0020032999217722
  42    0.00014177983551233
  43    0.00097748314751838
  44    -0.00011486588236205
  45    -0.00024644453795478
  46    0.00039120562714969
  47    -0.0015035478234276
  48    -0.0010366142157806
  49    0.00028275016333825
  50    -0.034199408666311
  51    -0.026308115792125
  52    -0.012206766547974
  53    -0.0020538269761158
  54     0.014903552069931
  55    -0.0080607953382973
  56    0.00029338706657802
  57    0.0061000037601896
  58    -0.00041600231407061
  59    0.00098127095511089
  60    0.0010727583822893
  61    0.00033007097185214
  62    7.5127752571739e-05
  63    -0.0091484991031102
  64    -0.001755727906086
  65    -4.1240351825872e-05
  66    -4.9142509859149e-05
  67    -1.9827824720962e-05
  68    -1.4193478858576e-05
  69    0.00040185290649382
  70    5.9712334264658e-05
  71    -1.162152090665e-05
  72    -3.4675875656098e-05
  73    -0.00019217041985076
  74    -0.00045216837586738
  75    -0.00020814968712975
  76    -2.729548074231e-05
  77    -1.6297115917647e-05
  78    1.1663327594625e-05
  79    6.8724385453463e-06
  80    -1.2757727126821e-05
  81    -1.3885801777354e-05
  82    -0.00038033324797653
  83    1.4714750504637e-05
  84    -0.0001375537532274
  85    -0.0011047718478096
  86    0.00010597903854301
  87    -0.00012673720358331
  88    0.00026614872564069
  89    0.00040474148571516
  90    0.00044781878793481
  91    0.00041934321461529
  92    1.2804580269929e-05
  93    -4.1948568602373e-05
  94    -7.7282942317116e-06
  95    -1.8319841674103e-06
  96    -7.7825359818672e-06
  97    -7.5626242754989e-05
  98    -0.00032538990863271
  99    0.00012109279663801
 100    0.00027195905999553
 101    -4.784364861533e-05
 102    -5.5971606961192e-06
 103    0.00082094824101253
 104    0.0003475824739838
 105    0.00029292082605316
 106    -0.00036025122323295
 107    -0.0024493410598493
 108    0.0011870318356253
 109    0.0031799706203167
 110    -3.7254683818349e-05
 111    -8.5591758711701e-05
 112    3.1233104250241e-05
 113    5.7050908435015e-05
 114    -3.7470154732712e-05
 115    -8.5054837271314e-05
 116    0.00017407283720531
 117    0.0023079730452909
 118    -0.00012083580599802
 119    0.00035315589172354
 120    -8.5031198515298e-06
 121    -0.00053876836442598
 122    0.00023889324624195
 123    0.0015786558892664
 124    -1.294467068494e-05
 125    -3.469109378645e-05
 126    6.2461723898423e-05
 127    -7.9355744829578e-06
 128    -2.8244823874923e-05
 129    1.0700403201777e-05
 130    -0.00076517974032353
 131     0.011428927571015
 132    0.0001972945713036
 133    0.00017339524284647
 134    0.00074535870442985
 135    -0.0015444823646549
 136    0.0012384488110795
 137    -0.012575685208143
 138    0.00040448317059585
 139    -9.1954009652495e-05
 140    -8.3240121565651e-05
 141    -3.8711836301811e-05
 142    -5.7855319306699e-05
 143    -9.9064051789469e-05
 144    8.7415173405406e-05
 145     0.002498349140469
 146    4.1520003835436e-05
 147    -0.00015624119734126
 148    -0.00053788986209356
 149    0.0028657173463011
 150    -0.0016235701365011
 151    0.0018757112746614
 152    -0.00010003608467154
 153    2.2734320610599e-05
 154    3.8586757818428e-05
 155    6.2152870758288e-05
 156    -5.9519457259841e-05
 157    -3.4524597528337e-05
 158    -0.00012279620296305
 159    0.0015915868592678
 160    -5.6786941802364e-05
 161    -1.8794439764912e-05
 162    -2.9933332148095e-06
 163    -0.00013081735829341
 164    -0.0008885524883057
 165    -0.00024894222077032
 166    -2.7205923226896e-05
 167    6.9100799203872e-06
 168    -2.9768770436703e-06
 169    -5.2125825110888e-05
 170    7.5162653218329e-06
 171    -1.3414653802199e-05
 172    0.00022871607739888
 173    -0.00027977040147991
 174    1.680876912404e-05
 175    -1.8179932951045e-05
 176    -0.00027041063052262
 177    -0.00036736218719647
 178    0.0007183543394682
 179    9.0248716218319e-05
 180    -5.0353737644895e-06
 181    -5.8620621804739e-05
 182    -2.09629759897e-05
 183    -3.2580204418093e-05
 184    8.1879811882086e-06
 185    2.3527668980031e-05
 186    -7.0180012311492e-05
 187    -0.0017226708860328
 188    3.4702562943747e-06
 189    5.7608167641509e-05
 190    0.0003354071633982
 191     0.001002977950592
 192    0.00038754595983065
 193    0.00053787326210148
 194    -1.6832216041707e-05
 195    -4.7415978143823e-05
 196    -2.1913007841731e-05
 197    7.3057633576461e-06
 198    -2.5460935031452e-05
 199    -8.2357085657316e-06
 200    -0.00033633344750129
 201    0.00014884563622623
 202    0.0005593660722296
 203    -0.00014792593088485
 204    -0.00061818358963429
 205    0.00011435500428675
 206    -3.3908450233326e-05
 207    -0.00012843175967104
 208    0.00092004017987133
 209    -8.2418086618438e-05
 210    -0.00024218299551959
 211    -3.0309450076192e-05
 212    7.9994778541922e-05
 213    -2.0498106680114e-05
 214    0.0001522553372712
 215    2.4457678431389e-05
 216    0.00061000114648063
 217    -3.9442533590084e-05
 218    -0.00036907289269229
 219    1.0594960136589e-05
 220    0.00042965932964333
 221    -0.0012528024296173
 222    0.0029052179750942
 223    -0.023132194994172
 224    0.0017462476685986
 225    0.00041181549178479
 226    -0.0031567931303828
 227    -0.016297257798411
 228    -0.002550635716063
 229    -0.0091450292260588
 230    -0.00024154347743517
 231    0.00015968902864916
 232    0.0001739673790127
 233    -0.00011352497934307
 234    -0.00014454477385958
 235    0.0081931416042418
 236      -0.0434147979801
 237    -0.019836167326609
 238    -0.0064833676897869
 239    -0.011060869283698
 240     0.048521537522774
 241    -0.0076555476096958
 242    -0.0074530199803723
 243     0.028840268620165
 244    -0.006532424468143
 245    -0.002427050778173
 246    0.0017647588770114
 247    -0.00096388410733222
 248    -0.00015283018388588
 249    -0.00078539318800965
 250    -0.0081852145176125
 251    -0.0015560150341211
 252     -0.29532317911427
 253     -0.18478037936673
 254    -0.079151362379375
 255    -0.049625015051189
 256      0.14867124879892
 257     0.012633604726097
 258    -0.0048436225024322
 259     0.045938837692787
 260    -0.0042815380526275
 261    0.0062245629387216
 262    0.0053113858218662
 263    -0.0074562690333985
 264    -0.0060628898264943
 265    -0.012085485321455
 266    -0.0018527375689989
 267    -0.064057356553457
 268    0.0039320247469037
 269    -0.0011351624662158
 270    -0.034857174463194
 271    -0.016417061183992
 272    0.0078435460384957
 273    0.0051190392687355
 274    -0.015112638856234
 275    0.0026050848286524
 276    -0.0045490484191022
 277    -0.00095704893575131
 278    -0.00040461429006355
 279    0.0010418406917053
 280    0.00098040802112512
 281    0.00026118810495435
 282    0.00012187510399709
 283    0.0016458463773149