[Molden Format]
made by pyscf v[2.0.1]
[Atoms] (AU)
C   1   6     0.69100024066471     0.64692934207205    -3.48223131169301
H   2   1     2.68052439830868     1.13355088658700    -3.25784032593313
C   3   6    -0.36286361513219     0.85440132524594    -5.97030179418974
H   4   1    -2.35448549047279     0.36322488579172    -6.17995817793143
C   5   6     0.93697958957450     1.61209284601821    -8.05828437677121
H   6   1     1.01317567978386     3.61775130597871    -8.51923024455703
C   7   6     2.23318006711868    -0.09916996805052    -9.71591146992396
H   8   1     2.14101227267567    -2.10272353634710    -9.22908458474476
H   9   1     1.55630230933075    -1.92953025305990    12.99630010416247
C   10   6     0.75233899775814    -2.21270439606481    11.10705728102219
H   11   1    -0.43433408177274    -3.90944857546550    11.22216085340412
C   12   6     2.86362581178706    -2.63237380607947     9.17926416456045
H   13   1     4.39038949912609    -1.24955421540245     9.49899813497433
H   14   1     3.74629220191363    -4.48798724300892     9.47414880959024
C   15   6     2.02478325613682    -2.42177285709634     6.44560829588644
C   16   6     3.88048732735477    -3.58795445234514     4.61402886975252
C   17   6    -0.18412382258602    -1.30464291234259     5.76021113872346
C   18   6    -2.10044360464350    -0.26837831858460     7.71610340967100
C   19   6    -3.08956938670431     2.35282328359417     6.88693925039594
C   20   6    -4.37372924086464    -2.09766595989678     7.93610724222001
C   21   6    -0.83850430601230     0.06372213486173    10.33002307638377
H   22   1     0.38411922151109     1.74281358582432    10.27380136542181
H   23   1    -2.30980003007874     0.45460143924521    11.73986301809809
H   24   1     4.58527064644668    -5.38706904487420     5.36778158031719
H   25   1     5.54944938085014    -2.37631462192748     4.35398898413318
H   26   1     3.06633019150423    -3.94118377050688     2.75255466040884
H   27   1    -4.17727778763735     2.26573369139522     5.12914900961283
H   28   1    -1.52662344944051     3.68001877445626     6.59540397144508
H   29   1    -4.32916174397830     3.13643051467482     8.35225460090378
H   30   1    -5.32329548508442    -2.36691813602939     6.11583672749896
H   31   1    -5.77989366602257    -1.33896741843465     9.25748940450990
H   32   1    -3.79310905208926    -3.96389819310853     8.61386170102686
C   33   6    -1.01100794811226    -1.06331657314144     3.11929490449947
C   34   6     0.37686231036534    -0.33275864505552     1.09165013605873
H   35   1    -3.01671213906703    -1.40297922279997     2.77827895090944
C   36   6    -0.64382707979370    -0.11591880174385    -1.42063131251064
H   37   1     2.35569259782137     0.17174499283897     1.33641070251401
H   38   1    -2.63317482980319    -0.60229203511219    -1.66119700387645
C   39   6     3.54725246111133     0.56802416581284   -11.81467283923754
C   40   6     4.80361465317200    -1.32115012773234   -13.38298311351627
H   41   1     3.71304591439982     2.53035338251259   -12.40589607739641
O   42   8     6.01278787963721    -0.85546385399510   -15.29134904549642
H   43   1     4.58468921437884    -3.30497271823068   -12.70718839688766
[GTO]
1 0
 s    6 1.00
             3047.5249  0.0018347001629433
             457.36951    0.01403730124668
             103.94869   0.068842606114048
             29.210155    0.23218442062076
              9.286663    0.46794134155879
              3.163927    0.36231203217765
 s    3 1.00
             7.8682724   -0.11933240861517
             1.8812885   -0.16085421161283
             0.5442493     1.1434564825515
 s    1 1.00
             0.1687144                   1
 p    3 1.00
             7.8682724   0.068999095584993
             1.8812885    0.31642397975315
             0.5442493    0.74430825237435
 p    1 1.00
             0.1687144                   1
 d    1 1.00
                   0.8                   1

2 0
 s    3 1.00
             18.731137    0.03349459952309
             2.8253937    0.23472694665786
             0.6401217    0.81375731841339
 s    1 1.00
             0.1612778                   1

3 0
 s    6 1.00
             3047.5249  0.0018347001629433
             457.36951    0.01403730124668
             103.94869   0.068842606114048
             29.210155    0.23218442062076
              9.286663    0.46794134155879
              3.163927    0.36231203217765
 s    3 1.00
             7.8682724   -0.11933240861517
             1.8812885   -0.16085421161283
             0.5442493     1.1434564825515
 s    1 1.00
             0.1687144                   1
 p    3 1.00
             7.8682724   0.068999095584993
             1.8812885    0.31642397975315
             0.5442493    0.74430825237435
 p    1 1.00
             0.1687144                   1
 d    1 1.00
                   0.8                   1

4 0
 s    3 1.00
             18.731137    0.03349459952309
             2.8253937    0.23472694665786
             0.6401217    0.81375731841339
 s    1 1.00
             0.1612778                   1

5 0
 s    6 1.00
             3047.5249  0.0018347001629433
             457.36951    0.01403730124668
             103.94869   0.068842606114048
             29.210155    0.23218442062076
              9.286663    0.46794134155879
              3.163927    0.36231203217765
 s    3 1.00
             7.8682724   -0.11933240861517
             1.8812885   -0.16085421161283
             0.5442493     1.1434564825515
 s    1 1.00
             0.1687144                   1
 p    3 1.00
             7.8682724   0.068999095584993
             1.8812885    0.31642397975315
             0.5442493    0.74430825237435
 p    1 1.00
             0.1687144                   1
 d    1 1.00
                   0.8                   1

6 0
 s    3 1.00
             18.731137    0.03349459952309
             2.8253937    0.23472694665786
             0.6401217    0.81375731841339
 s    1 1.00
             0.1612778                   1

7 0
 s    6 1.00
             3047.5249  0.0018347001629433
             457.36951    0.01403730124668
             103.94869   0.068842606114048
             29.210155    0.23218442062076
              9.286663    0.46794134155879
              3.163927    0.36231203217765
 s    3 1.00
             7.8682724   -0.11933240861517
             1.8812885   -0.16085421161283
             0.5442493     1.1434564825515
 s    1 1.00
             0.1687144                   1
 p    3 1.00
             7.8682724   0.068999095584993
             1.8812885    0.31642397975315
             0.5442493    0.74430825237435
 p    1 1.00
             0.1687144                   1
 d    1 1.00
                   0.8                   1

8 0
 s    3 1.00
             18.731137    0.03349459952309
             2.8253937    0.23472694665786
             0.6401217    0.81375731841339
 s    1 1.00
             0.1612778                   1

9 0
 s    3 1.00
             18.731137    0.03349459952309
             2.8253937    0.23472694665786
             0.6401217    0.81375731841339
 s    1 1.00
             0.1612778                   1

10 0
 s    6 1.00
             3047.5249  0.0018347001629433
             457.36951    0.01403730124668
             103.94869   0.068842606114048
             29.210155    0.23218442062076
              9.286663    0.46794134155879
              3.163927    0.36231203217765
 s    3 1.00
             7.8682724   -0.11933240861517
             1.8812885   -0.16085421161283
             0.5442493     1.1434564825515
 s    1 1.00
             0.1687144                   1
 p    3 1.00
             7.8682724   0.068999095584993
             1.8812885    0.31642397975315
             0.5442493    0.74430825237435
 p    1 1.00
             0.1687144                   1
 d    1 1.00
                   0.8                   1

11 0
 s    3 1.00
             18.731137    0.03349459952309
             2.8253937    0.23472694665786
             0.6401217    0.81375731841339
 s    1 1.00
             0.1612778                   1

12 0
 s    6 1.00
             3047.5249  0.0018347001629433
             457.36951    0.01403730124668
             103.94869   0.068842606114048
             29.210155    0.23218442062076
              9.286663    0.46794134155879
              3.163927    0.36231203217765
 s    3 1.00
             7.8682724   -0.11933240861517
             1.8812885   -0.16085421161283
             0.5442493     1.1434564825515
 s    1 1.00
             0.1687144                   1
 p    3 1.00
             7.8682724   0.068999095584993
             1.8812885    0.31642397975315
             0.5442493    0.74430825237435
 p    1 1.00
             0.1687144                   1
 d    1 1.00
                   0.8                   1

13 0
 s    3 1.00
             18.731137    0.03349459952309
             2.8253937    0.23472694665786
             0.6401217    0.81375731841339
 s    1 1.00
             0.1612778                   1

14 0
 s    3 1.00
             18.731137    0.03349459952309
             2.8253937    0.23472694665786
             0.6401217    0.81375731841339
 s    1 1.00
             0.1612778                   1

15 0
 s    6 1.00
             3047.5249  0.0018347001629433
             457.36951    0.01403730124668
             103.94869   0.068842606114048
             29.210155    0.23218442062076
              9.286663    0.46794134155879
              3.163927    0.36231203217765
 s    3 1.00
             7.8682724   -0.11933240861517
             1.8812885   -0.16085421161283
             0.5442493     1.1434564825515
 s    1 1.00
             0.1687144                   1
 p    3 1.00
             7.8682724   0.068999095584993
             1.8812885    0.31642397975315
             0.5442493    0.74430825237435
 p    1 1.00
             0.1687144                   1
 d    1 1.00
                   0.8                   1

16 0
 s    6 1.00
             3047.5249  0.0018347001629433
             457.36951    0.01403730124668
             103.94869   0.068842606114048
             29.210155    0.23218442062076
              9.286663    0.46794134155879
              3.163927    0.36231203217765
 s    3 1.00
             7.8682724   -0.11933240861517
             1.8812885   -0.16085421161283
             0.5442493     1.1434564825515
 s    1 1.00
             0.1687144                   1
 p    3 1.00
             7.8682724   0.068999095584993
             1.8812885    0.31642397975315
             0.5442493    0.74430825237435
 p    1 1.00
             0.1687144                   1
 d    1 1.00
                   0.8                   1

17 0
 s    6 1.00
             3047.5249  0.0018347001629433
             457.36951    0.01403730124668
             103.94869   0.068842606114048
             29.210155    0.23218442062076
              9.286663    0.46794134155879
              3.163927    0.36231203217765
 s    3 1.00
             7.8682724   -0.11933240861517
             1.8812885   -0.16085421161283
             0.5442493     1.1434564825515
 s    1 1.00
             0.1687144                   1
 p    3 1.00
             7.8682724   0.068999095584993
             1.8812885    0.31642397975315
             0.5442493    0.74430825237435
 p    1 1.00
             0.1687144                   1
 d    1 1.00
                   0.8                   1

18 0
 s    6 1.00
             3047.5249  0.0018347001629433
             457.36951    0.01403730124668
             103.94869   0.068842606114048
             29.210155    0.23218442062076
              9.286663    0.46794134155879
              3.163927    0.36231203217765
 s    3 1.00
             7.8682724   -0.11933240861517
             1.8812885   -0.16085421161283
             0.5442493     1.1434564825515
 s    1 1.00
             0.1687144                   1
 p    3 1.00
             7.8682724   0.068999095584993
             1.8812885    0.31642397975315
             0.5442493    0.74430825237435
 p    1 1.00
             0.1687144                   1
 d    1 1.00
                   0.8                   1

19 0
 s    6 1.00
             3047.5249  0.0018347001629433
             457.36951    0.01403730124668
             103.94869   0.068842606114048
             29.210155    0.23218442062076
              9.286663    0.46794134155879
              3.163927    0.36231203217765
 s    3 1.00
             7.8682724   -0.11933240861517
             1.8812885   -0.16085421161283
             0.5442493     1.1434564825515
 s    1 1.00
             0.1687144                   1
 p    3 1.00
             7.8682724   0.068999095584993
             1.8812885    0.31642397975315
             0.5442493    0.74430825237435
 p    1 1.00
             0.1687144                   1
 d    1 1.00
                   0.8                   1

20 0
 s    6 1.00
             3047.5249  0.0018347001629433
             457.36951    0.01403730124668
             103.94869   0.068842606114048
             29.210155    0.23218442062076
              9.286663    0.46794134155879
              3.163927    0.36231203217765
 s    3 1.00
             7.8682724   -0.11933240861517
             1.8812885   -0.16085421161283
             0.5442493     1.1434564825515
 s    1 1.00
             0.1687144                   1
 p    3 1.00
             7.8682724   0.068999095584993
             1.8812885    0.31642397975315
             0.5442493    0.74430825237435
 p    1 1.00
             0.1687144                   1
 d    1 1.00
                   0.8                   1

21 0
 s    6 1.00
             3047.5249  0.0018347001629433
             457.36951    0.01403730124668
             103.94869   0.068842606114048
             29.210155    0.23218442062076
              9.286663    0.46794134155879
              3.163927    0.36231203217765
 s    3 1.00
             7.8682724   -0.11933240861517
             1.8812885   -0.16085421161283
             0.5442493     1.1434564825515
 s    1 1.00
             0.1687144                   1
 p    3 1.00
             7.8682724   0.068999095584993
             1.8812885    0.31642397975315
             0.5442493    0.74430825237435
 p    1 1.00
             0.1687144                   1
 d    1 1.00
                   0.8                   1

22 0
 s    3 1.00
             18.731137    0.03349459952309
             2.8253937    0.23472694665786
             0.6401217    0.81375731841339
 s    1 1.00
             0.1612778                   1

23 0
 s    3 1.00
             18.731137    0.03349459952309
             2.8253937    0.23472694665786
             0.6401217    0.81375731841339
 s    1 1.00
             0.1612778                   1

24 0
 s    3 1.00
             18.731137    0.03349459952309
             2.8253937    0.23472694665786
             0.6401217    0.81375731841339
 s    1 1.00
             0.1612778                   1

25 0
 s    3 1.00
             18.731137    0.03349459952309
             2.8253937    0.23472694665786
             0.6401217    0.81375731841339
 s    1 1.00
             0.1612778                   1

26 0
 s    3 1.00
             18.731137    0.03349459952309
             2.8253937    0.23472694665786
             0.6401217    0.81375731841339
 s    1 1.00
             0.1612778                   1

27 0
 s    3 1.00
             18.731137    0.03349459952309
             2.8253937    0.23472694665786
             0.6401217    0.81375731841339
 s    1 1.00
             0.1612778                   1

28 0
 s    3 1.00
             18.731137    0.03349459952309
             2.8253937    0.23472694665786
             0.6401217    0.81375731841339
 s    1 1.00
             0.1612778                   1

29 0
 s    3 1.00
             18.731137    0.03349459952309
             2.8253937    0.23472694665786
             0.6401217    0.81375731841339
 s    1 1.00
             0.1612778                   1

30 0
 s    3 1.00
             18.731137    0.03349459952309
             2.8253937    0.23472694665786
             0.6401217    0.81375731841339
 s    1 1.00
             0.1612778                   1

31 0
 s    3 1.00
             18.731137    0.03349459952309
             2.8253937    0.23472694665786
             0.6401217    0.81375731841339
 s    1 1.00
             0.1612778                   1

32 0
 s    3 1.00
             18.731137    0.03349459952309
             2.8253937    0.23472694665786
             0.6401217    0.81375731841339
 s    1 1.00
             0.1612778                   1

33 0
 s    6 1.00
             3047.5249  0.0018347001629433
             457.36951    0.01403730124668
             103.94869   0.068842606114048
             29.210155    0.23218442062076
              9.286663    0.46794134155879
              3.163927    0.36231203217765
 s    3 1.00
             7.8682724   -0.11933240861517
             1.8812885   -0.16085421161283
             0.5442493     1.1434564825515
 s    1 1.00
             0.1687144                   1
 p    3 1.00
             7.8682724   0.068999095584993
             1.8812885    0.31642397975315
             0.5442493    0.74430825237435
 p    1 1.00
             0.1687144                   1
 d    1 1.00
                   0.8                   1

34 0
 s    6 1.00
             3047.5249  0.0018347001629433
             457.36951    0.01403730124668
             103.94869   0.068842606114048
             29.210155    0.23218442062076
              9.286663    0.46794134155879
              3.163927    0.36231203217765
 s    3 1.00
             7.8682724   -0.11933240861517
             1.8812885   -0.16085421161283
             0.5442493     1.1434564825515
 s    1 1.00
             0.1687144                   1
 p    3 1.00
             7.8682724   0.068999095584993
             1.8812885    0.31642397975315
             0.5442493    0.74430825237435
 p    1 1.00
             0.1687144                   1
 d    1 1.00
                   0.8                   1

35 0
 s    3 1.00
             18.731137    0.03349459952309
             2.8253937    0.23472694665786
             0.6401217    0.81375731841339
 s    1 1.00
             0.1612778                   1

36 0
 s    6 1.00
             3047.5249  0.0018347001629433
             457.36951    0.01403730124668
             103.94869   0.068842606114048
             29.210155    0.23218442062076
              9.286663    0.46794134155879
              3.163927    0.36231203217765
 s    3 1.00
             7.8682724   -0.11933240861517
             1.8812885   -0.16085421161283
             0.5442493     1.1434564825515
 s    1 1.00
             0.1687144                   1
 p    3 1.00
             7.8682724   0.068999095584993
             1.8812885    0.31642397975315
             0.5442493    0.74430825237435
 p    1 1.00
             0.1687144                   1
 d    1 1.00
                   0.8                   1

37 0
 s    3 1.00
             18.731137    0.03349459952309
             2.8253937    0.23472694665786
             0.6401217    0.81375731841339
 s    1 1.00
             0.1612778                   1

38 0
 s    3 1.00
             18.731137    0.03349459952309
             2.8253937    0.23472694665786
             0.6401217    0.81375731841339
 s    1 1.00
             0.1612778                   1

39 0
 s    6 1.00
             3047.5249  0.0018347001629433
             457.36951    0.01403730124668
             103.94869   0.068842606114048
             29.210155    0.23218442062076
              9.286663    0.46794134155879
              3.163927    0.36231203217765
 s    3 1.00
             7.8682724   -0.11933240861517
             1.8812885   -0.16085421161283
             0.5442493     1.1434564825515
 s    1 1.00
             0.1687144                   1
 p    3 1.00
             7.8682724   0.068999095584993
             1.8812885    0.31642397975315
             0.5442493    0.74430825237435
 p    1 1.00
             0.1687144                   1
 d    1 1.00
                   0.8                   1

40 0
 s    6 1.00
             3047.5249  0.0018347001629433
             457.36951    0.01403730124668
             103.94869   0.068842606114048
             29.210155    0.23218442062076
              9.286663    0.46794134155879
              3.163927    0.36231203217765
 s    3 1.00
             7.8682724   -0.11933240861517
             1.8812885   -0.16085421161283
             0.5442493     1.1434564825515
 s    1 1.00
             0.1687144                   1
 p    3 1.00
             7.8682724   0.068999095584993
             1.8812885    0.31642397975315
             0.5442493    0.74430825237435
 p    1 1.00
             0.1687144                   1
 d    1 1.00
                   0.8                   1

41 0
 s    3 1.00
             18.731137    0.03349459952309
             2.8253937    0.23472694665786
             0.6401217    0.81375731841339
 s    1 1.00
             0.1612778                   1

42 0
 s    6 1.00
             5484.6717   0.001831099805527
             825.23495   0.013950098518422
             188.04696    0.06844509273075
               52.9645    0.23271427528445
              16.89757    0.47019295006289
             5.7996353    0.35852086192309
 s    3 1.00
             15.539616   -0.11077750382508
             3.5999336   -0.14802630511126
             1.0137618     1.1307670390447
 s    1 1.00
             0.2700058                   1
 p    3 1.00
             15.539616   0.070874299543311
             3.5999336    0.33975279781076
             1.0137618    0.72715859531445
 p    1 1.00
             0.2700058                   1
 d    1 1.00
                   0.8                   1

43 0
 s    3 1.00
             18.731137    0.03349459952309
             2.8253937    0.23472694665786
             0.6401217    0.81375731841339
 s    1 1.00
             0.1612778                   1

[5d]
[7f]
[9g]

[MO]
 Sym= A
 Ene=               0
 Spin= Alpha
 Occup=    1.00000
   1    0.0030944435125626
   2      0.29838166868765
   3      0.19631445339927
   4    -0.075974538835117
   5    -0.050284045036484
   6      0.14682816402183
   7     0.011049642632774
   8    -0.0070272281331473
   9     0.048642632732427
  10    0.0047396159594157
  11    -0.0063686728872811
  12    -0.0054448766547201
  13    0.0075438408258013
  14    0.0063463995956352
  15     0.066479532228189
  16    -0.002235840036554
  17    -0.0087720386906941
  18     0.046602639580425
  19     0.021882260336511
  20    -0.0059655279848091
  21    -0.011924684774636
  22     0.052772273891474
  23    -0.011456811478539
  24    -0.0076671371876507
  25     0.025558140414426
  26    0.0063990102525314
  27    0.0028332163065078
  28    -0.001699531880139
  29    0.00085808969855491
  30    7.5033183271455e-05
  31     0.012894632558359
  32    -0.00012307762657859
  33    0.0011605045609928
  34    -0.0013016354510507
  35     0.017281668613631
  36    0.0016980515225253
  37    0.0011494200884867
  38    -0.006624675168976
  39    -0.0057874273029414
  40    -0.0055224740323163
  41     0.001228538086227
  42    2.583832251258e-05
  43    -0.00073048606044524
  44    0.00017699475743612
  45    -2.826288159916e-05
  46    -8.0762378425618e-05
  47    0.0012187239962585
  48    0.0027312923149495
  49    -0.00040953501681592
  50     0.019103368446998
  51     0.010921930502833
  52    0.0061800190098592
  53    0.00023047927901024
  54    -0.009241700478285
  55     0.005348757958631
  56    -0.0019414775809105
  57    -0.0055583140738044
  58    0.00010535458100048
  59    -0.00054469016946983
  60    -0.00049108283329224
  61    -0.0003517924602044
  62    0.00024087179528959
  63     0.005370195297448
  64    0.0015924746841928
  65    2.6362474424851e-05
  66    -2.7758631432207e-05
  67    9.8641118740856e-06
  68    5.0721991088612e-05
  69    -0.00040187465021378
  70    -6.0573431443903e-06
  71    -1.8195308486074e-05
  72    -7.0630232405329e-06
  73    0.00026326743447118
  74    0.00035066299553924
  75    0.00027321846063751
  76    2.7137120002232e-05
  77    1.1411612930702e-05
  78    -1.0142968903146e-05
  79    -8.4916126863929e-06
  80    9.5222921540493e-06
  81    7.8033683422691e-06
  82    0.0003162997376546
  83    -2.903999191512e-05
  84    0.00015492982840521
  85    0.0013029739228294
  86    -0.00019016649118259
  87    7.6078688750683e-05
  88    -0.00030904688803693
  89    -0.00045580552608386
  90    -0.00040684199577002
  91    -0.00054781725366583
  92    -3.3402390431238e-06
  93    2.3712499004725e-05
  94    -1.3886813953042e-05
  95    -6.6132252873294e-06
  96    -9.8678593820535e-06
  97    -7.0517951529638e-05
  98    3.7842938470368e-05
  99    -5.4311878113181e-05
 100    -0.00012753446941631
 101    8.9912643055757e-05
 102    -7.8016833333784e-05
 103    -0.0011297006184938
 104    7.7914161199408e-05
 105    0.00023724402475068
 106    0.0003851459379516
 107    0.0026663867203163
 108    -0.00064465467467085
 109     -0.00324734075656
 110    3.9555569141829e-05
 111    9.1901492652235e-05
 112    -3.4032564435526e-05
 113    -6.4970593528408e-05
 114    2.9137440337723e-05
 115    9.6965546050171e-05
 116    -0.00022040962093726
 117    -0.0023265415272743
 118    0.00012915165942238
 119    -0.00040583906372137
 120    7.4417386646436e-05
 121    0.00048588109433662
 122    -0.00016846417340879
 123    -0.0014514325910735
 124    1.506455466809e-05
 125    5.0030438224533e-05
 126    -5.2830176031839e-05
 127    -1.2282903416057e-05
 128    8.9773409326828e-06
 129    -1.3875193318151e-05
 130    0.00078226433622414
 131    -0.011415879091891
 132    -0.00023132619430721
 133    -7.4338568978202e-05
 134    -0.00074257201530682
 135    0.0015100224890185
 136    -0.0011744464041738
 137     0.012523714367611
 138    -0.00038776769130778
 139    7.6847930091042e-05
 140    0.00014420270755686
 141    6.3307048980022e-05
 142    9.3196747907045e-05
 143    6.145053057984e-05
 144    -1.1156748342154e-05
 145    -0.0022749021724581
 146    6.7387774894996e-05
 147    0.00012473707831067
 148    0.00036568732609822
 149    -0.0027392603787955
 150    0.0017311680712653
 151    -0.0020243869193595
 152    9.2390184335082e-05
 153    -2.8038913737695e-05
 154    -3.9064058513626e-05
 155    -5.896488329148e-05
 156    5.8132639687957e-05
 157    1.3711975161714e-05
 158    0.00018269566341848
 159    -0.0015602827052526
 160    3.5689032643773e-05
 161    1.1295918695235e-05
 162    -9.7782077990807e-05
 163    9.1578398396485e-06
 164    0.00097957984460941
 165    0.00021877552418829
 166    2.0640543032165e-05
 167    2.7993604383542e-06
 168    -5.7341804121711e-07
 169    5.4321430117219e-05
 170    -7.4255792026684e-06
 171    1.2269400771371e-05
 172    -0.00023608698166918
 173    0.00037591614731451
 174    -1.9940236350989e-05
 175    6.7854276368721e-06
 176    0.00029691110825926
 177    0.00040406954775309
 178    -0.00074551290248069
 179    -7.5794968280341e-05
 180    3.7172418115286e-06
 181    5.176588892287e-05
 182    1.9025491467673e-05
 183    3.4843058191685e-05
 184    -8.1737944212189e-06
 185    -1.3920381173743e-05
 186    3.4402059476339e-05
 187    0.0017441018481419
 188    1.3025736880983e-06
 189    -5.1548387462578e-05
 190    -0.00025350944804613
 191    -0.00092811872430428
 192    -0.00045942475896577
 193    -0.00050132375948568
 194    2.1293692598046e-05
 195    3.8540334787611e-05
 196    2.5749200305698e-05
 197    -5.9923129744239e-06
 198    2.1879627572445e-05
 199    -1.5811049014866e-05
 200    0.00031455561428674
 201    -9.0313408344367e-05
 202    -0.00042088790940903
 203    0.0002466264624675
 204    0.00083913798075717
 205    -0.00023434020973883
 206    -0.00018010697705327
 207    0.00014677655705907
 208    -0.00074035212593772
 209    0.00013150787106586
 210    0.00021714607754674
 211    4.3758982653137e-05
 212    -9.8949131389653e-05
 213    -1.8671503998335e-05
 214    -0.00026997874653141
 215    -5.2545970978087e-05
 216    -0.00064772404315065
 217    6.4316377912843e-05
 218    0.00042216369801789
 219    -9.8918744884086e-06
 220    -0.00048062398839896
 221    0.0012761234166571
 222    -0.0029557841317126
 223     0.022909075098302
 224    -0.0014891693875642
 225    -0.0016847680749269
 226     0.002981911129097
 227     0.016505833378968
 228     0.001354304446102
 229    0.0088831019868935
 230    0.00024815798708146
 231    -0.00016480872820094
 232    -0.00017143360324719
 233    0.00012033440051626
 234    0.00013876682380432
 235    -0.0082469303907078
 236     0.043706064362724
 237     0.019766233451441
 238    0.0064539363021694
 239     0.011352219478117
 240    -0.048778529144176
 241    0.0075974312347951
 242    0.0077192410103987
 243    -0.028613271098455
 244    0.0064759063983136
 245    0.0024767580382469
 246     -0.00187683040206
 247    0.00095338534404293
 248    0.00012378297996424
 249    0.00076343203225522
 250    0.0082245932472761
 251     0.001538048994353
 252      0.29709881189848
 253      0.18569716150289
 254     0.079241715279792
 255     0.051469360111448
 256     -0.14929696345531
 257    -0.012815400345543
 258    0.0064844554892425
 259    -0.045391492570734
 260    0.0044936796888766
 261    -0.0065190578528768
 262    -0.005043935748156
 263    0.0077179767302353
 264     0.005927587770117
 265     0.012208329578971
 266    0.0019181206976278
 267     0.064374143711407
 268    -0.0037164295785407
 269    0.0011284802710322
 270     0.020569832255675
 271    0.0094424854411698
 272    -0.004358002407975
 273    -0.0039015571961839
 274    0.0072012339686241
 275    -0.0013364176269084
 276    0.0034288436314821
 277    0.0012810712464992
 278    0.00021192573924379
 279    -0.00068251081438636
 280    -0.00038191928178079
 281    -0.00034000586466608
 282    0.00012986946738487
 283    -0.0011647615022361
 284      0.00543544402477