[Molden Format]
made by pyscf v[2.0.1]
[Atoms] (AU)
C   1   6     0.69100024066471     0.64692934207205    -3.48223131169301
H   2   1     2.68052439830868     1.13355088658700    -3.25784032593313
C   3   6    -0.36286361513219     0.85440132524594    -5.97030179418974
H   4   1    -2.35448549047279     0.36322488579172    -6.17995817793143
C   5   6     0.93697958957450     1.61209284601821    -8.05828437677121
H   6   1     2.28684852848462     3.15852966115860    -7.89296704602693
C   7   6     0.63106041134958     0.47904579632082   -10.50346361691732
H   8   1    -0.72718870892227    -1.06897620367389   -10.63951300078030
H   9   1     1.55630230933075    -1.92953025305990    12.99630010416247
C   10   6     0.75233899775814    -2.21270439606481    11.10705728102219
H   11   1    -0.43433408177274    -3.90944857546550    11.22216085340412
C   12   6     2.86362581178706    -2.63237380607947     9.17926416456045
H   13   1     4.39038949912609    -1.24955421540245     9.49899813497433
H   14   1     3.74629220191363    -4.48798724300892     9.47414880959024
C   15   6     2.02478325613682    -2.42177285709634     6.44560829588644
C   16   6     3.88048732735477    -3.58795445234514     4.61402886975252
C   17   6    -0.18412382258602    -1.30464291234259     5.76021113872346
C   18   6    -2.10044360464350    -0.26837831858460     7.71610340967100
C   19   6    -3.08956938670431     2.35282328359417     6.88693925039594
C   20   6    -4.37372924086464    -2.09766595989678     7.93610724222001
C   21   6    -0.83850430601230     0.06372213486173    10.33002307638377
H   22   1     0.38411922151109     1.74281358582432    10.27380136542181
H   23   1    -2.30980003007874     0.45460143924521    11.73986301809809
H   24   1     4.58527064644668    -5.38706904487420     5.36778158031719
H   25   1     5.54944938085014    -2.37631462192748     4.35398898413318
H   26   1     3.06633019150423    -3.94118377050688     2.75255466040884
H   27   1    -4.17727778763735     2.26573369139522     5.12914900961283
H   28   1    -1.52662344944051     3.68001877445626     6.59540397144508
H   29   1    -4.32916174397830     3.13643051467482     8.35225460090378
H   30   1    -5.32329548508442    -2.36691813602939     6.11583672749896
H   31   1    -5.77989366602257    -1.33896741843465     9.25748940450990
H   32   1    -3.79310905208926    -3.96389819310853     8.61386170102686
C   33   6    -1.01100794811226    -1.06331657314144     3.11929490449947
C   34   6     0.37686231036534    -0.33275864505552     1.09165013605873
H   35   1    -3.01671213906703    -1.40297922279997     2.77827895090944
C   36   6    -0.64382707979370    -0.11591880174385    -1.42063131251064
H   37   1     2.35569259782137     0.17174499283897     1.33641070251401
H   38   1    -2.63317482980319    -0.60229203511219    -1.66119700387645
C   39   6     1.88057107480096     1.17167710004378   -12.63318625924474
C   40   6     1.43424299107759    -0.10242214041261   -15.03828188134704
H   41   1     3.25774949416826     2.69847908646217   -12.62832443574420
O   42   8     2.48751113017790     0.42264932688836   -17.02215443525925
H   43   1     0.01015752982003    -1.65333508727432   -14.95564685399208
[GTO]
1 0
 s    6 1.00
             3047.5249  0.0018347001629433
             457.36951    0.01403730124668
             103.94869   0.068842606114048
             29.210155    0.23218442062076
              9.286663    0.46794134155879
              3.163927    0.36231203217765
 s    3 1.00
             7.8682724   -0.11933240861517
             1.8812885   -0.16085421161283
             0.5442493     1.1434564825515
 s    1 1.00
             0.1687144                   1
 p    3 1.00
             7.8682724   0.068999095584993
             1.8812885    0.31642397975315
             0.5442493    0.74430825237435
 p    1 1.00
             0.1687144                   1
 d    1 1.00
                   0.8                   1

2 0
 s    3 1.00
             18.731137    0.03349459952309
             2.8253937    0.23472694665786
             0.6401217    0.81375731841339
 s    1 1.00
             0.1612778                   1

3 0
 s    6 1.00
             3047.5249  0.0018347001629433
             457.36951    0.01403730124668
             103.94869   0.068842606114048
             29.210155    0.23218442062076
              9.286663    0.46794134155879
              3.163927    0.36231203217765
 s    3 1.00
             7.8682724   -0.11933240861517
             1.8812885   -0.16085421161283
             0.5442493     1.1434564825515
 s    1 1.00
             0.1687144                   1
 p    3 1.00
             7.8682724   0.068999095584993
             1.8812885    0.31642397975315
             0.5442493    0.74430825237435
 p    1 1.00
             0.1687144                   1
 d    1 1.00
                   0.8                   1

4 0
 s    3 1.00
             18.731137    0.03349459952309
             2.8253937    0.23472694665786
             0.6401217    0.81375731841339
 s    1 1.00
             0.1612778                   1

5 0
 s    6 1.00
             3047.5249  0.0018347001629433
             457.36951    0.01403730124668
             103.94869   0.068842606114048
             29.210155    0.23218442062076
              9.286663    0.46794134155879
              3.163927    0.36231203217765
 s    3 1.00
             7.8682724   -0.11933240861517
             1.8812885   -0.16085421161283
             0.5442493     1.1434564825515
 s    1 1.00
             0.1687144                   1
 p    3 1.00
             7.8682724   0.068999095584993
             1.8812885    0.31642397975315
             0.5442493    0.74430825237435
 p    1 1.00
             0.1687144                   1
 d    1 1.00
                   0.8                   1

6 0
 s    3 1.00
             18.731137    0.03349459952309
             2.8253937    0.23472694665786
             0.6401217    0.81375731841339
 s    1 1.00
             0.1612778                   1

7 0
 s    6 1.00
             3047.5249  0.0018347001629433
             457.36951    0.01403730124668
             103.94869   0.068842606114048
             29.210155    0.23218442062076
              9.286663    0.46794134155879
              3.163927    0.36231203217765
 s    3 1.00
             7.8682724   -0.11933240861517
             1.8812885   -0.16085421161283
             0.5442493     1.1434564825515
 s    1 1.00
             0.1687144                   1
 p    3 1.00
             7.8682724   0.068999095584993
             1.8812885    0.31642397975315
             0.5442493    0.74430825237435
 p    1 1.00
             0.1687144                   1
 d    1 1.00
                   0.8                   1

8 0
 s    3 1.00
             18.731137    0.03349459952309
             2.8253937    0.23472694665786
             0.6401217    0.81375731841339
 s    1 1.00
             0.1612778                   1

9 0
 s    3 1.00
             18.731137    0.03349459952309
             2.8253937    0.23472694665786
             0.6401217    0.81375731841339
 s    1 1.00
             0.1612778                   1

10 0
 s    6 1.00
             3047.5249  0.0018347001629433
             457.36951    0.01403730124668
             103.94869   0.068842606114048
             29.210155    0.23218442062076
              9.286663    0.46794134155879
              3.163927    0.36231203217765
 s    3 1.00
             7.8682724   -0.11933240861517
             1.8812885   -0.16085421161283
             0.5442493     1.1434564825515
 s    1 1.00
             0.1687144                   1
 p    3 1.00
             7.8682724   0.068999095584993
             1.8812885    0.31642397975315
             0.5442493    0.74430825237435
 p    1 1.00
             0.1687144                   1
 d    1 1.00
                   0.8                   1

11 0
 s    3 1.00
             18.731137    0.03349459952309
             2.8253937    0.23472694665786
             0.6401217    0.81375731841339
 s    1 1.00
             0.1612778                   1

12 0
 s    6 1.00
             3047.5249  0.0018347001629433
             457.36951    0.01403730124668
             103.94869   0.068842606114048
             29.210155    0.23218442062076
              9.286663    0.46794134155879
              3.163927    0.36231203217765
 s    3 1.00
             7.8682724   -0.11933240861517
             1.8812885   -0.16085421161283
             0.5442493     1.1434564825515
 s    1 1.00
             0.1687144                   1
 p    3 1.00
             7.8682724   0.068999095584993
             1.8812885    0.31642397975315
             0.5442493    0.74430825237435
 p    1 1.00
             0.1687144                   1
 d    1 1.00
                   0.8                   1

13 0
 s    3 1.00
             18.731137    0.03349459952309
             2.8253937    0.23472694665786
             0.6401217    0.81375731841339
 s    1 1.00
             0.1612778                   1

14 0
 s    3 1.00
             18.731137    0.03349459952309
             2.8253937    0.23472694665786
             0.6401217    0.81375731841339
 s    1 1.00
             0.1612778                   1

15 0
 s    6 1.00
             3047.5249  0.0018347001629433
             457.36951    0.01403730124668
             103.94869   0.068842606114048
             29.210155    0.23218442062076
              9.286663    0.46794134155879
              3.163927    0.36231203217765
 s    3 1.00
             7.8682724   -0.11933240861517
             1.8812885   -0.16085421161283
             0.5442493     1.1434564825515
 s    1 1.00
             0.1687144                   1
 p    3 1.00
             7.8682724   0.068999095584993
             1.8812885    0.31642397975315
             0.5442493    0.74430825237435
 p    1 1.00
             0.1687144                   1
 d    1 1.00
                   0.8                   1

16 0
 s    6 1.00
             3047.5249  0.0018347001629433
             457.36951    0.01403730124668
             103.94869   0.068842606114048
             29.210155    0.23218442062076
              9.286663    0.46794134155879
              3.163927    0.36231203217765
 s    3 1.00
             7.8682724   -0.11933240861517
             1.8812885   -0.16085421161283
             0.5442493     1.1434564825515
 s    1 1.00
             0.1687144                   1
 p    3 1.00
             7.8682724   0.068999095584993
             1.8812885    0.31642397975315
             0.5442493    0.74430825237435
 p    1 1.00
             0.1687144                   1
 d    1 1.00
                   0.8                   1

17 0
 s    6 1.00
             3047.5249  0.0018347001629433
             457.36951    0.01403730124668
             103.94869   0.068842606114048
             29.210155    0.23218442062076
              9.286663    0.46794134155879
              3.163927    0.36231203217765
 s    3 1.00
             7.8682724   -0.11933240861517
             1.8812885   -0.16085421161283
             0.5442493     1.1434564825515
 s    1 1.00
             0.1687144                   1
 p    3 1.00
             7.8682724   0.068999095584993
             1.8812885    0.31642397975315
             0.5442493    0.74430825237435
 p    1 1.00
             0.1687144                   1
 d    1 1.00
                   0.8                   1

18 0
 s    6 1.00
             3047.5249  0.0018347001629433
             457.36951    0.01403730124668
             103.94869   0.068842606114048
             29.210155    0.23218442062076
              9.286663    0.46794134155879
              3.163927    0.36231203217765
 s    3 1.00
             7.8682724   -0.11933240861517
             1.8812885   -0.16085421161283
             0.5442493     1.1434564825515
 s    1 1.00
             0.1687144                   1
 p    3 1.00
             7.8682724   0.068999095584993
             1.8812885    0.31642397975315
             0.5442493    0.74430825237435
 p    1 1.00
             0.1687144                   1
 d    1 1.00
                   0.8                   1

19 0
 s    6 1.00
             3047.5249  0.0018347001629433
             457.36951    0.01403730124668
             103.94869   0.068842606114048
             29.210155    0.23218442062076
              9.286663    0.46794134155879
              3.163927    0.36231203217765
 s    3 1.00
             7.8682724   -0.11933240861517
             1.8812885   -0.16085421161283
             0.5442493     1.1434564825515
 s    1 1.00
             0.1687144                   1
 p    3 1.00
             7.8682724   0.068999095584993
             1.8812885    0.31642397975315
             0.5442493    0.74430825237435
 p    1 1.00
             0.1687144                   1
 d    1 1.00
                   0.8                   1

20 0
 s    6 1.00
             3047.5249  0.0018347001629433
             457.36951    0.01403730124668
             103.94869   0.068842606114048
             29.210155    0.23218442062076
              9.286663    0.46794134155879
              3.163927    0.36231203217765
 s    3 1.00
             7.8682724   -0.11933240861517
             1.8812885   -0.16085421161283
             0.5442493     1.1434564825515
 s    1 1.00
             0.1687144                   1
 p    3 1.00
             7.8682724   0.068999095584993
             1.8812885    0.31642397975315
             0.5442493    0.74430825237435
 p    1 1.00
             0.1687144                   1
 d    1 1.00
                   0.8                   1

21 0
 s    6 1.00
             3047.5249  0.0018347001629433
             457.36951    0.01403730124668
             103.94869   0.068842606114048
             29.210155    0.23218442062076
              9.286663    0.46794134155879
              3.163927    0.36231203217765
 s    3 1.00
             7.8682724   -0.11933240861517
             1.8812885   -0.16085421161283
             0.5442493     1.1434564825515
 s    1 1.00
             0.1687144                   1
 p    3 1.00
             7.8682724   0.068999095584993
             1.8812885    0.31642397975315
             0.5442493    0.74430825237435
 p    1 1.00
             0.1687144                   1
 d    1 1.00
                   0.8                   1

22 0
 s    3 1.00
             18.731137    0.03349459952309
             2.8253937    0.23472694665786
             0.6401217    0.81375731841339
 s    1 1.00
             0.1612778                   1

23 0
 s    3 1.00
             18.731137    0.03349459952309
             2.8253937    0.23472694665786
             0.6401217    0.81375731841339
 s    1 1.00
             0.1612778                   1

24 0
 s    3 1.00
             18.731137    0.03349459952309
             2.8253937    0.23472694665786
             0.6401217    0.81375731841339
 s    1 1.00
             0.1612778                   1

25 0
 s    3 1.00
             18.731137    0.03349459952309
             2.8253937    0.23472694665786
             0.6401217    0.81375731841339
 s    1 1.00
             0.1612778                   1

26 0
 s    3 1.00
             18.731137    0.03349459952309
             2.8253937    0.23472694665786
             0.6401217    0.81375731841339
 s    1 1.00
             0.1612778                   1

27 0
 s    3 1.00
             18.731137    0.03349459952309
             2.8253937    0.23472694665786
             0.6401217    0.81375731841339
 s    1 1.00
             0.1612778                   1

28 0
 s    3 1.00
             18.731137    0.03349459952309
             2.8253937    0.23472694665786
             0.6401217    0.81375731841339
 s    1 1.00
             0.1612778                   1

29 0
 s    3 1.00
             18.731137    0.03349459952309
             2.8253937    0.23472694665786
             0.6401217    0.81375731841339
 s    1 1.00
             0.1612778                   1

30 0
 s    3 1.00
             18.731137    0.03349459952309
             2.8253937    0.23472694665786
             0.6401217    0.81375731841339
 s    1 1.00
             0.1612778                   1

31 0
 s    3 1.00
             18.731137    0.03349459952309
             2.8253937    0.23472694665786
             0.6401217    0.81375731841339
 s    1 1.00
             0.1612778                   1

32 0
 s    3 1.00
             18.731137    0.03349459952309
             2.8253937    0.23472694665786
             0.6401217    0.81375731841339
 s    1 1.00
             0.1612778                   1

33 0
 s    6 1.00
             3047.5249  0.0018347001629433
             457.36951    0.01403730124668
             103.94869   0.068842606114048
             29.210155    0.23218442062076
              9.286663    0.46794134155879
              3.163927    0.36231203217765
 s    3 1.00
             7.8682724   -0.11933240861517
             1.8812885   -0.16085421161283
             0.5442493     1.1434564825515
 s    1 1.00
             0.1687144                   1
 p    3 1.00
             7.8682724   0.068999095584993
             1.8812885    0.31642397975315
             0.5442493    0.74430825237435
 p    1 1.00
             0.1687144                   1
 d    1 1.00
                   0.8                   1

34 0
 s    6 1.00
             3047.5249  0.0018347001629433
             457.36951    0.01403730124668
             103.94869   0.068842606114048
             29.210155    0.23218442062076
              9.286663    0.46794134155879
              3.163927    0.36231203217765
 s    3 1.00
             7.8682724   -0.11933240861517
             1.8812885   -0.16085421161283
             0.5442493     1.1434564825515
 s    1 1.00
             0.1687144                   1
 p    3 1.00
             7.8682724   0.068999095584993
             1.8812885    0.31642397975315
             0.5442493    0.74430825237435
 p    1 1.00
             0.1687144                   1
 d    1 1.00
                   0.8                   1

35 0
 s    3 1.00
             18.731137    0.03349459952309
             2.8253937    0.23472694665786
             0.6401217    0.81375731841339
 s    1 1.00
             0.1612778                   1

36 0
 s    6 1.00
             3047.5249  0.0018347001629433
             457.36951    0.01403730124668
             103.94869   0.068842606114048
             29.210155    0.23218442062076
              9.286663    0.46794134155879
              3.163927    0.36231203217765
 s    3 1.00
             7.8682724   -0.11933240861517
             1.8812885   -0.16085421161283
             0.5442493     1.1434564825515
 s    1 1.00
             0.1687144                   1
 p    3 1.00
             7.8682724   0.068999095584993
             1.8812885    0.31642397975315
             0.5442493    0.74430825237435
 p    1 1.00
             0.1687144                   1
 d    1 1.00
                   0.8                   1

37 0
 s    3 1.00
             18.731137    0.03349459952309
             2.8253937    0.23472694665786
             0.6401217    0.81375731841339
 s    1 1.00
             0.1612778                   1

38 0
 s    3 1.00
             18.731137    0.03349459952309
             2.8253937    0.23472694665786
             0.6401217    0.81375731841339
 s    1 1.00
             0.1612778                   1

39 0
 s    6 1.00
             3047.5249  0.0018347001629433
             457.36951    0.01403730124668
             103.94869   0.068842606114048
             29.210155    0.23218442062076
              9.286663    0.46794134155879
              3.163927    0.36231203217765
 s    3 1.00
             7.8682724   -0.11933240861517
             1.8812885   -0.16085421161283
             0.5442493     1.1434564825515
 s    1 1.00
             0.1687144                   1
 p    3 1.00
             7.8682724   0.068999095584993
             1.8812885    0.31642397975315
             0.5442493    0.74430825237435
 p    1 1.00
             0.1687144                   1
 d    1 1.00
                   0.8                   1

40 0
 s    6 1.00
             3047.5249  0.0018347001629433
             457.36951    0.01403730124668
             103.94869   0.068842606114048
             29.210155    0.23218442062076
              9.286663    0.46794134155879
              3.163927    0.36231203217765
 s    3 1.00
             7.8682724   -0.11933240861517
             1.8812885   -0.16085421161283
             0.5442493     1.1434564825515
 s    1 1.00
             0.1687144                   1
 p    3 1.00
             7.8682724   0.068999095584993
             1.8812885    0.31642397975315
             0.5442493    0.74430825237435
 p    1 1.00
             0.1687144                   1
 d    1 1.00
                   0.8                   1

41 0
 s    3 1.00
             18.731137    0.03349459952309
             2.8253937    0.23472694665786
             0.6401217    0.81375731841339
 s    1 1.00
             0.1612778                   1

42 0
 s    6 1.00
             5484.6717   0.001831099805527
             825.23495   0.013950098518422
             188.04696    0.06844509273075
               52.9645    0.23271427528445
              16.89757    0.47019295006289
             5.7996353    0.35852086192309
 s    3 1.00
             15.539616   -0.11077750382508
             3.5999336   -0.14802630511126
             1.0137618     1.1307670390447
 s    1 1.00
             0.2700058                   1
 p    3 1.00
             15.539616   0.070874299543311
             3.5999336    0.33975279781076
             1.0137618    0.72715859531445
 p    1 1.00
             0.2700058                   1
 d    1 1.00
                   0.8                   1

43 0
 s    3 1.00
             18.731137    0.03349459952309
             2.8253937    0.23472694665786
             0.6401217    0.81375731841339
 s    1 1.00
             0.1612778                   1

[5d]
[7f]
[9g]

[MO]
 Sym= A
 Ene=               0
 Spin= Alpha
 Occup=    1.00000
   1    0.0025076424083166
   2      0.25240600196642
   3      0.15681290384654
   4     -0.06636044607915
   5     -0.04239833481288
   6      0.12428646751605
   7     0.011713359311812
   8    -0.0058759682503485
   9     0.042864401588023
  10    0.0035183823654489
  11    -0.0052100181010336
  12    -0.0042895980476241
  13    0.0064617036920064
  14    0.0052663930985289
  15     0.055498483425714
  16    -0.0023355639406505
  17    -0.0066739876353364
  18     0.038116346731542
  19     0.027327993996864
  20    -0.0059498367328786
  21    -0.010087933703011
  22     0.045874348107885
  23    -0.0029395716148631
  24    -0.0030832132037838
  25     0.026012935982218
  26    0.0057012685213492
  27    0.0022562817347141
  28    -0.0017282052544037
  29    0.00083455031969368
  30    0.00027421952073108
  31     0.011221615837704
  32    0.0034663732474966
  33    -0.0032432000490396
  34     0.020843004946187
  35      0.02663477336687
  36    0.0073243747731996
  37    -8.088085686189e-05
  38     -0.02955241470247
  39    -0.0029910417567406
  40    -0.0036810228946816
  41    -0.016566668532721
  42    0.0035440029405794
  43    -0.00049658081018234
  44    0.0020237176036927
  45    -0.00018057332788963
  46    0.00055169306993875
  47    0.0066550449083094
  48    0.0046844748592343
  49    0.00093168128639671
  50      0.16064506510166
  51     0.092555648309037
  52     0.042676939970674
  53     0.020405775382035
  54    -0.081857033955875
  55    -0.00042278703840382
  56    -0.010410599093768
  57    -0.027369826242181
  58    0.0023203358849324
  59    -0.0039940635140746
  60    -0.0013977938447279
  61    0.00046281297928207
  62    0.0049005842027479
  63      0.03472204416076
  64    -0.0013960684680711
  65    2.7279159145736e-05
  66    6.5933242065496e-07
  67    1.2829454717896e-05
  68    2.678106993945e-05
  69    -0.0003113476707009
  70    -2.667334467794e-05
  71    -6.326950207832e-06
  72    1.1094469135846e-05
  73    0.00018724269338346
  74    0.00032569845200039
  75    0.00020421895285426
  76    2.1955419834197e-05
  77    1.0542484377036e-05
  78    -8.7346237208175e-06
  79    -6.5778431404316e-06
  80    8.7290683796548e-06
  81    9.8707558027331e-06
  82    0.00028355647236793
  83    -2.1065963846416e-05
  84    0.00012144571945068
  85    0.0009195138580691
  86    -0.00012065901468603
  87    8.3594203039684e-05
  88    -0.0002418647513569
  89    -0.00033130480622975
  90    -0.00034688200501229
  91    -0.00038326202462002
  92    -5.599330540283e-06
  93    2.4517630599665e-05
  94    -2.8812680810746e-06
  95    -2.12857464172e-06
  96    -1.3927049432106e-06
  97    -2.9781611366504e-07
  98    0.00013431016716423
  99    -6.9201468936794e-05
 100    -0.00016312255135503
 101    6.4467821343228e-05
 102    -4.033339603572e-05
 103    -0.00095555978228654
 104    -7.7186732317525e-05
 105    -2.1811764283166e-05
 106    0.00031146472372563
 107    0.0020151311893886
 108    -0.00069111196657314
 109    -0.0023676443668998
 110    2.8505896849318e-05
 111    6.9847943989233e-05
 112    -2.3494835418644e-05
 113    -4.7849070840696e-05
 114    2.8267938220006e-05
 115    6.3208489566022e-05
 116    -0.0001732139881281
 117    -0.001629944568977
 118    9.4272869878596e-05
 119    -0.00029900568382195
 120    1.4429203405192e-05
 121    0.0003302809547743
 122    -6.8583622778382e-05
 123    -0.0012306732146712
 124    1.1421743331555e-05
 125    3.3835683012602e-05
 126    -4.1249656210289e-05
 127    1.5853259087164e-06
 128    1.5512464107107e-05
 129    -1.5596175808018e-05
 130    0.00058235834522854
 131    -0.0092688628274504
 132    -0.00018331124161598
 133    -0.00011956872820105
 134    -0.00060694790382006
 135    0.0013660670081028
 136    -0.0010236904738794
 137    0.0097830466965308
 138    -0.00030557123151968
 139    7.1591198043629e-05
 140    9.277659689781e-05
 141    4.0873611903981e-05
 142    6.2285051871497e-05
 143    5.4823891580676e-05
 144    -5.1221827873257e-05
 145    -0.0016245656246422
 146    2.4781356294753e-05
 147    0.00011085710150545
 148    0.00035111158776851
 149    -0.0021134650940907
 150    0.0012206672579455
 151    -0.0015827272746106
 152    7.2686405826884e-05
 153    -2.3007703295556e-05
 154    -2.8629634203494e-05
 155    -4.5846432457588e-05
 156    4.4513164557806e-05
 157    1.4309323360618e-05
 158    0.00012358007659143
 159    -0.0011699975842264
 160    3.7641636842212e-05
 161    6.179003929646e-06
 162    -4.2896738309875e-05
 163    4.1326995824806e-05
 164    0.00073000177162803
 165    0.00018669687272431
 166    1.886755361602e-05
 167    -4.6431072541015e-07
 168    -7.8219905443595e-07
 169    4.2172651034469e-05
 170    -5.6952138922697e-06
 171    8.093886091751e-06
 172    -0.00019274330554682
 173    0.00030285547757309
 174    -1.5473008591196e-05
 175    1.0085591604844e-05
 176    0.00021810916121863
 177    0.00024802196293437
 178    -0.00059775443044605
 179    -0.00011898524794498
 180    4.9686250454371e-06
 181    4.4549445809966e-05
 182    1.6794688915593e-05
 183    2.5298544996904e-05
 184    -7.7058064726234e-06
 185    -1.3303742092685e-05
 186    3.6456383655288e-05
 187    0.0013175966801021
 188    6.2678389542272e-06
 189    -4.1030113756891e-05
 190    -0.00022803908723026
 191    -0.00075949866294333
 192    -0.00031800367480846
 193    -0.00039708211854926
 194    1.5800593979759e-05
 195    3.297992021446e-05
 196    1.8466690736476e-05
 197    -4.8061757345527e-06
 198    1.8245624780634e-05
 199    -4.4491859133309e-06
 200    0.00025501341687173
 201    -9.3093697144848e-05
 202    -0.00036188688213834
 203    0.00014584191610467
 204    0.00061327270911313
 205    -0.00014013524670595
 206    -9.6814868045179e-05
 207    0.00011653565106615
 208    -0.00069092646604836
 209    8.734391033508e-05
 210    0.00016015391273889
 211    3.0844909348015e-05
 212    -8.0602919170777e-05
 213    -5.9549192753706e-06
 214    -0.00018718996555122
 215    -1.8266073971572e-05
 216    -0.00062481119830187
 217    3.8778079710134e-05
 218    0.00032440958812272
 219    -1.1824326546193e-05
 220    -0.00036038704004311
 221    0.0010166322145178
 222    -0.0022550700184095
 223     0.017857691934366
 224    -0.0011287518842529
 225    -0.00088615119180515
 226    0.0024951014301318
 227     0.013602960004345
 228    0.0014497655005032
 229     0.007488758936915
 230    0.00017163372388392
 231    -0.00012775690136292
 232    -0.00013995954151631
 233    8.8819345871012e-05
 234    0.00011583937722082
 235    -0.0068128748698489
 236     0.035863836934328
 237     0.018138912381184
 238    0.0048026640703389
 239    0.0095936666898478
 240    -0.040584252472204
 241    0.0048747134442058
 242    0.0063116509012838
 243    -0.023972469259074
 244    0.0055868010032359
 245     0.002060803080231
 246    -0.0016041406938445
 247    0.00079012651837374
 248    9.4417360594424e-05
 249    0.0005520065702072
 250    0.0069931525860452
 251    0.0017407467995588
 252      0.25118932638897
 253      0.16128522777937
 254     0.065940252031841
 255      0.04342492141022
 256     -0.12702836212228
 257    -0.011007534192141
 258    0.0061878872157594
 259    -0.043075259995896
 260    0.0037342752615333
 261    -0.0053749268206538
 262    -0.0043174880174499
 263    0.0064939302874606
 264    0.0050639540212625
 265    0.0095844964837713
 266    0.0014722790198842
 267     0.055211583234781
 268    -0.0032880408545109
 269    0.0021654210631554
 270      0.15713420306819
 271      0.10666894055054
 272     -0.04056366004353
 273    -0.017411977503521
 274     0.080736901410768
 275    -0.00075182043151379
 276    0.0087979673786715
 277     0.026424099762469
 278    0.0026773972556995
 279    -0.0044405125659239
 280    -0.0017741107151967
 281    0.00041386025907398
 282     0.005059349046708
 283    -0.0046975530026155
 284     0.024096581788788
 285     0.013261536457609