[Molden Format]
made by pyscf v[2.0.1]
[Atoms] (AU)
C   1   6     0.69100024066471     0.64692934207205    -3.48223131169301
H   2   1     2.68052439830868     1.13355088658700    -3.25784032593313
C   3   6    -0.36286361513219     0.85440132524594    -5.97030179418974
H   4   1    -2.35448549047279     0.36322488579172    -6.17995817793143
C   5   6     0.93697958957450     1.61209284601821    -8.05828437677121
H   6   1     1.03927160684768     3.62047501567417    -8.50199621914587
C   7   6     2.20035018302409    -0.10258413888539    -9.73758817852609
H   8   1     2.08224949102462    -2.10886499715255    -9.26789512642378
H   9   1     1.55630230933075    -1.92953025305990    12.99630010416247
C   10   6     0.75233899775814    -2.21270439606481    11.10705728102219
H   11   1    -0.43433408177274    -3.90944857546550    11.22216085340412
C   12   6     2.86362581178706    -2.63237380607947     9.17926416456045
H   13   1     4.39038949912609    -1.24955421540245     9.49899813497433
H   14   1     3.74629220191363    -4.48798724300892     9.47414880959024
C   15   6     2.02478325613682    -2.42177285709634     6.44560829588644
C   16   6     3.88048732735477    -3.58795445234514     4.61402886975252
C   17   6    -0.18412382258602    -1.30464291234259     5.76021113872346
C   18   6    -2.10044360464350    -0.26837831858460     7.71610340967100
C   19   6    -3.08956938670431     2.35282328359417     6.88693925039594
C   20   6    -4.37372924086464    -2.09766595989678     7.93610724222001
C   21   6    -0.83850430601230     0.06372213486173    10.33002307638377
H   22   1     0.38411922151109     1.74281358582432    10.27380136542181
H   23   1    -2.30980003007874     0.45460143924521    11.73986301809809
H   24   1     4.58527064644668    -5.38706904487420     5.36778158031719
H   25   1     5.54944938085014    -2.37631462192748     4.35398898413318
H   26   1     3.06633019150423    -3.94118377050688     2.75255466040884
H   27   1    -4.17727778763735     2.26573369139522     5.12914900961283
H   28   1    -1.52662344944051     3.68001877445626     6.59540397144508
H   29   1    -4.32916174397830     3.13643051467482     8.35225460090378
H   30   1    -5.32329548508442    -2.36691813602939     6.11583672749896
H   31   1    -5.77989366602257    -1.33896741843465     9.25748940450990
H   32   1    -3.79310905208926    -3.96389819310853     8.61386170102686
C   33   6    -1.01100794811226    -1.06331657314144     3.11929490449947
C   34   6     0.37686231036534    -0.33275864505552     1.09165013605873
H   35   1    -3.01671213906703    -1.40297922279997     2.77827895090944
C   36   6    -0.64382707979370    -0.11591880174385    -1.42063131251064
H   37   1     2.35569259782137     0.17174499283897     1.33641070251401
H   38   1    -2.63317482980319    -0.60229203511219    -1.66119700387645
C   39   6     3.51308281939799     0.56451683374771   -11.83721740116087
C   40   6     4.73454985947753    -1.32827425009098   -13.42856361339847
H   41   1     3.70368628307445     2.52946227119814   -12.41204614817202
O   42   8     5.94050384923934    -0.86285538356078   -15.33903067176323
H   43   1     4.49094488416901    -3.31470750932465   -12.76908014850535
[GTO]
1 0
 s    6 1.00
             3047.5249  0.0018347001629433
             457.36951    0.01403730124668
             103.94869   0.068842606114048
             29.210155    0.23218442062076
              9.286663    0.46794134155879
              3.163927    0.36231203217765
 s    3 1.00
             7.8682724   -0.11933240861517
             1.8812885   -0.16085421161283
             0.5442493     1.1434564825515
 s    1 1.00
             0.1687144                   1
 p    3 1.00
             7.8682724   0.068999095584993
             1.8812885    0.31642397975315
             0.5442493    0.74430825237435
 p    1 1.00
             0.1687144                   1
 d    1 1.00
                   0.8                   1

2 0
 s    3 1.00
             18.731137    0.03349459952309
             2.8253937    0.23472694665786
             0.6401217    0.81375731841339
 s    1 1.00
             0.1612778                   1

3 0
 s    6 1.00
             3047.5249  0.0018347001629433
             457.36951    0.01403730124668
             103.94869   0.068842606114048
             29.210155    0.23218442062076
              9.286663    0.46794134155879
              3.163927    0.36231203217765
 s    3 1.00
             7.8682724   -0.11933240861517
             1.8812885   -0.16085421161283
             0.5442493     1.1434564825515
 s    1 1.00
             0.1687144                   1
 p    3 1.00
             7.8682724   0.068999095584993
             1.8812885    0.31642397975315
             0.5442493    0.74430825237435
 p    1 1.00
             0.1687144                   1
 d    1 1.00
                   0.8                   1

4 0
 s    3 1.00
             18.731137    0.03349459952309
             2.8253937    0.23472694665786
             0.6401217    0.81375731841339
 s    1 1.00
             0.1612778                   1

5 0
 s    6 1.00
             3047.5249  0.0018347001629433
             457.36951    0.01403730124668
             103.94869   0.068842606114048
             29.210155    0.23218442062076
              9.286663    0.46794134155879
              3.163927    0.36231203217765
 s    3 1.00
             7.8682724   -0.11933240861517
             1.8812885   -0.16085421161283
             0.5442493     1.1434564825515
 s    1 1.00
             0.1687144                   1
 p    3 1.00
             7.8682724   0.068999095584993
             1.8812885    0.31642397975315
             0.5442493    0.74430825237435
 p    1 1.00
             0.1687144                   1
 d    1 1.00
                   0.8                   1

6 0
 s    3 1.00
             18.731137    0.03349459952309
             2.8253937    0.23472694665786
             0.6401217    0.81375731841339
 s    1 1.00
             0.1612778                   1

7 0
 s    6 1.00
             3047.5249  0.0018347001629433
             457.36951    0.01403730124668
             103.94869   0.068842606114048
             29.210155    0.23218442062076
              9.286663    0.46794134155879
              3.163927    0.36231203217765
 s    3 1.00
             7.8682724   -0.11933240861517
             1.8812885   -0.16085421161283
             0.5442493     1.1434564825515
 s    1 1.00
             0.1687144                   1
 p    3 1.00
             7.8682724   0.068999095584993
             1.8812885    0.31642397975315
             0.5442493    0.74430825237435
 p    1 1.00
             0.1687144                   1
 d    1 1.00
                   0.8                   1

8 0
 s    3 1.00
             18.731137    0.03349459952309
             2.8253937    0.23472694665786
             0.6401217    0.81375731841339
 s    1 1.00
             0.1612778                   1

9 0
 s    3 1.00
             18.731137    0.03349459952309
             2.8253937    0.23472694665786
             0.6401217    0.81375731841339
 s    1 1.00
             0.1612778                   1

10 0
 s    6 1.00
             3047.5249  0.0018347001629433
             457.36951    0.01403730124668
             103.94869   0.068842606114048
             29.210155    0.23218442062076
              9.286663    0.46794134155879
              3.163927    0.36231203217765
 s    3 1.00
             7.8682724   -0.11933240861517
             1.8812885   -0.16085421161283
             0.5442493     1.1434564825515
 s    1 1.00
             0.1687144                   1
 p    3 1.00
             7.8682724   0.068999095584993
             1.8812885    0.31642397975315
             0.5442493    0.74430825237435
 p    1 1.00
             0.1687144                   1
 d    1 1.00
                   0.8                   1

11 0
 s    3 1.00
             18.731137    0.03349459952309
             2.8253937    0.23472694665786
             0.6401217    0.81375731841339
 s    1 1.00
             0.1612778                   1

12 0
 s    6 1.00
             3047.5249  0.0018347001629433
             457.36951    0.01403730124668
             103.94869   0.068842606114048
             29.210155    0.23218442062076
              9.286663    0.46794134155879
              3.163927    0.36231203217765
 s    3 1.00
             7.8682724   -0.11933240861517
             1.8812885   -0.16085421161283
             0.5442493     1.1434564825515
 s    1 1.00
             0.1687144                   1
 p    3 1.00
             7.8682724   0.068999095584993
             1.8812885    0.31642397975315
             0.5442493    0.74430825237435
 p    1 1.00
             0.1687144                   1
 d    1 1.00
                   0.8                   1

13 0
 s    3 1.00
             18.731137    0.03349459952309
             2.8253937    0.23472694665786
             0.6401217    0.81375731841339
 s    1 1.00
             0.1612778                   1

14 0
 s    3 1.00
             18.731137    0.03349459952309
             2.8253937    0.23472694665786
             0.6401217    0.81375731841339
 s    1 1.00
             0.1612778                   1

15 0
 s    6 1.00
             3047.5249  0.0018347001629433
             457.36951    0.01403730124668
             103.94869   0.068842606114048
             29.210155    0.23218442062076
              9.286663    0.46794134155879
              3.163927    0.36231203217765
 s    3 1.00
             7.8682724   -0.11933240861517
             1.8812885   -0.16085421161283
             0.5442493     1.1434564825515
 s    1 1.00
             0.1687144                   1
 p    3 1.00
             7.8682724   0.068999095584993
             1.8812885    0.31642397975315
             0.5442493    0.74430825237435
 p    1 1.00
             0.1687144                   1
 d    1 1.00
                   0.8                   1

16 0
 s    6 1.00
             3047.5249  0.0018347001629433
             457.36951    0.01403730124668
             103.94869   0.068842606114048
             29.210155    0.23218442062076
              9.286663    0.46794134155879
              3.163927    0.36231203217765
 s    3 1.00
             7.8682724   -0.11933240861517
             1.8812885   -0.16085421161283
             0.5442493     1.1434564825515
 s    1 1.00
             0.1687144                   1
 p    3 1.00
             7.8682724   0.068999095584993
             1.8812885    0.31642397975315
             0.5442493    0.74430825237435
 p    1 1.00
             0.1687144                   1
 d    1 1.00
                   0.8                   1

17 0
 s    6 1.00
             3047.5249  0.0018347001629433
             457.36951    0.01403730124668
             103.94869   0.068842606114048
             29.210155    0.23218442062076
              9.286663    0.46794134155879
              3.163927    0.36231203217765
 s    3 1.00
             7.8682724   -0.11933240861517
             1.8812885   -0.16085421161283
             0.5442493     1.1434564825515
 s    1 1.00
             0.1687144                   1
 p    3 1.00
             7.8682724   0.068999095584993
             1.8812885    0.31642397975315
             0.5442493    0.74430825237435
 p    1 1.00
             0.1687144                   1
 d    1 1.00
                   0.8                   1

18 0
 s    6 1.00
             3047.5249  0.0018347001629433
             457.36951    0.01403730124668
             103.94869   0.068842606114048
             29.210155    0.23218442062076
              9.286663    0.46794134155879
              3.163927    0.36231203217765
 s    3 1.00
             7.8682724   -0.11933240861517
             1.8812885   -0.16085421161283
             0.5442493     1.1434564825515
 s    1 1.00
             0.1687144                   1
 p    3 1.00
             7.8682724   0.068999095584993
             1.8812885    0.31642397975315
             0.5442493    0.74430825237435
 p    1 1.00
             0.1687144                   1
 d    1 1.00
                   0.8                   1

19 0
 s    6 1.00
             3047.5249  0.0018347001629433
             457.36951    0.01403730124668
             103.94869   0.068842606114048
             29.210155    0.23218442062076
              9.286663    0.46794134155879
              3.163927    0.36231203217765
 s    3 1.00
             7.8682724   -0.11933240861517
             1.8812885   -0.16085421161283
             0.5442493     1.1434564825515
 s    1 1.00
             0.1687144                   1
 p    3 1.00
             7.8682724   0.068999095584993
             1.8812885    0.31642397975315
             0.5442493    0.74430825237435
 p    1 1.00
             0.1687144                   1
 d    1 1.00
                   0.8                   1

20 0
 s    6 1.00
             3047.5249  0.0018347001629433
             457.36951    0.01403730124668
             103.94869   0.068842606114048
             29.210155    0.23218442062076
              9.286663    0.46794134155879
              3.163927    0.36231203217765
 s    3 1.00
             7.8682724   -0.11933240861517
             1.8812885   -0.16085421161283
             0.5442493     1.1434564825515
 s    1 1.00
             0.1687144                   1
 p    3 1.00
             7.8682724   0.068999095584993
             1.8812885    0.31642397975315
             0.5442493    0.74430825237435
 p    1 1.00
             0.1687144                   1
 d    1 1.00
                   0.8                   1

21 0
 s    6 1.00
             3047.5249  0.0018347001629433
             457.36951    0.01403730124668
             103.94869   0.068842606114048
             29.210155    0.23218442062076
              9.286663    0.46794134155879
              3.163927    0.36231203217765
 s    3 1.00
             7.8682724   -0.11933240861517
             1.8812885   -0.16085421161283
             0.5442493     1.1434564825515
 s    1 1.00
             0.1687144                   1
 p    3 1.00
             7.8682724   0.068999095584993
             1.8812885    0.31642397975315
             0.5442493    0.74430825237435
 p    1 1.00
             0.1687144                   1
 d    1 1.00
                   0.8                   1

22 0
 s    3 1.00
             18.731137    0.03349459952309
             2.8253937    0.23472694665786
             0.6401217    0.81375731841339
 s    1 1.00
             0.1612778                   1

23 0
 s    3 1.00
             18.731137    0.03349459952309
             2.8253937    0.23472694665786
             0.6401217    0.81375731841339
 s    1 1.00
             0.1612778                   1

24 0
 s    3 1.00
             18.731137    0.03349459952309
             2.8253937    0.23472694665786
             0.6401217    0.81375731841339
 s    1 1.00
             0.1612778                   1

25 0
 s    3 1.00
             18.731137    0.03349459952309
             2.8253937    0.23472694665786
             0.6401217    0.81375731841339
 s    1 1.00
             0.1612778                   1

26 0
 s    3 1.00
             18.731137    0.03349459952309
             2.8253937    0.23472694665786
             0.6401217    0.81375731841339
 s    1 1.00
             0.1612778                   1

27 0
 s    3 1.00
             18.731137    0.03349459952309
             2.8253937    0.23472694665786
             0.6401217    0.81375731841339
 s    1 1.00
             0.1612778                   1

28 0
 s    3 1.00
             18.731137    0.03349459952309
             2.8253937    0.23472694665786
             0.6401217    0.81375731841339
 s    1 1.00
             0.1612778                   1

29 0
 s    3 1.00
             18.731137    0.03349459952309
             2.8253937    0.23472694665786
             0.6401217    0.81375731841339
 s    1 1.00
             0.1612778                   1

30 0
 s    3 1.00
             18.731137    0.03349459952309
             2.8253937    0.23472694665786
             0.6401217    0.81375731841339
 s    1 1.00
             0.1612778                   1

31 0
 s    3 1.00
             18.731137    0.03349459952309
             2.8253937    0.23472694665786
             0.6401217    0.81375731841339
 s    1 1.00
             0.1612778                   1

32 0
 s    3 1.00
             18.731137    0.03349459952309
             2.8253937    0.23472694665786
             0.6401217    0.81375731841339
 s    1 1.00
             0.1612778                   1

33 0
 s    6 1.00
             3047.5249  0.0018347001629433
             457.36951    0.01403730124668
             103.94869   0.068842606114048
             29.210155    0.23218442062076
              9.286663    0.46794134155879
              3.163927    0.36231203217765
 s    3 1.00
             7.8682724   -0.11933240861517
             1.8812885   -0.16085421161283
             0.5442493     1.1434564825515
 s    1 1.00
             0.1687144                   1
 p    3 1.00
             7.8682724   0.068999095584993
             1.8812885    0.31642397975315
             0.5442493    0.74430825237435
 p    1 1.00
             0.1687144                   1
 d    1 1.00
                   0.8                   1

34 0
 s    6 1.00
             3047.5249  0.0018347001629433
             457.36951    0.01403730124668
             103.94869   0.068842606114048
             29.210155    0.23218442062076
              9.286663    0.46794134155879
              3.163927    0.36231203217765
 s    3 1.00
             7.8682724   -0.11933240861517
             1.8812885   -0.16085421161283
             0.5442493     1.1434564825515
 s    1 1.00
             0.1687144                   1
 p    3 1.00
             7.8682724   0.068999095584993
             1.8812885    0.31642397975315
             0.5442493    0.74430825237435
 p    1 1.00
             0.1687144                   1
 d    1 1.00
                   0.8                   1

35 0
 s    3 1.00
             18.731137    0.03349459952309
             2.8253937    0.23472694665786
             0.6401217    0.81375731841339
 s    1 1.00
             0.1612778                   1

36 0
 s    6 1.00
             3047.5249  0.0018347001629433
             457.36951    0.01403730124668
             103.94869   0.068842606114048
             29.210155    0.23218442062076
              9.286663    0.46794134155879
              3.163927    0.36231203217765
 s    3 1.00
             7.8682724   -0.11933240861517
             1.8812885   -0.16085421161283
             0.5442493     1.1434564825515
 s    1 1.00
             0.1687144                   1
 p    3 1.00
             7.8682724   0.068999095584993
             1.8812885    0.31642397975315
             0.5442493    0.74430825237435
 p    1 1.00
             0.1687144                   1
 d    1 1.00
                   0.8                   1

37 0
 s    3 1.00
             18.731137    0.03349459952309
             2.8253937    0.23472694665786
             0.6401217    0.81375731841339
 s    1 1.00
             0.1612778                   1

38 0
 s    3 1.00
             18.731137    0.03349459952309
             2.8253937    0.23472694665786
             0.6401217    0.81375731841339
 s    1 1.00
             0.1612778                   1

39 0
 s    6 1.00
             3047.5249  0.0018347001629433
             457.36951    0.01403730124668
             103.94869   0.068842606114048
             29.210155    0.23218442062076
              9.286663    0.46794134155879
              3.163927    0.36231203217765
 s    3 1.00
             7.8682724   -0.11933240861517
             1.8812885   -0.16085421161283
             0.5442493     1.1434564825515
 s    1 1.00
             0.1687144                   1
 p    3 1.00
             7.8682724   0.068999095584993
             1.8812885    0.31642397975315
             0.5442493    0.74430825237435
 p    1 1.00
             0.1687144                   1
 d    1 1.00
                   0.8                   1

40 0
 s    6 1.00
             3047.5249  0.0018347001629433
             457.36951    0.01403730124668
             103.94869   0.068842606114048
             29.210155    0.23218442062076
              9.286663    0.46794134155879
              3.163927    0.36231203217765
 s    3 1.00
             7.8682724   -0.11933240861517
             1.8812885   -0.16085421161283
             0.5442493     1.1434564825515
 s    1 1.00
             0.1687144                   1
 p    3 1.00
             7.8682724   0.068999095584993
             1.8812885    0.31642397975315
             0.5442493    0.74430825237435
 p    1 1.00
             0.1687144                   1
 d    1 1.00
                   0.8                   1

41 0
 s    3 1.00
             18.731137    0.03349459952309
             2.8253937    0.23472694665786
             0.6401217    0.81375731841339
 s    1 1.00
             0.1612778                   1

42 0
 s    6 1.00
             5484.6717   0.001831099805527
             825.23495   0.013950098518422
             188.04696    0.06844509273075
               52.9645    0.23271427528445
              16.89757    0.47019295006289
             5.7996353    0.35852086192309
 s    3 1.00
             15.539616   -0.11077750382508
             3.5999336   -0.14802630511126
             1.0137618     1.1307670390447
 s    1 1.00
             0.2700058                   1
 p    3 1.00
             15.539616   0.070874299543311
             3.5999336    0.33975279781076
             1.0137618    0.72715859531445
 p    1 1.00
             0.2700058                   1
 d    1 1.00
                   0.8                   1

43 0
 s    3 1.00
             18.731137    0.03349459952309
             2.8253937    0.23472694665786
             0.6401217    0.81375731841339
 s    1 1.00
             0.1612778                   1

[5d]
[7f]
[9g]

[MO]
 Sym= A
 Ene=               0
 Spin= Alpha
 Occup=    1.00000
   1    0.0030891326575953
   2      0.29833161334474
   3      0.19630992575119
   4     -0.07598713665193
   5    -0.050269716612614
   6      0.14681292339073
   7     0.011047453636018
   8    -0.0070137310363271
   9      0.04863323076829
  10    0.0047303257913161
  11    -0.0063617014052732
  12    -0.0054337122280732
  13    0.0075438140240795
  14    0.0063437674992739
  15     0.066467129352602
  16    -0.002239059615003
  17    -0.0087627171742979
  18     0.046585682879049
  19     0.021869450326759
  20    -0.0059617204428618
  21    -0.011938830701082
  22     0.052745803497221
  23    -0.011461375147763
  24    -0.0076591094452089
  25     0.025550227554414
  26    0.0064029348241184
  27    0.0028307761045124
  28    -0.001702533064798
  29    0.00085817650921464
  30    8.0641531406345e-05
  31      0.01289027463876
  32    -0.00012186649258444
  33    0.0011396383003868
  34    -0.0012094372057627
  35     0.017381189121347
  36    0.0017357733528267
  37     0.001146381304223
  38    -0.0066989193958277
  39    -0.005767426358851
  40    -0.0055601034018585
  41    0.0011080556670422
  42    3.9191317483879e-05
  43    -0.00073796206109634
  44    0.00019343726290782
  45    -3.4233792951487e-05
  46    -7.8351523458027e-05
  47    0.0012448454575453
  48    0.0027799733774995
  49    -0.00040191405541691
  50     0.019648285314556
  51     0.011050437135627
  52    0.0062818574843827
  53    0.00031913158192447
  54    -0.0095632667365144
  55     0.005292343296278
  56    -0.002074557941364
  57    -0.0056387083359282
  58    0.00010802792724355
  59    -0.00056212555976906
  60    -0.000492312587857
  61    -0.00035964530759462
  62    0.00025743557180735
  63    0.0054596243200415
  64    0.0015607770244255
  65    2.6308163677524e-05
  66    -2.7913975461839e-05
  67    9.8859373417538e-06
  68    5.0731640791267e-05
  69    -0.00040216916467058
  70    -6.0497781214835e-06
  71    -1.8284234007399e-05
  72    -7.0702629078637e-06
  73    0.00026342467843455
  74    0.00035051660417874
  75    0.00027348311454091
  76    2.7136286201976e-05
  77    1.1409040559664e-05
  78    -1.0140578088952e-05
  79    -8.4975747236592e-06
  80    9.5245477839865e-06
  81    7.8501130264216e-06
  82    0.00031636007946079
  83    -2.9036564969898e-05
  84    0.00015482135421807
  85    0.0013038600727137
  86    -0.00019008552905976
  87    7.6113093365275e-05
  88    -0.00030893948303623
  89    -0.00045594330066519
  90    -0.00040669943856637
  91    -0.00054823576899827
  92    -3.3262466818701e-06
  93    2.3710855866604e-05
  94    -1.3921372871277e-05
  95    -6.6117380592413e-06
  96    -9.8853286277816e-06
  97    -7.0576413581118e-05
  98    3.7647737259035e-05
  99    -5.422894256674e-05
 100    -0.00012733582270756
 101    8.9954248909338e-05
 102    -7.8007318493297e-05
 103    -0.0011323155178348
 104    7.8111278886969e-05
 105    0.00023757170794855
 106    0.00038514252867829
 107    0.0026668784568929
 108    -0.00064443752654982
 109    -0.0032480232935368
 110    3.9501915652925e-05
 111    9.1879590875189e-05
 112    -3.3961636076962e-05
 113    -6.4950948317188e-05
 114    2.9157426966456e-05
 115    9.6842005378308e-05
 116    -0.00022031971767116
 117     -0.00232583545214
 118    0.00012908307123473
 119    -0.00040558248925457
 120    7.4227837574747e-05
 121    0.00048567767212018
 122    -0.00016769375974812
 123    -0.0014514903184106
 124    1.5075968114385e-05
 125    5.003845797681e-05
 126    -5.2776101177276e-05
 127    -1.2246568405458e-05
 128    9.0051899748624e-06
 129    -1.3484170183304e-05
 130    0.00078137025110045
 131    -0.011421793857957
 132    -0.00023101049466828
 133    -7.4947546492098e-05
 134    -0.0007409416268108
 135    0.0015125774619465
 136    -0.0011757768259141
 137     0.012527259765087
 138    -0.00038779641869725
 139    7.6789890155414e-05
 140    0.00014429880122677
 141    6.3299258085975e-05
 142    9.3265531561308e-05
 143    6.1264310616251e-05
 144    -1.0971261958331e-05
 145    -0.0022726519275737
 146    6.7904641836873e-05
 147    0.00012464390038022
 148    0.0003652318061717
 149    -0.002738834034743
 150    0.0017312711833734
 151    -0.0020263868963178
 152    9.2328690590899e-05
 153    -2.8071873367376e-05
 154    -3.9073362999677e-05
 155    -5.8960180989731e-05
 156    5.8092501475604e-05
 157    1.3637607945896e-05
 158    0.0001829652968527
 159    -0.0015603823070717
 160    3.577054150744e-05
 161    1.1147071815982e-05
 162    -9.7929354948946e-05
 163    8.7482743783493e-06
 164    0.00098014107143316
 165    0.00021921757430409
 166    2.063408053478e-05
 167    2.8080116877022e-06
 168    -5.8823194426385e-07
 169    5.4334970568135e-05
 170    -7.4278376855807e-06
 171    1.2276013396464e-05
 172    -0.00023618291299188
 173    0.00037569837218796
 174    -2.0042638843112e-05
 175    6.7796308118878e-06
 176    0.00029695785426658
 177    0.0004045210035512
 178    -0.00074574420909689
 179    -7.5891063414792e-05
 180    3.7090969732183e-06
 181    5.1764671773933e-05
 182    1.9028341214099e-05
 183    3.4852163782548e-05
 184    -8.1718858159192e-06
 185    -1.384752707757e-05
 186    3.4216504964315e-05
 187    0.0017442926116758
 188    1.4743518487307e-06
 189    -5.1515802596232e-05
 190    -0.00025323830968208
 191    -0.00092815120029539
 192    -0.00045956968433495
 193    -0.00050111306393054
 194    2.1327611341616e-05
 195    3.8521815911008e-05
 196    2.5771377696404e-05
 197    -5.9933987191867e-06
 198    2.1873141263263e-05
 199    -1.5856861850515e-05
 200    0.0003145779662835
 201    -9.0181106704384e-05
 202    -0.000420494401614
 203    0.00024646258715961
 204    0.00083943382951751
 205    -0.00023421019027239
 206    -0.00018067737195427
 207    0.00014681553188315
 208    -0.00074004202345931
 209    0.00013157882125364
 210    0.00021706369661652
 211    4.3823011338175e-05
 212    -9.9107372956883e-05
 213    -1.8774357209399e-05
 214    -0.00027057920136594
 215    -5.2615485965822e-05
 216    -0.00064750948555383
 217    6.4412576006147e-05
 218    0.00042277277049316
 219    -9.9389713287479e-06
 220    -0.00048084964020223
 221    0.0012749328926539
 222    -0.0029529604482778
 223     0.022924927556927
 224    -0.0014875937848727
 225    -0.0016855051937849
 226    0.0029783298290377
 227     0.016512267476593
 228    0.0013526474641892
 229    0.0088830971129434
 230    0.00024790737719713
 231    -0.00016479875366979
 232    -0.00017161397815024
 233    0.00012043318577067
 234    0.0001388703140081
 235    -0.0082455441325304
 236     0.043699477136156
 237     0.019769667989529
 238    0.0064528107832714
 239     0.011356597141355
 240     -0.04877212527613
 241    0.0075947230123733
 242    0.0077271594375963
 243    -0.028626295989341
 244    0.0064779521798739
 245     0.002476008175355
 246    -0.0018786275936711
 247    0.00095352815580374
 248    0.0001239287800388
 249    0.0007641863378307
 250     0.008225776534076
 251     0.001539965143596
 252      0.29703148205297
 253      0.18570514521405
 254     0.079229430032473
 255     0.051478279242661
 256     -0.14925383403895
 257    -0.012813277321568
 258    0.0065008115706832
 259    -0.045424352232738
 260    0.0044884826211463
 261    -0.0065102350147156
 262    -0.0050406178987222
 263    0.0077146819384814
 264    0.0059251438514929
 265      0.01220417203595
 266    0.0019157478472867
 267     0.064359803454127
 268    -0.0037238713295957
 269    0.0011308853909353
 270     0.021089073764606
 271    0.0099187879360308
 272    -0.0046036718974685
 273    -0.0039232495388682
 274    0.0074447266970631
 275    -0.0013988555328539
 276    0.0034621486070319
 277    0.0014305810758957
 278    0.00022063166880593
 279    -0.00070481659894776
 280    -0.00038536983657683
 281    -0.00034954516689897
 282    0.00015018481228272
 283    -0.0011732121536939
 284    0.0054849183820147