[Molden Format]
made by pyscf v[2.0.1]
[Atoms] (AU)
C   1   6     0.69100024066471     0.64692934207205    -3.48223131169301
H   2   1     2.68052439830868     1.13355088658700    -3.25784032593313
C   3   6    -0.36286361513219     0.85440132524594    -5.97030179418974
H   4   1    -2.35448549047279     0.36322488579172    -6.17995817793143
C   5   6     0.93697958957450     1.61209284601821    -8.05828437677121
H   6   1     2.68174994182533     2.67994959464420    -7.82079505522331
C   7   6     0.13444904340515     1.08121190669811   -10.59410649762000
H   8   1    -1.61655526267424     0.00863003830430   -10.80213119601662
H   9   1     1.55630230933075    -1.92953025305990    12.99630010416247
C   10   6     0.75233899775814    -2.21270439606481    11.10705728102219
H   11   1    -0.43433408177274    -3.90944857546550    11.22216085340412
C   12   6     2.86362581178706    -2.63237380607947     9.17926416456045
H   13   1     4.39038949912609    -1.24955421540245     9.49899813497433
H   14   1     3.74629220191363    -4.48798724300892     9.47414880959024
C   15   6     2.02478325613682    -2.42177285709634     6.44560829588644
C   16   6     3.88048732735477    -3.58795445234514     4.61402886975252
C   17   6    -0.18412382258602    -1.30464291234259     5.76021113872346
C   18   6    -2.10044360464350    -0.26837831858460     7.71610340967100
C   19   6    -3.08956938670431     2.35282328359417     6.88693925039594
C   20   6    -4.37372924086464    -2.09766595989678     7.93610724222001
C   21   6    -0.83850430601230     0.06372213486173    10.33002307638377
H   22   1     0.38411922151109     1.74281358582432    10.27380136542181
H   23   1    -2.30980003007874     0.45460143924521    11.73986301809809
H   24   1     4.58527064644668    -5.38706904487420     5.36778158031719
H   25   1     5.54944938085014    -2.37631462192748     4.35398898413318
H   26   1     3.06633019150423    -3.94118377050688     2.75255466040884
H   27   1    -4.17727778763735     2.26573369139522     5.12914900961283
H   28   1    -1.52662344944051     3.68001877445626     6.59540397144508
H   29   1    -4.32916174397830     3.13643051467482     8.35225460090378
H   30   1    -5.32329548508442    -2.36691813602939     6.11583672749896
H   31   1    -5.77989366602257    -1.33896741843465     9.25748940450990
H   32   1    -3.79310905208926    -3.96389819310853     8.61386170102686
C   33   6    -1.01100794811226    -1.06331657314144     3.11929490449947
C   34   6     0.37686231036534    -0.33275864505552     1.09165013605873
H   35   1    -3.01671213906703    -1.40297922279997     2.77827895090944
C   36   6    -0.64382707979370    -0.11591880174385    -1.42063131251064
H   37   1     2.35569259782137     0.17174499283897     1.33641070251401
H   38   1    -2.63317482980319    -0.60229203511219    -1.66119700387645
C   39   6     1.36441264344082     1.79875350819652   -12.72695837882209
C   40   6     0.39042169983249     1.16479015456541   -15.22824898409742
H   41   1     3.11744943935123     2.87075295695162   -12.65315109008398
O   42   8     1.39604269582139     1.74939992973347   -17.22017818748739
H   43   1    -1.40767336523230     0.06622817248511   -15.21429812709214
[GTO]
1 0
 s    6 1.00
             3047.5249  0.0018347001629433
             457.36951    0.01403730124668
             103.94869   0.068842606114048
             29.210155    0.23218442062076
              9.286663    0.46794134155879
              3.163927    0.36231203217765
 s    3 1.00
             7.8682724   -0.11933240861517
             1.8812885   -0.16085421161283
             0.5442493     1.1434564825515
 s    1 1.00
             0.1687144                   1
 p    3 1.00
             7.8682724   0.068999095584993
             1.8812885    0.31642397975315
             0.5442493    0.74430825237435
 p    1 1.00
             0.1687144                   1
 d    1 1.00
                   0.8                   1

2 0
 s    3 1.00
             18.731137    0.03349459952309
             2.8253937    0.23472694665786
             0.6401217    0.81375731841339
 s    1 1.00
             0.1612778                   1

3 0
 s    6 1.00
             3047.5249  0.0018347001629433
             457.36951    0.01403730124668
             103.94869   0.068842606114048
             29.210155    0.23218442062076
              9.286663    0.46794134155879
              3.163927    0.36231203217765
 s    3 1.00
             7.8682724   -0.11933240861517
             1.8812885   -0.16085421161283
             0.5442493     1.1434564825515
 s    1 1.00
             0.1687144                   1
 p    3 1.00
             7.8682724   0.068999095584993
             1.8812885    0.31642397975315
             0.5442493    0.74430825237435
 p    1 1.00
             0.1687144                   1
 d    1 1.00
                   0.8                   1

4 0
 s    3 1.00
             18.731137    0.03349459952309
             2.8253937    0.23472694665786
             0.6401217    0.81375731841339
 s    1 1.00
             0.1612778                   1

5 0
 s    6 1.00
             3047.5249  0.0018347001629433
             457.36951    0.01403730124668
             103.94869   0.068842606114048
             29.210155    0.23218442062076
              9.286663    0.46794134155879
              3.163927    0.36231203217765
 s    3 1.00
             7.8682724   -0.11933240861517
             1.8812885   -0.16085421161283
             0.5442493     1.1434564825515
 s    1 1.00
             0.1687144                   1
 p    3 1.00
             7.8682724   0.068999095584993
             1.8812885    0.31642397975315
             0.5442493    0.74430825237435
 p    1 1.00
             0.1687144                   1
 d    1 1.00
                   0.8                   1

6 0
 s    3 1.00
             18.731137    0.03349459952309
             2.8253937    0.23472694665786
             0.6401217    0.81375731841339
 s    1 1.00
             0.1612778                   1

7 0
 s    6 1.00
             3047.5249  0.0018347001629433
             457.36951    0.01403730124668
             103.94869   0.068842606114048
             29.210155    0.23218442062076
              9.286663    0.46794134155879
              3.163927    0.36231203217765
 s    3 1.00
             7.8682724   -0.11933240861517
             1.8812885   -0.16085421161283
             0.5442493     1.1434564825515
 s    1 1.00
             0.1687144                   1
 p    3 1.00
             7.8682724   0.068999095584993
             1.8812885    0.31642397975315
             0.5442493    0.74430825237435
 p    1 1.00
             0.1687144                   1
 d    1 1.00
                   0.8                   1

8 0
 s    3 1.00
             18.731137    0.03349459952309
             2.8253937    0.23472694665786
             0.6401217    0.81375731841339
 s    1 1.00
             0.1612778                   1

9 0
 s    3 1.00
             18.731137    0.03349459952309
             2.8253937    0.23472694665786
             0.6401217    0.81375731841339
 s    1 1.00
             0.1612778                   1

10 0
 s    6 1.00
             3047.5249  0.0018347001629433
             457.36951    0.01403730124668
             103.94869   0.068842606114048
             29.210155    0.23218442062076
              9.286663    0.46794134155879
              3.163927    0.36231203217765
 s    3 1.00
             7.8682724   -0.11933240861517
             1.8812885   -0.16085421161283
             0.5442493     1.1434564825515
 s    1 1.00
             0.1687144                   1
 p    3 1.00
             7.8682724   0.068999095584993
             1.8812885    0.31642397975315
             0.5442493    0.74430825237435
 p    1 1.00
             0.1687144                   1
 d    1 1.00
                   0.8                   1

11 0
 s    3 1.00
             18.731137    0.03349459952309
             2.8253937    0.23472694665786
             0.6401217    0.81375731841339
 s    1 1.00
             0.1612778                   1

12 0
 s    6 1.00
             3047.5249  0.0018347001629433
             457.36951    0.01403730124668
             103.94869   0.068842606114048
             29.210155    0.23218442062076
              9.286663    0.46794134155879
              3.163927    0.36231203217765
 s    3 1.00
             7.8682724   -0.11933240861517
             1.8812885   -0.16085421161283
             0.5442493     1.1434564825515
 s    1 1.00
             0.1687144                   1
 p    3 1.00
             7.8682724   0.068999095584993
             1.8812885    0.31642397975315
             0.5442493    0.74430825237435
 p    1 1.00
             0.1687144                   1
 d    1 1.00
                   0.8                   1

13 0
 s    3 1.00
             18.731137    0.03349459952309
             2.8253937    0.23472694665786
             0.6401217    0.81375731841339
 s    1 1.00
             0.1612778                   1

14 0
 s    3 1.00
             18.731137    0.03349459952309
             2.8253937    0.23472694665786
             0.6401217    0.81375731841339
 s    1 1.00
             0.1612778                   1

15 0
 s    6 1.00
             3047.5249  0.0018347001629433
             457.36951    0.01403730124668
             103.94869   0.068842606114048
             29.210155    0.23218442062076
              9.286663    0.46794134155879
              3.163927    0.36231203217765
 s    3 1.00
             7.8682724   -0.11933240861517
             1.8812885   -0.16085421161283
             0.5442493     1.1434564825515
 s    1 1.00
             0.1687144                   1
 p    3 1.00
             7.8682724   0.068999095584993
             1.8812885    0.31642397975315
             0.5442493    0.74430825237435
 p    1 1.00
             0.1687144                   1
 d    1 1.00
                   0.8                   1

16 0
 s    6 1.00
             3047.5249  0.0018347001629433
             457.36951    0.01403730124668
             103.94869   0.068842606114048
             29.210155    0.23218442062076
              9.286663    0.46794134155879
              3.163927    0.36231203217765
 s    3 1.00
             7.8682724   -0.11933240861517
             1.8812885   -0.16085421161283
             0.5442493     1.1434564825515
 s    1 1.00
             0.1687144                   1
 p    3 1.00
             7.8682724   0.068999095584993
             1.8812885    0.31642397975315
             0.5442493    0.74430825237435
 p    1 1.00
             0.1687144                   1
 d    1 1.00
                   0.8                   1

17 0
 s    6 1.00
             3047.5249  0.0018347001629433
             457.36951    0.01403730124668
             103.94869   0.068842606114048
             29.210155    0.23218442062076
              9.286663    0.46794134155879
              3.163927    0.36231203217765
 s    3 1.00
             7.8682724   -0.11933240861517
             1.8812885   -0.16085421161283
             0.5442493     1.1434564825515
 s    1 1.00
             0.1687144                   1
 p    3 1.00
             7.8682724   0.068999095584993
             1.8812885    0.31642397975315
             0.5442493    0.74430825237435
 p    1 1.00
             0.1687144                   1
 d    1 1.00
                   0.8                   1

18 0
 s    6 1.00
             3047.5249  0.0018347001629433
             457.36951    0.01403730124668
             103.94869   0.068842606114048
             29.210155    0.23218442062076
              9.286663    0.46794134155879
              3.163927    0.36231203217765
 s    3 1.00
             7.8682724   -0.11933240861517
             1.8812885   -0.16085421161283
             0.5442493     1.1434564825515
 s    1 1.00
             0.1687144                   1
 p    3 1.00
             7.8682724   0.068999095584993
             1.8812885    0.31642397975315
             0.5442493    0.74430825237435
 p    1 1.00
             0.1687144                   1
 d    1 1.00
                   0.8                   1

19 0
 s    6 1.00
             3047.5249  0.0018347001629433
             457.36951    0.01403730124668
             103.94869   0.068842606114048
             29.210155    0.23218442062076
              9.286663    0.46794134155879
              3.163927    0.36231203217765
 s    3 1.00
             7.8682724   -0.11933240861517
             1.8812885   -0.16085421161283
             0.5442493     1.1434564825515
 s    1 1.00
             0.1687144                   1
 p    3 1.00
             7.8682724   0.068999095584993
             1.8812885    0.31642397975315
             0.5442493    0.74430825237435
 p    1 1.00
             0.1687144                   1
 d    1 1.00
                   0.8                   1

20 0
 s    6 1.00
             3047.5249  0.0018347001629433
             457.36951    0.01403730124668
             103.94869   0.068842606114048
             29.210155    0.23218442062076
              9.286663    0.46794134155879
              3.163927    0.36231203217765
 s    3 1.00
             7.8682724   -0.11933240861517
             1.8812885   -0.16085421161283
             0.5442493     1.1434564825515
 s    1 1.00
             0.1687144                   1
 p    3 1.00
             7.8682724   0.068999095584993
             1.8812885    0.31642397975315
             0.5442493    0.74430825237435
 p    1 1.00
             0.1687144                   1
 d    1 1.00
                   0.8                   1

21 0
 s    6 1.00
             3047.5249  0.0018347001629433
             457.36951    0.01403730124668
             103.94869   0.068842606114048
             29.210155    0.23218442062076
              9.286663    0.46794134155879
              3.163927    0.36231203217765
 s    3 1.00
             7.8682724   -0.11933240861517
             1.8812885   -0.16085421161283
             0.5442493     1.1434564825515
 s    1 1.00
             0.1687144                   1
 p    3 1.00
             7.8682724   0.068999095584993
             1.8812885    0.31642397975315
             0.5442493    0.74430825237435
 p    1 1.00
             0.1687144                   1
 d    1 1.00
                   0.8                   1

22 0
 s    3 1.00
             18.731137    0.03349459952309
             2.8253937    0.23472694665786
             0.6401217    0.81375731841339
 s    1 1.00
             0.1612778                   1

23 0
 s    3 1.00
             18.731137    0.03349459952309
             2.8253937    0.23472694665786
             0.6401217    0.81375731841339
 s    1 1.00
             0.1612778                   1

24 0
 s    3 1.00
             18.731137    0.03349459952309
             2.8253937    0.23472694665786
             0.6401217    0.81375731841339
 s    1 1.00
             0.1612778                   1

25 0
 s    3 1.00
             18.731137    0.03349459952309
             2.8253937    0.23472694665786
             0.6401217    0.81375731841339
 s    1 1.00
             0.1612778                   1

26 0
 s    3 1.00
             18.731137    0.03349459952309
             2.8253937    0.23472694665786
             0.6401217    0.81375731841339
 s    1 1.00
             0.1612778                   1

27 0
 s    3 1.00
             18.731137    0.03349459952309
             2.8253937    0.23472694665786
             0.6401217    0.81375731841339
 s    1 1.00
             0.1612778                   1

28 0
 s    3 1.00
             18.731137    0.03349459952309
             2.8253937    0.23472694665786
             0.6401217    0.81375731841339
 s    1 1.00
             0.1612778                   1

29 0
 s    3 1.00
             18.731137    0.03349459952309
             2.8253937    0.23472694665786
             0.6401217    0.81375731841339
 s    1 1.00
             0.1612778                   1

30 0
 s    3 1.00
             18.731137    0.03349459952309
             2.8253937    0.23472694665786
             0.6401217    0.81375731841339
 s    1 1.00
             0.1612778                   1

31 0
 s    3 1.00
             18.731137    0.03349459952309
             2.8253937    0.23472694665786
             0.6401217    0.81375731841339
 s    1 1.00
             0.1612778                   1

32 0
 s    3 1.00
             18.731137    0.03349459952309
             2.8253937    0.23472694665786
             0.6401217    0.81375731841339
 s    1 1.00
             0.1612778                   1

33 0
 s    6 1.00
             3047.5249  0.0018347001629433
             457.36951    0.01403730124668
             103.94869   0.068842606114048
             29.210155    0.23218442062076
              9.286663    0.46794134155879
              3.163927    0.36231203217765
 s    3 1.00
             7.8682724   -0.11933240861517
             1.8812885   -0.16085421161283
             0.5442493     1.1434564825515
 s    1 1.00
             0.1687144                   1
 p    3 1.00
             7.8682724   0.068999095584993
             1.8812885    0.31642397975315
             0.5442493    0.74430825237435
 p    1 1.00
             0.1687144                   1
 d    1 1.00
                   0.8                   1

34 0
 s    6 1.00
             3047.5249  0.0018347001629433
             457.36951    0.01403730124668
             103.94869   0.068842606114048
             29.210155    0.23218442062076
              9.286663    0.46794134155879
              3.163927    0.36231203217765
 s    3 1.00
             7.8682724   -0.11933240861517
             1.8812885   -0.16085421161283
             0.5442493     1.1434564825515
 s    1 1.00
             0.1687144                   1
 p    3 1.00
             7.8682724   0.068999095584993
             1.8812885    0.31642397975315
             0.5442493    0.74430825237435
 p    1 1.00
             0.1687144                   1
 d    1 1.00
                   0.8                   1

35 0
 s    3 1.00
             18.731137    0.03349459952309
             2.8253937    0.23472694665786
             0.6401217    0.81375731841339
 s    1 1.00
             0.1612778                   1

36 0
 s    6 1.00
             3047.5249  0.0018347001629433
             457.36951    0.01403730124668
             103.94869   0.068842606114048
             29.210155    0.23218442062076
              9.286663    0.46794134155879
              3.163927    0.36231203217765
 s    3 1.00
             7.8682724   -0.11933240861517
             1.8812885   -0.16085421161283
             0.5442493     1.1434564825515
 s    1 1.00
             0.1687144                   1
 p    3 1.00
             7.8682724   0.068999095584993
             1.8812885    0.31642397975315
             0.5442493    0.74430825237435
 p    1 1.00
             0.1687144                   1
 d    1 1.00
                   0.8                   1

37 0
 s    3 1.00
             18.731137    0.03349459952309
             2.8253937    0.23472694665786
             0.6401217    0.81375731841339
 s    1 1.00
             0.1612778                   1

38 0
 s    3 1.00
             18.731137    0.03349459952309
             2.8253937    0.23472694665786
             0.6401217    0.81375731841339
 s    1 1.00
             0.1612778                   1

39 0
 s    6 1.00
             3047.5249  0.0018347001629433
             457.36951    0.01403730124668
             103.94869   0.068842606114048
             29.210155    0.23218442062076
              9.286663    0.46794134155879
              3.163927    0.36231203217765
 s    3 1.00
             7.8682724   -0.11933240861517
             1.8812885   -0.16085421161283
             0.5442493     1.1434564825515
 s    1 1.00
             0.1687144                   1
 p    3 1.00
             7.8682724   0.068999095584993
             1.8812885    0.31642397975315
             0.5442493    0.74430825237435
 p    1 1.00
             0.1687144                   1
 d    1 1.00
                   0.8                   1

40 0
 s    6 1.00
             3047.5249  0.0018347001629433
             457.36951    0.01403730124668
             103.94869   0.068842606114048
             29.210155    0.23218442062076
              9.286663    0.46794134155879
              3.163927    0.36231203217765
 s    3 1.00
             7.8682724   -0.11933240861517
             1.8812885   -0.16085421161283
             0.5442493     1.1434564825515
 s    1 1.00
             0.1687144                   1
 p    3 1.00
             7.8682724   0.068999095584993
             1.8812885    0.31642397975315
             0.5442493    0.74430825237435
 p    1 1.00
             0.1687144                   1
 d    1 1.00
                   0.8                   1

41 0
 s    3 1.00
             18.731137    0.03349459952309
             2.8253937    0.23472694665786
             0.6401217    0.81375731841339
 s    1 1.00
             0.1612778                   1

42 0
 s    6 1.00
             5484.6717   0.001831099805527
             825.23495   0.013950098518422
             188.04696    0.06844509273075
               52.9645    0.23271427528445
              16.89757    0.47019295006289
             5.7996353    0.35852086192309
 s    3 1.00
             15.539616   -0.11077750382508
             3.5999336   -0.14802630511126
             1.0137618     1.1307670390447
 s    1 1.00
             0.2700058                   1
 p    3 1.00
             15.539616   0.070874299543311
             3.5999336    0.33975279781076
             1.0137618    0.72715859531445
 p    1 1.00
             0.2700058                   1
 d    1 1.00
                   0.8                   1

43 0
 s    3 1.00
             18.731137    0.03349459952309
             2.8253937    0.23472694665786
             0.6401217    0.81375731841339
 s    1 1.00
             0.1612778                   1

[5d]
[7f]
[9g]

[MO]
 Sym= A
 Ene=               0
 Spin= Alpha
 Occup=    1.00000
   1    0.0013390872421556
   2      0.13301646278434
   3     0.068889325410706
   4    -0.037180743170794
   5    -0.022440673897468
   6     0.064610756510671
   7    0.0088599012560175
   8    -0.0031592139066387
   9     0.025980064552743
  10    0.0015234157443518
  11    -0.0027117080774883
  12    -0.0021314371973486
  13    0.0033976881854783
  14    0.0027131851339711
  15     0.027923465286988
  16    -0.0020238072988019
  17    -0.0028452295221527
  18     0.018540051757221
  19     0.028753727562732
  20    -0.0039391011625376
  21    -0.0055522686544398
  22     0.026553494363075
  23     0.009298532000494
  24    0.0011430478622965
  25     0.019228267113758
  26    0.0032161756862062
  27    0.0010414715046626
  28    -0.0010857546985078
  29    0.00050790983775193
  30    0.00021410253669817
  31    0.0063010134120385
  32    0.0068577798205304
  33    -0.0067554553246063
  34     0.037881732245234
  35     0.026291878448301
  36    0.0070725135074455
  37    0.0036670613264898
  38    -0.046435263726144
  39    0.0014693457827524
  40    0.0022146219055273
  41    -0.028458541919842
  42    0.0064167473324676
  43    0.0014258456484047
  44    0.0011856826817418
  45    0.00054107384993295
  46    0.00089732894539648
  47     0.010621439463838
  48    0.0038917244073675
  49    0.0016911775624806
  50       0.2693356026554
  51      0.16318052858438
  52     0.067128252561771
  53     0.038145640458808
  54     -0.13880501694278
  55    -0.009170084784678
  56    -0.0069546016577477
  57    -0.044493298279427
  58    0.0044427326225267
  59    -0.005618622318743
  60    -0.0031698848341853
  61    0.0041615035896162
  62    0.0076193131211873
  63     0.058738418725139
  64    -0.0029634928043109
  65    1.6716098714788e-05
  66    8.6625544197903e-06
  67    8.6993412181088e-06
  68    5.5855680789954e-06
  69    -0.00011835526333996
  70    -2.1785425642217e-05
  71    -5.8363708744285e-07
  72    1.2756359872994e-05
  73    6.7520064082042e-05
  74    0.00016969143095591
  75    8.4240283099991e-05
  76    9.9389277550659e-06
  77    4.9441109545142e-06
  78    -4.2070296379948e-06
  79      -3.182210525e-06
  80    4.005145328425e-06
  81    5.7522664156829e-06
  82    0.00014133703694345
  83    -1.1716139677244e-05
  84    5.8521643997693e-05
  85    0.00028579592457796
  86    -4.5733670037848e-05
  87    4.7602058833067e-05
  88    -0.0001186843045097
  89    -0.00012440878223779
  90    -0.00015718381963621
  91    -0.00012300345947743
  92    -3.3470069540272e-06
  93    1.244103947888e-05
  94    2.8339023679974e-06
  95    6.7182993872566e-07
  96    2.5025755275232e-06
  97    2.4469165398749e-05
  98    0.00010422030783789
  99    -4.481995318555e-05
 100    -0.00010625890525012
 101    3.5330791194917e-05
 102    -1.9650066826695e-05
 103    -0.00064374923498915
 104    -6.9713265565967e-05
 105    -0.00012473862838863
 106    0.00015859133554365
 107    0.00084502971177428
 108    -0.00041274122390022
 109    -0.00072287150124538
 110    1.0850758776154e-05
 111    2.6687659480517e-05
 112    -7.5904821488012e-06
 113    -1.9518014078783e-05
 114    1.6438698935881e-05
 115    1.6129698216401e-05
 116    -8.9381521078331e-05
 117    -0.00044666755475156
 118    3.3827825049263e-05
 119    -0.00011991993516417
 120    -1.9960051060923e-05
 121    5.1133861834082e-05
 122    7.1354525955347e-05
 123    -0.00059496933093518
 124    4.1113082367657e-06
 125    1.2156125103486e-05
 126    -1.5187788925565e-05
 127    8.2373047830574e-06
 128    1.0621387303835e-05
 129    -2.0143480107334e-05
 130    0.00021907043126148
 131    -0.0041640069455558
 132    -9.4199368928288e-05
 133    -5.4574328643308e-05
 134    -0.00030988177650279
 135    0.00089241105433815
 136    -0.00052176253848622
 137    0.0039278372871271
 138    -0.00011960319044231
 139    3.6871377917856e-05
 140    2.7094518147087e-05
 141    1.2676520509133e-05
 142    2.0064859122197e-05
 143    1.9903902297669e-05
 144    -5.0550160667735e-05
 145    -0.00035389121452298
 146    4.6887154942665e-06
 147    4.5584548944711e-05
 148    0.00016630165882201
 149    -0.00075619848722511
 150    0.00031968229840302
 151    -0.00064131005630127
 152    2.9882550867789e-05
 153    -1.2618949604028e-05
 154    -8.3701722825432e-06
 155    -1.6829743999292e-05
 156    1.8047314678211e-05
 157    4.9265310372721e-06
 158    3.5161722196039e-05
 159    -0.0003731817212551
 160    1.6179872177967e-05
 161    8.0018567369369e-07
 162    -7.7953717003732e-06
 163    3.2883294305661e-05
 164    0.0002597483321961
 165    7.0841908793064e-05
 166    8.5631770722666e-06
 167    -7.7293582553976e-07
 168    -1.2531006519234e-06
 169    1.7048624571398e-05
 170    -2.6356838361866e-06
 171    -1.0419404568618e-06
 172    -8.8700155051455e-05
 173    0.00019174560034693
 174    -9.4814562833516e-07
 175    8.7489427515053e-06
 176    7.1850461799784e-05
 177    -2.9993330023486e-06
 178    -0.00026662757911437
 179    -0.00013123064269578
 180    4.9073956172202e-06
 181    2.0778457885591e-05
 182    8.3175012732541e-06
 183    8.2666955032139e-06
 184    -5.1098208804322e-06
 185    -4.8342312157211e-06
 186    2.3451066603146e-05
 187    0.00042952877506406
 188    9.4461534438923e-06
 189    -1.4637207401994e-05
 190    -0.00010453289837666
 191    -0.00032769236061813
 192    -8.3297591670542e-05
 193    -0.00013183947672768
 194    5.4878971839226e-06
 195    1.3524102237297e-05
 196    5.7603401057904e-06
 197    -1.489328027838e-06
 198    7.9104617693489e-06
 199    3.3198084965226e-06
 200    0.00011005346727333
 201    -4.7859625512866e-05
 202    -0.00015040151252192
 203    3.4593854296681e-05
 204    0.00026515473240937
 205    -4.3053971836892e-05
 206    -3.1869517102874e-05
 207    5.4642797488223e-05
 208    -0.00038734218638153
 209    3.1596858363659e-05
 210    3.7068033076573e-05
 211    9.7530902331256e-06
 212    -4.3540924307536e-05
 213    -1.3212236097388e-06
 214    -6.3656964466576e-05
 215    1.9648814434532e-05
 216    -0.00046063961848852
 217    4.093588964051e-06
 218    0.0001229684403257
 219    -9.9808534229638e-06
 220    -0.00013690720219797
 221    0.00046446544717275
 222    -0.00086282246722354
 223    0.0064904379048996
 224    -0.00026798628740853
 225    -0.00019762044613614
 226    0.0012204798324695
 227     0.006359753583517
 228    0.00072449206872074
 229     0.003979060701826
 230    4.0722427435526e-05
 231    -4.3937599939475e-05
 232    -4.8462452252115e-05
 233    2.6988157177239e-05
 234    4.8767676791347e-05
 235    -0.0032429107241807
 236     0.016845437447169
 237     0.010982969894362
 238    0.0015798096362204
 239    0.0046477211602451
 240    -0.019879655150776
 241    0.00042089999487357
 242    0.0025770094829685
 243    -0.011271254444565
 244     0.002960088547451
 245    0.0010438124937892
 246    -0.0008410315506462
 247    0.00036559147578169
 248    2.4719247404863e-05
 249    0.00012604397672333
 250    0.0036148909965106
 251    0.0013787415411511
 252      0.13188753580863
 253      0.08816668770858
 254     0.032372188371096
 255     0.022576241570499
 256    -0.068431189018505
 257    -0.0064923481458474
 258    0.0039486212101557
 259    -0.027167729575101
 260    0.0019844868047465
 261    -0.0029209768907662
 262    -0.0023476833702768
 263    0.0034496669445434
 264    0.0027339830713558
 265    0.0039363751701139
 266    0.00055744704492188
 267     0.030389191230071
 268    -0.0013360654646674
 269    0.0031830148745071
 270      0.26366945394527
 271       0.1788044301057
 272    -0.063454601239896
 273     -0.03624163577432
 274      0.13646533182779
 275    0.0059828393193268
 276    0.0046820715160016
 277     0.042954685005797
 278    0.0046730400142062
 279    -0.0062573288161728
 280    -0.003641842239615
 281     0.004148315353071
 282    0.0079119450350958
 283    -0.007994236854059
 284     0.041312538495905