[Molden Format]
made by pyscf v[2.0.1]
[Atoms] (AU)
C   1   6     0.69100024066471     0.64692934207205    -3.48223131169301
H   2   1     2.68052439830868     1.13355088658700    -3.25784032593313
C   3   6    -0.36286361513219     0.85440132524594    -5.97030179418974
H   4   1    -2.35448549047279     0.36322488579172    -6.17995817793143
C   5   6     0.93697958957450     1.61209284601821    -8.05828437677121
H   6   1     0.88481995546627     3.59633991549139    -8.60690604548455
C   7   6     2.39466048338875    -0.07229584893402    -9.60563204708460
H   8   1     2.43004158789144    -2.05446799383120    -9.03164251308345
H   9   1     1.55630230933075    -1.92953025305990    12.99630010416247
C   10   6     0.75233899775814    -2.21270439606481    11.10705728102219
H   11   1    -0.43433408177274    -3.90944857546550    11.22216085340412
C   12   6     2.86362581178706    -2.63237380607947     9.17926416456045
H   13   1     4.39038949912609    -1.24955421540245     9.49899813497433
H   14   1     3.74629220191363    -4.48798724300892     9.47414880959024
C   15   6     2.02478325613682    -2.42177285709634     6.44560829588644
C   16   6     3.88048732735477    -3.58795445234514     4.61402886975252
C   17   6    -0.18412382258602    -1.30464291234259     5.76021113872346
C   18   6    -2.10044360464350    -0.26837831858460     7.71610340967100
C   19   6    -3.08956938670431     2.35282328359417     6.88693925039594
C   20   6    -4.37372924086464    -2.09766595989678     7.93610724222001
C   21   6    -0.83850430601230     0.06372213486173    10.33002307638377
H   22   1     0.38411922151109     1.74281358582432    10.27380136542181
H   23   1    -2.30980003007874     0.45460143924521    11.73986301809809
H   24   1     4.58527064644668    -5.38706904487420     5.36778158031719
H   25   1     5.54944938085014    -2.37631462192748     4.35398898413318
H   26   1     3.06633019150423    -3.94118377050688     2.75255466040884
H   27   1    -4.17727778763735     2.26573369139522     5.12914900961283
H   28   1    -1.52662344944051     3.68001877445626     6.59540397144508
H   29   1    -4.32916174397830     3.13643051467482     8.35225460090378
H   30   1    -5.32329548508442    -2.36691813602939     6.11583672749896
H   31   1    -5.77989366602257    -1.33896741843465     9.25748940450990
H   32   1    -3.79310905208926    -3.96389819310853     8.61386170102686
C   33   6    -1.01100794811226    -1.06331657314144     3.11929490449947
C   34   6     0.37686231036534    -0.33275864505552     1.09165013605873
H   35   1    -3.01671213906703    -1.40297922279997     2.77827895090944
C   36   6    -0.64382707979370    -0.11591880174385    -1.42063131251064
H   37   1     2.35569259782137     0.17174499283897     1.33641070251401
H   38   1    -2.63317482980319    -0.60229203511219    -1.66119700387645
C   39   6     3.71533383510959     0.59576232705089   -11.69997054074953
C   40   6     5.14333780052268    -1.26490852400141   -13.15108433486960
H   41   1     3.75910290759049     2.53760054456126   -12.37459410036833
O   42   8     6.36836167706676    -0.79692659131490   -15.04874962161569
H   43   1     5.04579305514285    -3.22830651971947   -12.39231411193817
[GTO]
1 0
 s    6 1.00
             3047.5249  0.0018347001629433
             457.36951    0.01403730124668
             103.94869   0.068842606114048
             29.210155    0.23218442062076
              9.286663    0.46794134155879
              3.163927    0.36231203217765
 s    3 1.00
             7.8682724   -0.11933240861517
             1.8812885   -0.16085421161283
             0.5442493     1.1434564825515
 s    1 1.00
             0.1687144                   1
 p    3 1.00
             7.8682724   0.068999095584993
             1.8812885    0.31642397975315
             0.5442493    0.74430825237435
 p    1 1.00
             0.1687144                   1
 d    1 1.00
                   0.8                   1

2 0
 s    3 1.00
             18.731137    0.03349459952309
             2.8253937    0.23472694665786
             0.6401217    0.81375731841339
 s    1 1.00
             0.1612778                   1

3 0
 s    6 1.00
             3047.5249  0.0018347001629433
             457.36951    0.01403730124668
             103.94869   0.068842606114048
             29.210155    0.23218442062076
              9.286663    0.46794134155879
              3.163927    0.36231203217765
 s    3 1.00
             7.8682724   -0.11933240861517
             1.8812885   -0.16085421161283
             0.5442493     1.1434564825515
 s    1 1.00
             0.1687144                   1
 p    3 1.00
             7.8682724   0.068999095584993
             1.8812885    0.31642397975315
             0.5442493    0.74430825237435
 p    1 1.00
             0.1687144                   1
 d    1 1.00
                   0.8                   1

4 0
 s    3 1.00
             18.731137    0.03349459952309
             2.8253937    0.23472694665786
             0.6401217    0.81375731841339
 s    1 1.00
             0.1612778                   1

5 0
 s    6 1.00
             3047.5249  0.0018347001629433
             457.36951    0.01403730124668
             103.94869   0.068842606114048
             29.210155    0.23218442062076
              9.286663    0.46794134155879
              3.163927    0.36231203217765
 s    3 1.00
             7.8682724   -0.11933240861517
             1.8812885   -0.16085421161283
             0.5442493     1.1434564825515
 s    1 1.00
             0.1687144                   1
 p    3 1.00
             7.8682724   0.068999095584993
             1.8812885    0.31642397975315
             0.5442493    0.74430825237435
 p    1 1.00
             0.1687144                   1
 d    1 1.00
                   0.8                   1

6 0
 s    3 1.00
             18.731137    0.03349459952309
             2.8253937    0.23472694665786
             0.6401217    0.81375731841339
 s    1 1.00
             0.1612778                   1

7 0
 s    6 1.00
             3047.5249  0.0018347001629433
             457.36951    0.01403730124668
             103.94869   0.068842606114048
             29.210155    0.23218442062076
              9.286663    0.46794134155879
              3.163927    0.36231203217765
 s    3 1.00
             7.8682724   -0.11933240861517
             1.8812885   -0.16085421161283
             0.5442493     1.1434564825515
 s    1 1.00
             0.1687144                   1
 p    3 1.00
             7.8682724   0.068999095584993
             1.8812885    0.31642397975315
             0.5442493    0.74430825237435
 p    1 1.00
             0.1687144                   1
 d    1 1.00
                   0.8                   1

8 0
 s    3 1.00
             18.731137    0.03349459952309
             2.8253937    0.23472694665786
             0.6401217    0.81375731841339
 s    1 1.00
             0.1612778                   1

9 0
 s    3 1.00
             18.731137    0.03349459952309
             2.8253937    0.23472694665786
             0.6401217    0.81375731841339
 s    1 1.00
             0.1612778                   1

10 0
 s    6 1.00
             3047.5249  0.0018347001629433
             457.36951    0.01403730124668
             103.94869   0.068842606114048
             29.210155    0.23218442062076
              9.286663    0.46794134155879
              3.163927    0.36231203217765
 s    3 1.00
             7.8682724   -0.11933240861517
             1.8812885   -0.16085421161283
             0.5442493     1.1434564825515
 s    1 1.00
             0.1687144                   1
 p    3 1.00
             7.8682724   0.068999095584993
             1.8812885    0.31642397975315
             0.5442493    0.74430825237435
 p    1 1.00
             0.1687144                   1
 d    1 1.00
                   0.8                   1

11 0
 s    3 1.00
             18.731137    0.03349459952309
             2.8253937    0.23472694665786
             0.6401217    0.81375731841339
 s    1 1.00
             0.1612778                   1

12 0
 s    6 1.00
             3047.5249  0.0018347001629433
             457.36951    0.01403730124668
             103.94869   0.068842606114048
             29.210155    0.23218442062076
              9.286663    0.46794134155879
              3.163927    0.36231203217765
 s    3 1.00
             7.8682724   -0.11933240861517
             1.8812885   -0.16085421161283
             0.5442493     1.1434564825515
 s    1 1.00
             0.1687144                   1
 p    3 1.00
             7.8682724   0.068999095584993
             1.8812885    0.31642397975315
             0.5442493    0.74430825237435
 p    1 1.00
             0.1687144                   1
 d    1 1.00
                   0.8                   1

13 0
 s    3 1.00
             18.731137    0.03349459952309
             2.8253937    0.23472694665786
             0.6401217    0.81375731841339
 s    1 1.00
             0.1612778                   1

14 0
 s    3 1.00
             18.731137    0.03349459952309
             2.8253937    0.23472694665786
             0.6401217    0.81375731841339
 s    1 1.00
             0.1612778                   1

15 0
 s    6 1.00
             3047.5249  0.0018347001629433
             457.36951    0.01403730124668
             103.94869   0.068842606114048
             29.210155    0.23218442062076
              9.286663    0.46794134155879
              3.163927    0.36231203217765
 s    3 1.00
             7.8682724   -0.11933240861517
             1.8812885   -0.16085421161283
             0.5442493     1.1434564825515
 s    1 1.00
             0.1687144                   1
 p    3 1.00
             7.8682724   0.068999095584993
             1.8812885    0.31642397975315
             0.5442493    0.74430825237435
 p    1 1.00
             0.1687144                   1
 d    1 1.00
                   0.8                   1

16 0
 s    6 1.00
             3047.5249  0.0018347001629433
             457.36951    0.01403730124668
             103.94869   0.068842606114048
             29.210155    0.23218442062076
              9.286663    0.46794134155879
              3.163927    0.36231203217765
 s    3 1.00
             7.8682724   -0.11933240861517
             1.8812885   -0.16085421161283
             0.5442493     1.1434564825515
 s    1 1.00
             0.1687144                   1
 p    3 1.00
             7.8682724   0.068999095584993
             1.8812885    0.31642397975315
             0.5442493    0.74430825237435
 p    1 1.00
             0.1687144                   1
 d    1 1.00
                   0.8                   1

17 0
 s    6 1.00
             3047.5249  0.0018347001629433
             457.36951    0.01403730124668
             103.94869   0.068842606114048
             29.210155    0.23218442062076
              9.286663    0.46794134155879
              3.163927    0.36231203217765
 s    3 1.00
             7.8682724   -0.11933240861517
             1.8812885   -0.16085421161283
             0.5442493     1.1434564825515
 s    1 1.00
             0.1687144                   1
 p    3 1.00
             7.8682724   0.068999095584993
             1.8812885    0.31642397975315
             0.5442493    0.74430825237435
 p    1 1.00
             0.1687144                   1
 d    1 1.00
                   0.8                   1

18 0
 s    6 1.00
             3047.5249  0.0018347001629433
             457.36951    0.01403730124668
             103.94869   0.068842606114048
             29.210155    0.23218442062076
              9.286663    0.46794134155879
              3.163927    0.36231203217765
 s    3 1.00
             7.8682724   -0.11933240861517
             1.8812885   -0.16085421161283
             0.5442493     1.1434564825515
 s    1 1.00
             0.1687144                   1
 p    3 1.00
             7.8682724   0.068999095584993
             1.8812885    0.31642397975315
             0.5442493    0.74430825237435
 p    1 1.00
             0.1687144                   1
 d    1 1.00
                   0.8                   1

19 0
 s    6 1.00
             3047.5249  0.0018347001629433
             457.36951    0.01403730124668
             103.94869   0.068842606114048
             29.210155    0.23218442062076
              9.286663    0.46794134155879
              3.163927    0.36231203217765
 s    3 1.00
             7.8682724   -0.11933240861517
             1.8812885   -0.16085421161283
             0.5442493     1.1434564825515
 s    1 1.00
             0.1687144                   1
 p    3 1.00
             7.8682724   0.068999095584993
             1.8812885    0.31642397975315
             0.5442493    0.74430825237435
 p    1 1.00
             0.1687144                   1
 d    1 1.00
                   0.8                   1

20 0
 s    6 1.00
             3047.5249  0.0018347001629433
             457.36951    0.01403730124668
             103.94869   0.068842606114048
             29.210155    0.23218442062076
              9.286663    0.46794134155879
              3.163927    0.36231203217765
 s    3 1.00
             7.8682724   -0.11933240861517
             1.8812885   -0.16085421161283
             0.5442493     1.1434564825515
 s    1 1.00
             0.1687144                   1
 p    3 1.00
             7.8682724   0.068999095584993
             1.8812885    0.31642397975315
             0.5442493    0.74430825237435
 p    1 1.00
             0.1687144                   1
 d    1 1.00
                   0.8                   1

21 0
 s    6 1.00
             3047.5249  0.0018347001629433
             457.36951    0.01403730124668
             103.94869   0.068842606114048
             29.210155    0.23218442062076
              9.286663    0.46794134155879
              3.163927    0.36231203217765
 s    3 1.00
             7.8682724   -0.11933240861517
             1.8812885   -0.16085421161283
             0.5442493     1.1434564825515
 s    1 1.00
             0.1687144                   1
 p    3 1.00
             7.8682724   0.068999095584993
             1.8812885    0.31642397975315
             0.5442493    0.74430825237435
 p    1 1.00
             0.1687144                   1
 d    1 1.00
                   0.8                   1

22 0
 s    3 1.00
             18.731137    0.03349459952309
             2.8253937    0.23472694665786
             0.6401217    0.81375731841339
 s    1 1.00
             0.1612778                   1

23 0
 s    3 1.00
             18.731137    0.03349459952309
             2.8253937    0.23472694665786
             0.6401217    0.81375731841339
 s    1 1.00
             0.1612778                   1

24 0
 s    3 1.00
             18.731137    0.03349459952309
             2.8253937    0.23472694665786
             0.6401217    0.81375731841339
 s    1 1.00
             0.1612778                   1

25 0
 s    3 1.00
             18.731137    0.03349459952309
             2.8253937    0.23472694665786
             0.6401217    0.81375731841339
 s    1 1.00
             0.1612778                   1

26 0
 s    3 1.00
             18.731137    0.03349459952309
             2.8253937    0.23472694665786
             0.6401217    0.81375731841339
 s    1 1.00
             0.1612778                   1

27 0
 s    3 1.00
             18.731137    0.03349459952309
             2.8253937    0.23472694665786
             0.6401217    0.81375731841339
 s    1 1.00
             0.1612778                   1

28 0
 s    3 1.00
             18.731137    0.03349459952309
             2.8253937    0.23472694665786
             0.6401217    0.81375731841339
 s    1 1.00
             0.1612778                   1

29 0
 s    3 1.00
             18.731137    0.03349459952309
             2.8253937    0.23472694665786
             0.6401217    0.81375731841339
 s    1 1.00
             0.1612778                   1

30 0
 s    3 1.00
             18.731137    0.03349459952309
             2.8253937    0.23472694665786
             0.6401217    0.81375731841339
 s    1 1.00
             0.1612778                   1

31 0
 s    3 1.00
             18.731137    0.03349459952309
             2.8253937    0.23472694665786
             0.6401217    0.81375731841339
 s    1 1.00
             0.1612778                   1

32 0
 s    3 1.00
             18.731137    0.03349459952309
             2.8253937    0.23472694665786
             0.6401217    0.81375731841339
 s    1 1.00
             0.1612778                   1

33 0
 s    6 1.00
             3047.5249  0.0018347001629433
             457.36951    0.01403730124668
             103.94869   0.068842606114048
             29.210155    0.23218442062076
              9.286663    0.46794134155879
              3.163927    0.36231203217765
 s    3 1.00
             7.8682724   -0.11933240861517
             1.8812885   -0.16085421161283
             0.5442493     1.1434564825515
 s    1 1.00
             0.1687144                   1
 p    3 1.00
             7.8682724   0.068999095584993
             1.8812885    0.31642397975315
             0.5442493    0.74430825237435
 p    1 1.00
             0.1687144                   1
 d    1 1.00
                   0.8                   1

34 0
 s    6 1.00
             3047.5249  0.0018347001629433
             457.36951    0.01403730124668
             103.94869   0.068842606114048
             29.210155    0.23218442062076
              9.286663    0.46794134155879
              3.163927    0.36231203217765
 s    3 1.00
             7.8682724   -0.11933240861517
             1.8812885   -0.16085421161283
             0.5442493     1.1434564825515
 s    1 1.00
             0.1687144                   1
 p    3 1.00
             7.8682724   0.068999095584993
             1.8812885    0.31642397975315
             0.5442493    0.74430825237435
 p    1 1.00
             0.1687144                   1
 d    1 1.00
                   0.8                   1

35 0
 s    3 1.00
             18.731137    0.03349459952309
             2.8253937    0.23472694665786
             0.6401217    0.81375731841339
 s    1 1.00
             0.1612778                   1

36 0
 s    6 1.00
             3047.5249  0.0018347001629433
             457.36951    0.01403730124668
             103.94869   0.068842606114048
             29.210155    0.23218442062076
              9.286663    0.46794134155879
              3.163927    0.36231203217765
 s    3 1.00
             7.8682724   -0.11933240861517
             1.8812885   -0.16085421161283
             0.5442493     1.1434564825515
 s    1 1.00
             0.1687144                   1
 p    3 1.00
             7.8682724   0.068999095584993
             1.8812885    0.31642397975315
             0.5442493    0.74430825237435
 p    1 1.00
             0.1687144                   1
 d    1 1.00
                   0.8                   1

37 0
 s    3 1.00
             18.731137    0.03349459952309
             2.8253937    0.23472694665786
             0.6401217    0.81375731841339
 s    1 1.00
             0.1612778                   1

38 0
 s    3 1.00
             18.731137    0.03349459952309
             2.8253937    0.23472694665786
             0.6401217    0.81375731841339
 s    1 1.00
             0.1612778                   1

39 0
 s    6 1.00
             3047.5249  0.0018347001629433
             457.36951    0.01403730124668
             103.94869   0.068842606114048
             29.210155    0.23218442062076
              9.286663    0.46794134155879
              3.163927    0.36231203217765
 s    3 1.00
             7.8682724   -0.11933240861517
             1.8812885   -0.16085421161283
             0.5442493     1.1434564825515
 s    1 1.00
             0.1687144                   1
 p    3 1.00
             7.8682724   0.068999095584993
             1.8812885    0.31642397975315
             0.5442493    0.74430825237435
 p    1 1.00
             0.1687144                   1
 d    1 1.00
                   0.8                   1

40 0
 s    6 1.00
             3047.5249  0.0018347001629433
             457.36951    0.01403730124668
             103.94869   0.068842606114048
             29.210155    0.23218442062076
              9.286663    0.46794134155879
              3.163927    0.36231203217765
 s    3 1.00
             7.8682724   -0.11933240861517
             1.8812885   -0.16085421161283
             0.5442493     1.1434564825515
 s    1 1.00
             0.1687144                   1
 p    3 1.00
             7.8682724   0.068999095584993
             1.8812885    0.31642397975315
             0.5442493    0.74430825237435
 p    1 1.00
             0.1687144                   1
 d    1 1.00
                   0.8                   1

41 0
 s    3 1.00
             18.731137    0.03349459952309
             2.8253937    0.23472694665786
             0.6401217    0.81375731841339
 s    1 1.00
             0.1612778                   1

42 0
 s    6 1.00
             5484.6717   0.001831099805527
             825.23495   0.013950098518422
             188.04696    0.06844509273075
               52.9645    0.23271427528445
              16.89757    0.47019295006289
             5.7996353    0.35852086192309
 s    3 1.00
             15.539616   -0.11077750382508
             3.5999336   -0.14802630511126
             1.0137618     1.1307670390447
 s    1 1.00
             0.2700058                   1
 p    3 1.00
             15.539616   0.070874299543311
             3.5999336    0.33975279781076
             1.0137618    0.72715859531445
 p    1 1.00
             0.2700058                   1
 d    1 1.00
                   0.8                   1

43 0
 s    3 1.00
             18.731137    0.03349459952309
             2.8253937    0.23472694665786
             0.6401217    0.81375731841339
 s    1 1.00
             0.1612778                   1

[5d]
[7f]
[9g]

[MO]
 Sym= A
 Ene=               0
 Spin= Alpha
 Occup=    1.00000
   1    0.0030681732198982
   2      0.29822102767235
   3      0.19653023017863
   4    -0.076491291882448
   5    -0.048398732385684
   6      0.14701995897911
   7     0.010794069193146
   8    -0.0065073441256853
   9     0.048757326941552
  10    0.0047395880979744
  11    -0.0064704229373759
  12    -0.0053579356570555
  13    0.0078253419248389
  14    0.0058816028111861
  15     0.066438574371657
  16    -0.0022396377220245
  17    -0.0087490101519567
  18      0.04654005033101
  19     0.021567946217137
  20    -0.0062238949664955
  21    -0.011179527149047
  22     0.052868396955216
  23    -0.011631511555811
  24    -0.0071936417285533
  25     0.025615184779123
  26    0.0064013192712782
  27    0.0028525548753178
  28    -0.001789353487283
  29    0.00086380466213943
  30    2.7333223822969e-05
  31     0.012869887707432
  32    -0.00018457135912751
  33    0.0011077143831656
  34    -0.00095826306128725
  35     0.017219987971217
  36    0.0018945668577255
  37    0.00087341267825139
  38    -0.0069812155380512
  39    -0.0060668399944933
  40    -0.0050433817500315
  41    0.0016576389131995
  42    4.2518563173634e-06
  43    -0.00079025360637779
  44    0.00020429366359891
  45    2.8503615865136e-05
  46    -0.00016105706250469
  47     0.001024315357733
  48    0.0019075884944262
  49    -0.0004730141543953
  50       0.0214281088506
  51     0.014393800822989
  52    0.0069197899130381
  53    0.00041893714311393
  54    -0.0099175832185275
  55    0.0059615969765933
  56    -0.0013750698029685
  57    -0.0056580434750886
  58    0.00016528680248807
  59    -0.00061247428266232
  60    -0.00059214301854895
  61    -0.00037101023973784
  62    0.00015550681416913
  63    0.0060059130029955
  64    0.0015840827060803
  65    4.6031233882093e-05
  66    6.7110986526352e-05
  67    2.1639569605641e-05
  68    6.6357113454972e-06
  69    -0.00039892636983194
  70    -7.3137141645993e-05
  71    1.9187531318877e-05
  72    4.5725430711648e-05
  73    0.00017873175718609
  74    0.00047322914565685
  75    0.00019462709572572
  76    2.7608661861881e-05
  77    1.7456350046029e-05
  78    -1.2157952787779e-05
  79    -6.520311184307e-06
  80    1.3734151884004e-05
  81    1.5487951371908e-05
  82    0.00039355819560294
  83    -1.2806226961599e-05
  84    0.00013697951937299
  85    0.0010665140253933
  86    -8.6358298404205e-05
  87    0.00014175648345732
  88    -0.000264760989744
  89    -0.00038831870961182
  90    -0.00045716622870156
  91    -0.00040075363840434
  92    -1.4869199746741e-05
  93    4.5641179375207e-05
  94    1.2806706752024e-05
  95    3.507043215266e-06
  96    1.2021461312513e-05
  97    0.0001096342596131
  98    0.00038548067212247
  99    -0.00013765978954887
 100    -0.00030708717073792
 101    4.0228911077646e-05
 102    2.0511190773084e-05
 103    -0.00073312536317895
 104    -0.00044127145880976
 105    -0.00041380133819495
 106    0.0003575694507873
 107    0.0023837274044211
 108    -0.0012862461203522
 109    -0.0031627352990932
 110    3.7667455701054e-05
 111    8.6476629572293e-05
 112    -3.1479481841987e-05
 113    -5.4682776252985e-05
 114    4.0002718366658e-05
 115    8.3898268162075e-05
 116    -0.0001667819698257
 117    -0.0023139317966095
 118    0.00012275894804131
 119    -0.00034445041746649
 120    -1.1228098250657e-05
 121    0.00054528768655283
 122    -0.00024984389811299
 123    -0.0015993519980235
 124    1.2759240131214e-05
 125    3.1274219452596e-05
 126    -6.4440780077075e-05
 127    1.2299822558006e-05
 128    3.2380262830455e-05
 129    -1.5508659402979e-05
 130    0.00077984237926237
 131    -0.011370896840893
 132    -0.0002091824825305
 133    -0.0002283332732549
 134    -0.0007812207389834
 135    0.0014774987026966
 136    -0.0012686536528211
 137     0.012548034167352
 138    -0.00040777392964058
 139    9.6489124305478e-05
 140    7.2129632918801e-05
 141    3.3191891978609e-05
 142    5.1009628939785e-05
 143    0.00010799101326975
 144    -0.00010529796516614
 145    -0.0025691871938291
 146    -6.8006612781762e-05
 147    0.00017185540910242
 148    0.00058526632484952
 149    -0.0028990989578289
 150    0.0016243597752903
 151    -0.0018363557870118
 152    0.00010194200528001
 153    -2.0525276703589e-05
 154    -3.8130309816882e-05
 155    -6.4054145186565e-05
 156    5.9223251166413e-05
 157    3.7954819227646e-05
 158    0.00011383811197499
 159    -0.0016082414946417
 160    6.2993674599979e-05
 161    1.6734500624926e-05
 162    2.6141351681453e-05
 163    0.00016193179299222
 164    0.00086960732556567
 165    0.00025458316802094
 166    2.8602573912645e-05
 167    -8.2881031236878e-06
 168    3.0110278159977e-06
 169    5.1749284900639e-05
 170    -7.1333295977881e-06
 171    1.5340970740655e-05
 172    -0.00022994502888238
 173    0.00025898533482527
 174    -2.2094504211682e-05
 175    1.753255992601e-05
 176    0.00026636428790586
 177    0.00035569286842741
 178    -0.00071413456753293
 179    -8.9330931249962e-05
 180    5.1988602705411e-06
 181    6.0067955500062e-05
 182    2.1764453799608e-05
 183    3.2400843956779e-05
 184    -8.3952762610431e-06
 185    -2.7053193784989e-05
 186    7.9694835883015e-05
 187    0.0017294975189665
 188    -5.8815471247037e-06
 189    -5.9784150744064e-05
 190    -0.00036229936519397
 191    -0.001018610290628
 192    -0.0003788222255323
 193    -0.00055355278614984
 194    1.584251569286e-05
 195    5.0113951027981e-05
 196    2.0949135076985e-05
 197    -7.7641967321168e-06
 198    2.6221081578915e-05
 199    1.3102414353882e-05
 200    0.00034001426328841
 201    -0.00016538290766804
 202    -0.00059403905174485
 203    0.00012704107449149
 204    0.00057487946445923
 205    -8.8222082271927e-05
 206    8.3481026833723e-05
 207    0.00012385796683033
 208    -0.00093633700581647
 209    7.0727105745029e-05
 210    0.00026099180412046
 211    2.7750127971597e-05
 212    -7.8822628275948e-05
 213    2.6388765947027e-05
 214    -0.00013093507806985
 215    -1.8561409317396e-05
 216    -0.00060084926463718
 217    3.5914067138962e-05
 218    0.00035747802073075
 219    -1.1134986272642e-05
 220    -0.00041846960767736
 221    0.0012730268789259
 222    -0.0029563345844825
 223     0.023030148667549
 224    -0.0018258568077146
 225    -0.00017403318902416
 226    0.0032664511776112
 227     0.016228840346181
 228    0.0027463290293111
 229    0.0091408908690852
 230    0.00024472830814837
 231    -0.00016054461869008
 232    -0.00018130527481982
 233    0.00010938760633967
 234    0.00014536546150986
 235    -0.0082478716820246
 236     0.043706672175155
 237     0.019724170858888
 238    0.0064904165538287
 239     0.011231946800962
 240    -0.048769114562413
 241     0.007688369578165
 242     0.007558390745602
 243    -0.028703705633857
 244    0.0065255659185641
 245    0.0024422297533665
 246    -0.0017462157491095
 247    0.00097008172335884
 248    0.0001457526837214
 249    0.00077482787238009
 250    0.0081731196328112
 251    0.0015400672954278
 252      0.29691277132779
 253      0.18549956424016
 254     0.079592205557575
 255     0.049826270344391
 256     -0.14946326093531
 257    -0.012418073060603
 258    0.0045899618323892
 259    -0.045694303435282
 260    0.0043422040980796
 261    -0.0063357530055698
 262    -0.0054030350671845
 263    0.0074885929633034
 264    0.0061404935500169
 265     0.012201447739726
 266    0.0019102605828874
 267     0.064341409601659
 268    -0.003787361767944
 269    0.0011632837513648
 270     0.022741434056475
 271    0.0099733205255975
 272    -0.0044355075486915
 273    -0.0041607894785934
 274    0.0083890201229293
 275    -0.0011755551888942
 276     0.003728227875975
 277    0.00094510112151278
 278    0.00020208944659883
 279    -0.00075286865253634
 280    -0.00047117992839975
 281    -0.00032944185335552
 282    7.1354833437235e-05
 283    -0.0012734269700457
 284      0.00593637115783