[Molden Format]
made by pyscf v[2.0.1]
[Atoms] (AU)
C   1   6     0.69100024066471     0.64692934207205    -3.48223131169301
H   2   1     2.68052439830868     1.13355088658700    -3.25784032593313
C   3   6    -0.36286361513219     0.85440132524594    -5.97030179418974
H   4   1    -2.35448549047279     0.36322488579172    -6.17995817793143
C   5   6     0.93697958957450     1.61209284601821    -8.05828437677121
H   6   1     0.73648971111668     3.55370010139060    -8.71472010856714
C   7   6     2.58127687438623    -0.01872844577485    -9.47001807350619
H   8   1     2.76404479428938    -1.95840164828389    -8.78885291415754
H   9   1     1.55630230933075    -1.92953025305990    12.99630010416247
C   10   6     0.75233899775814    -2.21270439606481    11.10705728102219
H   11   1    -0.43433408177274    -3.90944857546550    11.22216085340412
C   12   6     2.86362581178706    -2.63237380607947     9.17926416456045
H   13   1     4.39038949912609    -1.24955421540245     9.49899813497433
H   14   1     3.74629220191363    -4.48798724300892     9.47414880959024
C   15   6     2.02478325613682    -2.42177285709634     6.44560829588644
C   16   6     3.88048732735477    -3.58795445234514     4.61402886975252
C   17   6    -0.18412382258602    -1.30464291234259     5.76021113872346
C   18   6    -2.10044360464350    -0.26837831858460     7.71610340967100
C   19   6    -3.08956938670431     2.35282328359417     6.88693925039594
C   20   6    -4.37372924086464    -2.09766595989678     7.93610724222001
C   21   6    -0.83850430601230     0.06372213486173    10.33002307638377
H   22   1     0.38411922151109     1.74281358582432    10.27380136542181
H   23   1    -2.30980003007874     0.45460143924521    11.73986301809809
H   24   1     4.58527064644668    -5.38706904487420     5.36778158031719
H   25   1     5.54944938085014    -2.37631462192748     4.35398898413318
H   26   1     3.06633019150423    -3.94118377050688     2.75255466040884
H   27   1    -4.17727778763735     2.26573369139522     5.12914900961283
H   28   1    -1.52662344944051     3.68001877445626     6.59540397144508
H   29   1    -4.32916174397830     3.13643051467482     8.35225460090378
H   30   1    -5.32329548508442    -2.36691813602939     6.11583672749896
H   31   1    -5.77989366602257    -1.33896741843465     9.25748940450990
H   32   1    -3.79310905208926    -3.96389819310853     8.61386170102686
C   33   6    -1.01100794811226    -1.06331657314144     3.11929490449947
C   34   6     0.37686231036534    -0.33275864505552     1.09165013605873
H   35   1    -3.01671213906703    -1.40297922279997     2.77827895090944
C   36   6    -0.64382707979370    -0.11591880174385    -1.42063131251064
H   37   1     2.35569259782137     0.17174499283897     1.33641070251401
H   38   1    -2.63317482980319    -0.60229203511219    -1.66119700387645
C   39   6     3.90960344721415     0.65123442372143   -11.55890098643101
C   40   6     5.53597339482346    -1.15257329589011   -12.86589030877460
H   41   1     3.81237322709460     2.55237110239842   -12.33607146621226
O   42   8     6.77935136485374    -0.67974925370394   -14.75037240649433
H   43   1     5.57867975922019    -3.07543379045103   -12.00509846248917
[GTO]
1 0
 s    6 1.00
             3047.5249  0.0018347001629433
             457.36951    0.01403730124668
             103.94869   0.068842606114048
             29.210155    0.23218442062076
              9.286663    0.46794134155879
              3.163927    0.36231203217765
 s    3 1.00
             7.8682724   -0.11933240861517
             1.8812885   -0.16085421161283
             0.5442493     1.1434564825515
 s    1 1.00
             0.1687144                   1
 p    3 1.00
             7.8682724   0.068999095584993
             1.8812885    0.31642397975315
             0.5442493    0.74430825237435
 p    1 1.00
             0.1687144                   1
 d    1 1.00
                   0.8                   1

2 0
 s    3 1.00
             18.731137    0.03349459952309
             2.8253937    0.23472694665786
             0.6401217    0.81375731841339
 s    1 1.00
             0.1612778                   1

3 0
 s    6 1.00
             3047.5249  0.0018347001629433
             457.36951    0.01403730124668
             103.94869   0.068842606114048
             29.210155    0.23218442062076
              9.286663    0.46794134155879
              3.163927    0.36231203217765
 s    3 1.00
             7.8682724   -0.11933240861517
             1.8812885   -0.16085421161283
             0.5442493     1.1434564825515
 s    1 1.00
             0.1687144                   1
 p    3 1.00
             7.8682724   0.068999095584993
             1.8812885    0.31642397975315
             0.5442493    0.74430825237435
 p    1 1.00
             0.1687144                   1
 d    1 1.00
                   0.8                   1

4 0
 s    3 1.00
             18.731137    0.03349459952309
             2.8253937    0.23472694665786
             0.6401217    0.81375731841339
 s    1 1.00
             0.1612778                   1

5 0
 s    6 1.00
             3047.5249  0.0018347001629433
             457.36951    0.01403730124668
             103.94869   0.068842606114048
             29.210155    0.23218442062076
              9.286663    0.46794134155879
              3.163927    0.36231203217765
 s    3 1.00
             7.8682724   -0.11933240861517
             1.8812885   -0.16085421161283
             0.5442493     1.1434564825515
 s    1 1.00
             0.1687144                   1
 p    3 1.00
             7.8682724   0.068999095584993
             1.8812885    0.31642397975315
             0.5442493    0.74430825237435
 p    1 1.00
             0.1687144                   1
 d    1 1.00
                   0.8                   1

6 0
 s    3 1.00
             18.731137    0.03349459952309
             2.8253937    0.23472694665786
             0.6401217    0.81375731841339
 s    1 1.00
             0.1612778                   1

7 0
 s    6 1.00
             3047.5249  0.0018347001629433
             457.36951    0.01403730124668
             103.94869   0.068842606114048
             29.210155    0.23218442062076
              9.286663    0.46794134155879
              3.163927    0.36231203217765
 s    3 1.00
             7.8682724   -0.11933240861517
             1.8812885   -0.16085421161283
             0.5442493     1.1434564825515
 s    1 1.00
             0.1687144                   1
 p    3 1.00
             7.8682724   0.068999095584993
             1.8812885    0.31642397975315
             0.5442493    0.74430825237435
 p    1 1.00
             0.1687144                   1
 d    1 1.00
                   0.8                   1

8 0
 s    3 1.00
             18.731137    0.03349459952309
             2.8253937    0.23472694665786
             0.6401217    0.81375731841339
 s    1 1.00
             0.1612778                   1

9 0
 s    3 1.00
             18.731137    0.03349459952309
             2.8253937    0.23472694665786
             0.6401217    0.81375731841339
 s    1 1.00
             0.1612778                   1

10 0
 s    6 1.00
             3047.5249  0.0018347001629433
             457.36951    0.01403730124668
             103.94869   0.068842606114048
             29.210155    0.23218442062076
              9.286663    0.46794134155879
              3.163927    0.36231203217765
 s    3 1.00
             7.8682724   -0.11933240861517
             1.8812885   -0.16085421161283
             0.5442493     1.1434564825515
 s    1 1.00
             0.1687144                   1
 p    3 1.00
             7.8682724   0.068999095584993
             1.8812885    0.31642397975315
             0.5442493    0.74430825237435
 p    1 1.00
             0.1687144                   1
 d    1 1.00
                   0.8                   1

11 0
 s    3 1.00
             18.731137    0.03349459952309
             2.8253937    0.23472694665786
             0.6401217    0.81375731841339
 s    1 1.00
             0.1612778                   1

12 0
 s    6 1.00
             3047.5249  0.0018347001629433
             457.36951    0.01403730124668
             103.94869   0.068842606114048
             29.210155    0.23218442062076
              9.286663    0.46794134155879
              3.163927    0.36231203217765
 s    3 1.00
             7.8682724   -0.11933240861517
             1.8812885   -0.16085421161283
             0.5442493     1.1434564825515
 s    1 1.00
             0.1687144                   1
 p    3 1.00
             7.8682724   0.068999095584993
             1.8812885    0.31642397975315
             0.5442493    0.74430825237435
 p    1 1.00
             0.1687144                   1
 d    1 1.00
                   0.8                   1

13 0
 s    3 1.00
             18.731137    0.03349459952309
             2.8253937    0.23472694665786
             0.6401217    0.81375731841339
 s    1 1.00
             0.1612778                   1

14 0
 s    3 1.00
             18.731137    0.03349459952309
             2.8253937    0.23472694665786
             0.6401217    0.81375731841339
 s    1 1.00
             0.1612778                   1

15 0
 s    6 1.00
             3047.5249  0.0018347001629433
             457.36951    0.01403730124668
             103.94869   0.068842606114048
             29.210155    0.23218442062076
              9.286663    0.46794134155879
              3.163927    0.36231203217765
 s    3 1.00
             7.8682724   -0.11933240861517
             1.8812885   -0.16085421161283
             0.5442493     1.1434564825515
 s    1 1.00
             0.1687144                   1
 p    3 1.00
             7.8682724   0.068999095584993
             1.8812885    0.31642397975315
             0.5442493    0.74430825237435
 p    1 1.00
             0.1687144                   1
 d    1 1.00
                   0.8                   1

16 0
 s    6 1.00
             3047.5249  0.0018347001629433
             457.36951    0.01403730124668
             103.94869   0.068842606114048
             29.210155    0.23218442062076
              9.286663    0.46794134155879
              3.163927    0.36231203217765
 s    3 1.00
             7.8682724   -0.11933240861517
             1.8812885   -0.16085421161283
             0.5442493     1.1434564825515
 s    1 1.00
             0.1687144                   1
 p    3 1.00
             7.8682724   0.068999095584993
             1.8812885    0.31642397975315
             0.5442493    0.74430825237435
 p    1 1.00
             0.1687144                   1
 d    1 1.00
                   0.8                   1

17 0
 s    6 1.00
             3047.5249  0.0018347001629433
             457.36951    0.01403730124668
             103.94869   0.068842606114048
             29.210155    0.23218442062076
              9.286663    0.46794134155879
              3.163927    0.36231203217765
 s    3 1.00
             7.8682724   -0.11933240861517
             1.8812885   -0.16085421161283
             0.5442493     1.1434564825515
 s    1 1.00
             0.1687144                   1
 p    3 1.00
             7.8682724   0.068999095584993
             1.8812885    0.31642397975315
             0.5442493    0.74430825237435
 p    1 1.00
             0.1687144                   1
 d    1 1.00
                   0.8                   1

18 0
 s    6 1.00
             3047.5249  0.0018347001629433
             457.36951    0.01403730124668
             103.94869   0.068842606114048
             29.210155    0.23218442062076
              9.286663    0.46794134155879
              3.163927    0.36231203217765
 s    3 1.00
             7.8682724   -0.11933240861517
             1.8812885   -0.16085421161283
             0.5442493     1.1434564825515
 s    1 1.00
             0.1687144                   1
 p    3 1.00
             7.8682724   0.068999095584993
             1.8812885    0.31642397975315
             0.5442493    0.74430825237435
 p    1 1.00
             0.1687144                   1
 d    1 1.00
                   0.8                   1

19 0
 s    6 1.00
             3047.5249  0.0018347001629433
             457.36951    0.01403730124668
             103.94869   0.068842606114048
             29.210155    0.23218442062076
              9.286663    0.46794134155879
              3.163927    0.36231203217765
 s    3 1.00
             7.8682724   -0.11933240861517
             1.8812885   -0.16085421161283
             0.5442493     1.1434564825515
 s    1 1.00
             0.1687144                   1
 p    3 1.00
             7.8682724   0.068999095584993
             1.8812885    0.31642397975315
             0.5442493    0.74430825237435
 p    1 1.00
             0.1687144                   1
 d    1 1.00
                   0.8                   1

20 0
 s    6 1.00
             3047.5249  0.0018347001629433
             457.36951    0.01403730124668
             103.94869   0.068842606114048
             29.210155    0.23218442062076
              9.286663    0.46794134155879
              3.163927    0.36231203217765
 s    3 1.00
             7.8682724   -0.11933240861517
             1.8812885   -0.16085421161283
             0.5442493     1.1434564825515
 s    1 1.00
             0.1687144                   1
 p    3 1.00
             7.8682724   0.068999095584993
             1.8812885    0.31642397975315
             0.5442493    0.74430825237435
 p    1 1.00
             0.1687144                   1
 d    1 1.00
                   0.8                   1

21 0
 s    6 1.00
             3047.5249  0.0018347001629433
             457.36951    0.01403730124668
             103.94869   0.068842606114048
             29.210155    0.23218442062076
              9.286663    0.46794134155879
              3.163927    0.36231203217765
 s    3 1.00
             7.8682724   -0.11933240861517
             1.8812885   -0.16085421161283
             0.5442493     1.1434564825515
 s    1 1.00
             0.1687144                   1
 p    3 1.00
             7.8682724   0.068999095584993
             1.8812885    0.31642397975315
             0.5442493    0.74430825237435
 p    1 1.00
             0.1687144                   1
 d    1 1.00
                   0.8                   1

22 0
 s    3 1.00
             18.731137    0.03349459952309
             2.8253937    0.23472694665786
             0.6401217    0.81375731841339
 s    1 1.00
             0.1612778                   1

23 0
 s    3 1.00
             18.731137    0.03349459952309
             2.8253937    0.23472694665786
             0.6401217    0.81375731841339
 s    1 1.00
             0.1612778                   1

24 0
 s    3 1.00
             18.731137    0.03349459952309
             2.8253937    0.23472694665786
             0.6401217    0.81375731841339
 s    1 1.00
             0.1612778                   1

25 0
 s    3 1.00
             18.731137    0.03349459952309
             2.8253937    0.23472694665786
             0.6401217    0.81375731841339
 s    1 1.00
             0.1612778                   1

26 0
 s    3 1.00
             18.731137    0.03349459952309
             2.8253937    0.23472694665786
             0.6401217    0.81375731841339
 s    1 1.00
             0.1612778                   1

27 0
 s    3 1.00
             18.731137    0.03349459952309
             2.8253937    0.23472694665786
             0.6401217    0.81375731841339
 s    1 1.00
             0.1612778                   1

28 0
 s    3 1.00
             18.731137    0.03349459952309
             2.8253937    0.23472694665786
             0.6401217    0.81375731841339
 s    1 1.00
             0.1612778                   1

29 0
 s    3 1.00
             18.731137    0.03349459952309
             2.8253937    0.23472694665786
             0.6401217    0.81375731841339
 s    1 1.00
             0.1612778                   1

30 0
 s    3 1.00
             18.731137    0.03349459952309
             2.8253937    0.23472694665786
             0.6401217    0.81375731841339
 s    1 1.00
             0.1612778                   1

31 0
 s    3 1.00
             18.731137    0.03349459952309
             2.8253937    0.23472694665786
             0.6401217    0.81375731841339
 s    1 1.00
             0.1612778                   1

32 0
 s    3 1.00
             18.731137    0.03349459952309
             2.8253937    0.23472694665786
             0.6401217    0.81375731841339
 s    1 1.00
             0.1612778                   1

33 0
 s    6 1.00
             3047.5249  0.0018347001629433
             457.36951    0.01403730124668
             103.94869   0.068842606114048
             29.210155    0.23218442062076
              9.286663    0.46794134155879
              3.163927    0.36231203217765
 s    3 1.00
             7.8682724   -0.11933240861517
             1.8812885   -0.16085421161283
             0.5442493     1.1434564825515
 s    1 1.00
             0.1687144                   1
 p    3 1.00
             7.8682724   0.068999095584993
             1.8812885    0.31642397975315
             0.5442493    0.74430825237435
 p    1 1.00
             0.1687144                   1
 d    1 1.00
                   0.8                   1

34 0
 s    6 1.00
             3047.5249  0.0018347001629433
             457.36951    0.01403730124668
             103.94869   0.068842606114048
             29.210155    0.23218442062076
              9.286663    0.46794134155879
              3.163927    0.36231203217765
 s    3 1.00
             7.8682724   -0.11933240861517
             1.8812885   -0.16085421161283
             0.5442493     1.1434564825515
 s    1 1.00
             0.1687144                   1
 p    3 1.00
             7.8682724   0.068999095584993
             1.8812885    0.31642397975315
             0.5442493    0.74430825237435
 p    1 1.00
             0.1687144                   1
 d    1 1.00
                   0.8                   1

35 0
 s    3 1.00
             18.731137    0.03349459952309
             2.8253937    0.23472694665786
             0.6401217    0.81375731841339
 s    1 1.00
             0.1612778                   1

36 0
 s    6 1.00
             3047.5249  0.0018347001629433
             457.36951    0.01403730124668
             103.94869   0.068842606114048
             29.210155    0.23218442062076
              9.286663    0.46794134155879
              3.163927    0.36231203217765
 s    3 1.00
             7.8682724   -0.11933240861517
             1.8812885   -0.16085421161283
             0.5442493     1.1434564825515
 s    1 1.00
             0.1687144                   1
 p    3 1.00
             7.8682724   0.068999095584993
             1.8812885    0.31642397975315
             0.5442493    0.74430825237435
 p    1 1.00
             0.1687144                   1
 d    1 1.00
                   0.8                   1

37 0
 s    3 1.00
             18.731137    0.03349459952309
             2.8253937    0.23472694665786
             0.6401217    0.81375731841339
 s    1 1.00
             0.1612778                   1

38 0
 s    3 1.00
             18.731137    0.03349459952309
             2.8253937    0.23472694665786
             0.6401217    0.81375731841339
 s    1 1.00
             0.1612778                   1

39 0
 s    6 1.00
             3047.5249  0.0018347001629433
             457.36951    0.01403730124668
             103.94869   0.068842606114048
             29.210155    0.23218442062076
              9.286663    0.46794134155879
              3.163927    0.36231203217765
 s    3 1.00
             7.8682724   -0.11933240861517
             1.8812885   -0.16085421161283
             0.5442493     1.1434564825515
 s    1 1.00
             0.1687144                   1
 p    3 1.00
             7.8682724   0.068999095584993
             1.8812885    0.31642397975315
             0.5442493    0.74430825237435
 p    1 1.00
             0.1687144                   1
 d    1 1.00
                   0.8                   1

40 0
 s    6 1.00
             3047.5249  0.0018347001629433
             457.36951    0.01403730124668
             103.94869   0.068842606114048
             29.210155    0.23218442062076
              9.286663    0.46794134155879
              3.163927    0.36231203217765
 s    3 1.00
             7.8682724   -0.11933240861517
             1.8812885   -0.16085421161283
             0.5442493     1.1434564825515
 s    1 1.00
             0.1687144                   1
 p    3 1.00
             7.8682724   0.068999095584993
             1.8812885    0.31642397975315
             0.5442493    0.74430825237435
 p    1 1.00
             0.1687144                   1
 d    1 1.00
                   0.8                   1

41 0
 s    3 1.00
             18.731137    0.03349459952309
             2.8253937    0.23472694665786
             0.6401217    0.81375731841339
 s    1 1.00
             0.1612778                   1

42 0
 s    6 1.00
             5484.6717   0.001831099805527
             825.23495   0.013950098518422
             188.04696    0.06844509273075
               52.9645    0.23271427528445
              16.89757    0.47019295006289
             5.7996353    0.35852086192309
 s    3 1.00
             15.539616   -0.11077750382508
             3.5999336   -0.14802630511126
             1.0137618     1.1307670390447
 s    1 1.00
             0.2700058                   1
 p    3 1.00
             15.539616   0.070874299543311
             3.5999336    0.33975279781076
             1.0137618    0.72715859531445
 p    1 1.00
             0.2700058                   1
 d    1 1.00
                   0.8                   1

43 0
 s    3 1.00
             18.731137    0.03349459952309
             2.8253937    0.23472694665786
             0.6401217    0.81375731841339
 s    1 1.00
             0.1612778                   1

[5d]
[7f]
[9g]

[MO]
 Sym= A
 Ene=               0
 Spin= Alpha
 Occup=    1.00000
   1    -0.003040360024415
   2     -0.29775757997086
   3     -0.19659833557048
   4     0.076486784651063
   5     0.048433388483261
   6     -0.14677466254991
   7    -0.010674778823095
   8     0.006686375090835
   9    -0.048751376390494
  10    -0.0046634379149376
  11    0.0064213585460041
  12    0.0053313320211282
  13    -0.0078167593923848
  14    -0.0058634806101342
  15     -0.06633807007104
  16    0.0021968932126699
  17    0.0086937117862978
  18    -0.046407079656522
  19    -0.021284258927876
  20     0.006317712044583
  21     0.011194778185374
  22    -0.052742174313781
  23     0.011639260590347
  24     0.007262369946363
  25    -0.025520285272137
  26    -0.0064397826920602
  27    -0.0028348671642809
  28    0.0018052472635942
  29    -0.00088446566543297
  30    -1.8150769192859e-05
  31    -0.012865040234993
  32    0.00016680686377642
  33    -0.00098650433422351
  34    0.00025453641140353
  35    -0.017270144326453
  36    -0.0024997163121208
  37    -0.00066573647138017
  38    0.0074356494249263
  39    0.0060209752673473
  40    0.0046406664995546
  41    -0.0018848925721219
  42    4.5413672946976e-05
  43    0.00086386372956631
  44    -0.00018047225792248
  45    -8.4743655643464e-05
  46    0.00024959297135511
  47    -0.0011837778939563
  48    -0.0016016388032755
  49    0.00042387713591563
  50    -0.025822070293768
  51    -0.018601528684459
  52    -0.0087787684492005
  53    -0.00083775602699639
  54     0.011655629290154
  55    -0.0067898769434944
  56    0.0010223537638707
  57    0.0058695889011544
  58    -0.0002482881456606
  59    0.00075568712805774
  60    0.00075033465119973
  61    0.00038544942033962
  62    -8.2152087486286e-05
  63    -0.0071281638514622
  64    -0.0016840985183291
  65    -4.4250820221343e-05
  66    -6.0420975306521e-05
  67    -2.0967807825409e-05
  68    -9.5510016122416e-06
  69    0.00040070633011079
  70    6.8102505578544e-05
  71    -1.6399250585036e-05
  72    -4.1521010109283e-05
  73    -0.00018386807154302
  74    -0.00046554932266729
  75    -0.00019988316726796
  76    -2.7517673149289e-05
  77    -1.7050335225719e-05
  78    1.1990749059275e-05
  79    6.6626003800188e-06
  80    -1.337389264544e-05
  81    -1.4860910888452e-05
  82    -0.00038880437799264
  83    1.3517395805384e-05
  84    -0.00013725260185303
  85    -0.0010835900091747
  86    9.3905143051341e-05
  87    -0.00013611300588918
  88    0.00026541903068907
  89    0.00039550098579294
  90    0.00045352655704629
  91    0.00040837850046562
  92    1.4107605939403e-05
  93    -4.4326473446995e-05
  94    -1.0846953320573e-05
  95    -2.8831774094735e-06
  96    -1.0415040481591e-05
  97    -9.6728892180253e-05
  98    -0.00036293147920534
  99    0.00013141574216699
 100    0.00029377997399065
 101    -4.3048438738232e-05
 102    -1.5144754558705e-05
 103    0.00076899907080535
 104    0.0004063944211008
 105    0.00036801685980745
 106    -0.00035876983342158
 107    -0.002413824908055
 108    0.0012520818150688
 109    0.0031760507025241
 110    -3.7574511266448e-05
 111    -8.6220361157488e-05
 112    3.141857760338e-05
 113    5.5653571277442e-05
 114    -3.9133172039304e-05
 115    -8.4470254699855e-05
 116    0.00016925637126172
 117    0.0023178429068402
 118    -0.00012203439339132
 119    0.00034829888112643
 120    3.8651001575505e-06
 121    -0.00054456953888743
 122    0.0002466591893291
 123    0.0015937355920256
 124    -1.2842917461539e-05
 125    -3.2621106374585e-05
 126    6.3774024620901e-05
 127    -1.0608719343182e-05
 128    -3.0849701475825e-05
 129    1.3558970317433e-05
 130    -0.00077555776929799
 131      0.01140755486333
 132    0.0002048880181402
 133    0.00020778847324541
 134    0.00076821772364917
 135    -0.0015083496072889
 136    0.0012589894853071
 137    -0.012579278097906
 138    0.00040720453738541
 139    -9.4754007680048e-05
 140    -7.6287725869938e-05
 141    -3.5316397394483e-05
 142    -5.3621755198509e-05
 143    -0.00010484428564073
 144    9.8474128166405e-05
 145    0.0025470905496265
 146    5.8285333949617e-05
 147    -0.00016602687441519
 148    -0.00056803748388442
 149    0.0028911750847821
 150    -0.0016262851168898
 151     0.001853088136741
 152    -0.00010142418364686
 153    2.1355140711231e-05
 154    3.8318759704563e-05
 155    6.3459803838586e-05
 156    -5.9447604709299e-05
 157    -3.6740033130533e-05
 158    -0.00011725266089596
 159    0.0016042081879933
 160    -6.0643330439318e-05
 161    -1.7632022574868e-05
 162    -1.754529121838e-05
 163    -0.0001509429614692
 164    -0.00087776742460853
 165    -0.00025288643742305
 166    -2.80912932549e-05
 167    7.7905314133843e-06
 168    -3.0104207689901e-06
 169    -5.1950056193321e-05
 170    7.301560461807e-06
 171    -1.4651366117859e-05
 172    0.0002296760644273
 173    -0.00026632983150074
 174    2.0024492396764e-05
 175    -1.7825524038088e-05
 176    -0.00026819994139521
 177    -0.00036109961744874
 178    0.00071666621156111
 179    8.9333670286337e-05
 180    -5.1320736782436e-06
 181    -5.9553492092973e-05
 182    -2.1477109383277e-05
 183    -3.2521682367393e-05
 184    8.3272276176635e-06
 185    2.5739674872817e-05
 186    -7.6455189541211e-05
 187    -0.0017290394686484
 188    4.9878844475161e-06
 189    5.9043548614003e-05
 190    0.00035261581242559
 191    0.0010140434275953
 192    0.00038244001088479
 193    0.0005477982234835
 194    -1.6207525373728e-05
 195    -4.9149224143513e-05
 196    -2.1323779947302e-05
 197    7.596372150608e-06
 198    -2.596421194232e-05
 199    -1.1350409963663e-05
 200    -0.00033896582365207
 201    0.00015931399115647
 202    0.00058207538956988
 203    -0.00013528873772509
 204    -0.00059189009119553
 205    9.8344249230363e-05
 206    -6.4829630055023e-05
 207    -0.00012565930388565
 208    0.00093055936480616
 209    -7.5129709283064e-05
 210    -0.00025462570920297
 211    -2.8711205044394e-05
 212    7.9389939578639e-05
 213    -2.4289626338167e-05
 214    0.0001388801269497
 215    2.0905063224406e-05
 216    0.00060392868841475
 217    -3.7296423360141e-05
 218    -0.00036240241177368
 219    1.0953906785648e-05
 220    0.00042325633371872
 221    -0.0012667294014666
 222    0.0029395271274359
 223    -0.023094339661336
 224    0.0017993264847372
 225    0.0002622713355097
 226    -0.0032276106011793
 227    -0.016264558496277
 228    -0.0026737772878271
 229    -0.0091613476186567
 230    -0.00024394680523685
 231    0.00016001645913169
 232    0.0001785855516416
 233    -0.00011101637227551
 234    -0.00014508571660801
 235    0.0082321917817489
 236    -0.043627723669222
 237    -0.019780611896573
 238    -0.0064992067053753
 239    -0.011174684751264
 240     0.048705218622201
 241    -0.0076912047238423
 242    -0.0075276683977136
 243     0.028773653533371
 244    -0.0065319319813456
 245    -0.0024374549360276
 246    0.0017541177491596
 247    -0.0009688717204404
 248    -0.00014910414873733
 249    -0.00078076453788516
 250    -0.0081811783692285
 251    -0.0015470072144933
 252     -0.29639535151317
 253     -0.18521690707248
 254     -0.07945189214403
 255    -0.049748904320304
 256      0.14917953606193
 257     0.012524376463697
 258    -0.0046599273487268
 259     0.045760655431542
 260    -0.0043169281149527
 261    0.0062902946338144
 262    0.0053673012169401
 263    -0.0074772457065627
 264    -0.0061116392984586
 265    -0.012172103759238
 266    -0.0018907316666574
 267    -0.064255474404776
 268    0.0038415137220609
 269    -0.0011759697821153
 270    -0.026994369858548
 271    -0.012131110407249
 272    0.0054620956545161
 273    0.0045788497019813
 274    -0.010710018302424
 275    0.0015761228527549
 276    -0.0040531725584855
 277    -0.00091519481483458
 278    -0.00025848122230927
 279    0.00086673724713203
 280    0.00064071236976637
 281    0.00033220693810075
 282    -1.6291613365641e-06
 283    0.0014203353189838