[Molden Format]
made by pyscf v[2.0.1]
[Atoms] (AU)
C   1   6     0.69100024066471     0.64692934207205    -3.48223131169301
H   2   1     2.68052439830868     1.13355088658700    -3.25784032593313
C   3   6    -0.36286361513219     0.85440132524594    -5.97030179418974
H   4   1    -2.35448549047279     0.36322488579172    -6.17995817793143
C   5   6     0.93697958957450     1.61209284601821    -8.05828437677121
H   6   1     1.11826626333964     3.62551264984471    -8.45099117670825
C   7   6     2.10097243920823    -0.10888483292738    -9.80174075747215
H   8   1     1.90436861547379    -2.12023320363586    -9.38275759847606
H   9   1     1.55630230933075    -1.92953025305990    12.99630010416247
C   10   6     0.75233899775814    -2.21270439606481    11.10705728102219
H   11   1    -0.43433408177274    -3.90944857546550    11.22216085340412
C   12   6     2.86362581178706    -2.63237380607947     9.17926416456045
H   13   1     4.39038949912609    -1.24955421540245     9.49899813497433
H   14   1     3.74629220191363    -4.48798724300892     9.47414880959024
C   15   6     2.02478325613682    -2.42177285709634     6.44560829588644
C   16   6     3.88048732735477    -3.58795445234514     4.61402886975252
C   17   6    -0.18412382258602    -1.30464291234259     5.76021113872346
C   18   6    -2.10044360464350    -0.26837831858460     7.71610340967100
C   19   6    -3.08956938670431     2.35282328359417     6.88693925039594
C   20   6    -4.37372924086464    -2.09766595989678     7.93610724222001
C   21   6    -0.83850430601230     0.06372213486173    10.33002307638377
H   22   1     0.38411922151109     1.74281358582432    10.27380136542181
H   23   1    -2.30980003007874     0.45460143924521    11.73986301809809
H   24   1     4.58527064644668    -5.38706904487420     5.36778158031719
H   25   1     5.54944938085014    -2.37631462192748     4.35398898413318
H   26   1     3.06633019150423    -3.94118377050688     2.75255466040884
H   27   1    -4.17727778763735     2.26573369139522     5.12914900961283
H   28   1    -1.52662344944051     3.68001877445626     6.59540397144508
H   29   1    -4.32916174397830     3.13643051467482     8.35225460090378
H   30   1    -5.32329548508442    -2.36691813602939     6.11583672749896
H   31   1    -5.77989366602257    -1.33896741843465     9.25748940450990
H   32   1    -3.79310905208926    -3.96389819310853     8.61386170102686
C   33   6    -1.01100794811226    -1.06331657314144     3.11929490449947
C   34   6     0.37686231036534    -0.33275864505552     1.09165013605873
H   35   1    -3.01671213906703    -1.40297922279997     2.77827895090944
C   36   6    -0.64382707979370    -0.11591880174385    -1.42063131251064
H   37   1     2.35569259782137     0.17174499283897     1.33641070251401
H   38   1    -2.63317482980319    -0.60229203511219    -1.66119700387645
C   39   6     3.40965399787931     0.55809653308114   -11.90393532262733
C   40   6     4.52549279160481    -1.34135539088305   -13.56345596406470
H   41   1     3.67536210453709     2.52791097593625   -12.43024189111277
O   42   8     5.72170846290986    -0.87635365493868   -15.48013684009233
H   43   1     4.20717735374393    -3.33265649371778   -12.95224886476863
[GTO]
1 0
 s    6 1.00
             3047.5249  0.0018347001629433
             457.36951    0.01403730124668
             103.94869   0.068842606114048
             29.210155    0.23218442062076
              9.286663    0.46794134155879
              3.163927    0.36231203217765
 s    3 1.00
             7.8682724   -0.11933240861517
             1.8812885   -0.16085421161283
             0.5442493     1.1434564825515
 s    1 1.00
             0.1687144                   1
 p    3 1.00
             7.8682724   0.068999095584993
             1.8812885    0.31642397975315
             0.5442493    0.74430825237435
 p    1 1.00
             0.1687144                   1
 d    1 1.00
                   0.8                   1

2 0
 s    3 1.00
             18.731137    0.03349459952309
             2.8253937    0.23472694665786
             0.6401217    0.81375731841339
 s    1 1.00
             0.1612778                   1

3 0
 s    6 1.00
             3047.5249  0.0018347001629433
             457.36951    0.01403730124668
             103.94869   0.068842606114048
             29.210155    0.23218442062076
              9.286663    0.46794134155879
              3.163927    0.36231203217765
 s    3 1.00
             7.8682724   -0.11933240861517
             1.8812885   -0.16085421161283
             0.5442493     1.1434564825515
 s    1 1.00
             0.1687144                   1
 p    3 1.00
             7.8682724   0.068999095584993
             1.8812885    0.31642397975315
             0.5442493    0.74430825237435
 p    1 1.00
             0.1687144                   1
 d    1 1.00
                   0.8                   1

4 0
 s    3 1.00
             18.731137    0.03349459952309
             2.8253937    0.23472694665786
             0.6401217    0.81375731841339
 s    1 1.00
             0.1612778                   1

5 0
 s    6 1.00
             3047.5249  0.0018347001629433
             457.36951    0.01403730124668
             103.94869   0.068842606114048
             29.210155    0.23218442062076
              9.286663    0.46794134155879
              3.163927    0.36231203217765
 s    3 1.00
             7.8682724   -0.11933240861517
             1.8812885   -0.16085421161283
             0.5442493     1.1434564825515
 s    1 1.00
             0.1687144                   1
 p    3 1.00
             7.8682724   0.068999095584993
             1.8812885    0.31642397975315
             0.5442493    0.74430825237435
 p    1 1.00
             0.1687144                   1
 d    1 1.00
                   0.8                   1

6 0
 s    3 1.00
             18.731137    0.03349459952309
             2.8253937    0.23472694665786
             0.6401217    0.81375731841339
 s    1 1.00
             0.1612778                   1

7 0
 s    6 1.00
             3047.5249  0.0018347001629433
             457.36951    0.01403730124668
             103.94869   0.068842606114048
             29.210155    0.23218442062076
              9.286663    0.46794134155879
              3.163927    0.36231203217765
 s    3 1.00
             7.8682724   -0.11933240861517
             1.8812885   -0.16085421161283
             0.5442493     1.1434564825515
 s    1 1.00
             0.1687144                   1
 p    3 1.00
             7.8682724   0.068999095584993
             1.8812885    0.31642397975315
             0.5442493    0.74430825237435
 p    1 1.00
             0.1687144                   1
 d    1 1.00
                   0.8                   1

8 0
 s    3 1.00
             18.731137    0.03349459952309
             2.8253937    0.23472694665786
             0.6401217    0.81375731841339
 s    1 1.00
             0.1612778                   1

9 0
 s    3 1.00
             18.731137    0.03349459952309
             2.8253937    0.23472694665786
             0.6401217    0.81375731841339
 s    1 1.00
             0.1612778                   1

10 0
 s    6 1.00
             3047.5249  0.0018347001629433
             457.36951    0.01403730124668
             103.94869   0.068842606114048
             29.210155    0.23218442062076
              9.286663    0.46794134155879
              3.163927    0.36231203217765
 s    3 1.00
             7.8682724   -0.11933240861517
             1.8812885   -0.16085421161283
             0.5442493     1.1434564825515
 s    1 1.00
             0.1687144                   1
 p    3 1.00
             7.8682724   0.068999095584993
             1.8812885    0.31642397975315
             0.5442493    0.74430825237435
 p    1 1.00
             0.1687144                   1
 d    1 1.00
                   0.8                   1

11 0
 s    3 1.00
             18.731137    0.03349459952309
             2.8253937    0.23472694665786
             0.6401217    0.81375731841339
 s    1 1.00
             0.1612778                   1

12 0
 s    6 1.00
             3047.5249  0.0018347001629433
             457.36951    0.01403730124668
             103.94869   0.068842606114048
             29.210155    0.23218442062076
              9.286663    0.46794134155879
              3.163927    0.36231203217765
 s    3 1.00
             7.8682724   -0.11933240861517
             1.8812885   -0.16085421161283
             0.5442493     1.1434564825515
 s    1 1.00
             0.1687144                   1
 p    3 1.00
             7.8682724   0.068999095584993
             1.8812885    0.31642397975315
             0.5442493    0.74430825237435
 p    1 1.00
             0.1687144                   1
 d    1 1.00
                   0.8                   1

13 0
 s    3 1.00
             18.731137    0.03349459952309
             2.8253937    0.23472694665786
             0.6401217    0.81375731841339
 s    1 1.00
             0.1612778                   1

14 0
 s    3 1.00
             18.731137    0.03349459952309
             2.8253937    0.23472694665786
             0.6401217    0.81375731841339
 s    1 1.00
             0.1612778                   1

15 0
 s    6 1.00
             3047.5249  0.0018347001629433
             457.36951    0.01403730124668
             103.94869   0.068842606114048
             29.210155    0.23218442062076
              9.286663    0.46794134155879
              3.163927    0.36231203217765
 s    3 1.00
             7.8682724   -0.11933240861517
             1.8812885   -0.16085421161283
             0.5442493     1.1434564825515
 s    1 1.00
             0.1687144                   1
 p    3 1.00
             7.8682724   0.068999095584993
             1.8812885    0.31642397975315
             0.5442493    0.74430825237435
 p    1 1.00
             0.1687144                   1
 d    1 1.00
                   0.8                   1

16 0
 s    6 1.00
             3047.5249  0.0018347001629433
             457.36951    0.01403730124668
             103.94869   0.068842606114048
             29.210155    0.23218442062076
              9.286663    0.46794134155879
              3.163927    0.36231203217765
 s    3 1.00
             7.8682724   -0.11933240861517
             1.8812885   -0.16085421161283
             0.5442493     1.1434564825515
 s    1 1.00
             0.1687144                   1
 p    3 1.00
             7.8682724   0.068999095584993
             1.8812885    0.31642397975315
             0.5442493    0.74430825237435
 p    1 1.00
             0.1687144                   1
 d    1 1.00
                   0.8                   1

17 0
 s    6 1.00
             3047.5249  0.0018347001629433
             457.36951    0.01403730124668
             103.94869   0.068842606114048
             29.210155    0.23218442062076
              9.286663    0.46794134155879
              3.163927    0.36231203217765
 s    3 1.00
             7.8682724   -0.11933240861517
             1.8812885   -0.16085421161283
             0.5442493     1.1434564825515
 s    1 1.00
             0.1687144                   1
 p    3 1.00
             7.8682724   0.068999095584993
             1.8812885    0.31642397975315
             0.5442493    0.74430825237435
 p    1 1.00
             0.1687144                   1
 d    1 1.00
                   0.8                   1

18 0
 s    6 1.00
             3047.5249  0.0018347001629433
             457.36951    0.01403730124668
             103.94869   0.068842606114048
             29.210155    0.23218442062076
              9.286663    0.46794134155879
              3.163927    0.36231203217765
 s    3 1.00
             7.8682724   -0.11933240861517
             1.8812885   -0.16085421161283
             0.5442493     1.1434564825515
 s    1 1.00
             0.1687144                   1
 p    3 1.00
             7.8682724   0.068999095584993
             1.8812885    0.31642397975315
             0.5442493    0.74430825237435
 p    1 1.00
             0.1687144                   1
 d    1 1.00
                   0.8                   1

19 0
 s    6 1.00
             3047.5249  0.0018347001629433
             457.36951    0.01403730124668
             103.94869   0.068842606114048
             29.210155    0.23218442062076
              9.286663    0.46794134155879
              3.163927    0.36231203217765
 s    3 1.00
             7.8682724   -0.11933240861517
             1.8812885   -0.16085421161283
             0.5442493     1.1434564825515
 s    1 1.00
             0.1687144                   1
 p    3 1.00
             7.8682724   0.068999095584993
             1.8812885    0.31642397975315
             0.5442493    0.74430825237435
 p    1 1.00
             0.1687144                   1
 d    1 1.00
                   0.8                   1

20 0
 s    6 1.00
             3047.5249  0.0018347001629433
             457.36951    0.01403730124668
             103.94869   0.068842606114048
             29.210155    0.23218442062076
              9.286663    0.46794134155879
              3.163927    0.36231203217765
 s    3 1.00
             7.8682724   -0.11933240861517
             1.8812885   -0.16085421161283
             0.5442493     1.1434564825515
 s    1 1.00
             0.1687144                   1
 p    3 1.00
             7.8682724   0.068999095584993
             1.8812885    0.31642397975315
             0.5442493    0.74430825237435
 p    1 1.00
             0.1687144                   1
 d    1 1.00
                   0.8                   1

21 0
 s    6 1.00
             3047.5249  0.0018347001629433
             457.36951    0.01403730124668
             103.94869   0.068842606114048
             29.210155    0.23218442062076
              9.286663    0.46794134155879
              3.163927    0.36231203217765
 s    3 1.00
             7.8682724   -0.11933240861517
             1.8812885   -0.16085421161283
             0.5442493     1.1434564825515
 s    1 1.00
             0.1687144                   1
 p    3 1.00
             7.8682724   0.068999095584993
             1.8812885    0.31642397975315
             0.5442493    0.74430825237435
 p    1 1.00
             0.1687144                   1
 d    1 1.00
                   0.8                   1

22 0
 s    3 1.00
             18.731137    0.03349459952309
             2.8253937    0.23472694665786
             0.6401217    0.81375731841339
 s    1 1.00
             0.1612778                   1

23 0
 s    3 1.00
             18.731137    0.03349459952309
             2.8253937    0.23472694665786
             0.6401217    0.81375731841339
 s    1 1.00
             0.1612778                   1

24 0
 s    3 1.00
             18.731137    0.03349459952309
             2.8253937    0.23472694665786
             0.6401217    0.81375731841339
 s    1 1.00
             0.1612778                   1

25 0
 s    3 1.00
             18.731137    0.03349459952309
             2.8253937    0.23472694665786
             0.6401217    0.81375731841339
 s    1 1.00
             0.1612778                   1

26 0
 s    3 1.00
             18.731137    0.03349459952309
             2.8253937    0.23472694665786
             0.6401217    0.81375731841339
 s    1 1.00
             0.1612778                   1

27 0
 s    3 1.00
             18.731137    0.03349459952309
             2.8253937    0.23472694665786
             0.6401217    0.81375731841339
 s    1 1.00
             0.1612778                   1

28 0
 s    3 1.00
             18.731137    0.03349459952309
             2.8253937    0.23472694665786
             0.6401217    0.81375731841339
 s    1 1.00
             0.1612778                   1

29 0
 s    3 1.00
             18.731137    0.03349459952309
             2.8253937    0.23472694665786
             0.6401217    0.81375731841339
 s    1 1.00
             0.1612778                   1

30 0
 s    3 1.00
             18.731137    0.03349459952309
             2.8253937    0.23472694665786
             0.6401217    0.81375731841339
 s    1 1.00
             0.1612778                   1

31 0
 s    3 1.00
             18.731137    0.03349459952309
             2.8253937    0.23472694665786
             0.6401217    0.81375731841339
 s    1 1.00
             0.1612778                   1

32 0
 s    3 1.00
             18.731137    0.03349459952309
             2.8253937    0.23472694665786
             0.6401217    0.81375731841339
 s    1 1.00
             0.1612778                   1

33 0
 s    6 1.00
             3047.5249  0.0018347001629433
             457.36951    0.01403730124668
             103.94869   0.068842606114048
             29.210155    0.23218442062076
              9.286663    0.46794134155879
              3.163927    0.36231203217765
 s    3 1.00
             7.8682724   -0.11933240861517
             1.8812885   -0.16085421161283
             0.5442493     1.1434564825515
 s    1 1.00
             0.1687144                   1
 p    3 1.00
             7.8682724   0.068999095584993
             1.8812885    0.31642397975315
             0.5442493    0.74430825237435
 p    1 1.00
             0.1687144                   1
 d    1 1.00
                   0.8                   1

34 0
 s    6 1.00
             3047.5249  0.0018347001629433
             457.36951    0.01403730124668
             103.94869   0.068842606114048
             29.210155    0.23218442062076
              9.286663    0.46794134155879
              3.163927    0.36231203217765
 s    3 1.00
             7.8682724   -0.11933240861517
             1.8812885   -0.16085421161283
             0.5442493     1.1434564825515
 s    1 1.00
             0.1687144                   1
 p    3 1.00
             7.8682724   0.068999095584993
             1.8812885    0.31642397975315
             0.5442493    0.74430825237435
 p    1 1.00
             0.1687144                   1
 d    1 1.00
                   0.8                   1

35 0
 s    3 1.00
             18.731137    0.03349459952309
             2.8253937    0.23472694665786
             0.6401217    0.81375731841339
 s    1 1.00
             0.1612778                   1

36 0
 s    6 1.00
             3047.5249  0.0018347001629433
             457.36951    0.01403730124668
             103.94869   0.068842606114048
             29.210155    0.23218442062076
              9.286663    0.46794134155879
              3.163927    0.36231203217765
 s    3 1.00
             7.8682724   -0.11933240861517
             1.8812885   -0.16085421161283
             0.5442493     1.1434564825515
 s    1 1.00
             0.1687144                   1
 p    3 1.00
             7.8682724   0.068999095584993
             1.8812885    0.31642397975315
             0.5442493    0.74430825237435
 p    1 1.00
             0.1687144                   1
 d    1 1.00
                   0.8                   1

37 0
 s    3 1.00
             18.731137    0.03349459952309
             2.8253937    0.23472694665786
             0.6401217    0.81375731841339
 s    1 1.00
             0.1612778                   1

38 0
 s    3 1.00
             18.731137    0.03349459952309
             2.8253937    0.23472694665786
             0.6401217    0.81375731841339
 s    1 1.00
             0.1612778                   1

39 0
 s    6 1.00
             3047.5249  0.0018347001629433
             457.36951    0.01403730124668
             103.94869   0.068842606114048
             29.210155    0.23218442062076
              9.286663    0.46794134155879
              3.163927    0.36231203217765
 s    3 1.00
             7.8682724   -0.11933240861517
             1.8812885   -0.16085421161283
             0.5442493     1.1434564825515
 s    1 1.00
             0.1687144                   1
 p    3 1.00
             7.8682724   0.068999095584993
             1.8812885    0.31642397975315
             0.5442493    0.74430825237435
 p    1 1.00
             0.1687144                   1
 d    1 1.00
                   0.8                   1

40 0
 s    6 1.00
             3047.5249  0.0018347001629433
             457.36951    0.01403730124668
             103.94869   0.068842606114048
             29.210155    0.23218442062076
              9.286663    0.46794134155879
              3.163927    0.36231203217765
 s    3 1.00
             7.8682724   -0.11933240861517
             1.8812885   -0.16085421161283
             0.5442493     1.1434564825515
 s    1 1.00
             0.1687144                   1
 p    3 1.00
             7.8682724   0.068999095584993
             1.8812885    0.31642397975315
             0.5442493    0.74430825237435
 p    1 1.00
             0.1687144                   1
 d    1 1.00
                   0.8                   1

41 0
 s    3 1.00
             18.731137    0.03349459952309
             2.8253937    0.23472694665786
             0.6401217    0.81375731841339
 s    1 1.00
             0.1612778                   1

42 0
 s    6 1.00
             5484.6717   0.001831099805527
             825.23495   0.013950098518422
             188.04696    0.06844509273075
               52.9645    0.23271427528445
              16.89757    0.47019295006289
             5.7996353    0.35852086192309
 s    3 1.00
             15.539616   -0.11077750382508
             3.5999336   -0.14802630511126
             1.0137618     1.1307670390447
 s    1 1.00
             0.2700058                   1
 p    3 1.00
             15.539616   0.070874299543311
             3.5999336    0.33975279781076
             1.0137618    0.72715859531445
 p    1 1.00
             0.2700058                   1
 d    1 1.00
                   0.8                   1

43 0
 s    3 1.00
             18.731137    0.03349459952309
             2.8253937    0.23472694665786
             0.6401217    0.81375731841339
 s    1 1.00
             0.1612778                   1

[5d]
[7f]
[9g]

[MO]
 Sym= A
 Ene=               0
 Spin= Alpha
 Occup=    1.00000
   1    0.0030751709349248
   2      0.29816468845697
   3      0.19625659232424
   4    -0.076024113865162
   5    -0.050223997567324
   6      0.14675822689924
   7     0.011047514124605
   8    -0.0069717383640334
   9     0.048595646412029
  10    0.0047019165667151
  11    -0.0063408666302807
  12    -0.0054009352017555
  13    0.0075438383675926
  14    0.0063353665297618
  15      0.06642571583679
  16    -0.0022459597622889
  17    -0.0087343088376801
  18      0.04653575206204
  19     0.021835212814706
  20    -0.0059534196198344
  21    -0.011977204079516
  22     0.052671131390275
  23    -0.011463308676862
  24    -0.0076268958937615
  25     0.025541030513599
  26    0.0064147356674409
  27    0.0028232466656838
  28    -0.0017118778239006
  29    0.00085903139096124
  30    9.7338453710502e-05
  31     0.012878327897617
  32    -0.00010992839083768
  33    0.0010736283686174
  34    -0.00091176845853174
  35     0.017682153221354
  36    0.0018575750418081
  37     0.001132109759889
  38    -0.006942699269057
  39    -0.0057204328058729
  40    -0.005666515274196
  41    0.00072941560945304
  42    8.3424007488209e-05
  43    -0.00075889785247344
  44    0.00024455040971784
  45    -5.1668232544392e-05
  46    -6.9450191092481e-05
  47    0.0013267176602433
  48    0.0029242126464152
  49    -0.00037588588318606
  50     0.021385276321281
  51     0.011507935616451
  52    0.0066145852762835
  53    0.00061797863341047
  54    -0.010569272420394
  55    0.0051036923345499
  56    -0.002465902680865
  57    -0.0058925847563443
  58    0.00011773841138164
  59    -0.00061669519297181
  60    -0.00049528688524666
  61    -0.00038246643158148
  62    0.00031201511550729
  63    0.0057466643015148
  64    0.0014588788908098
  65    2.619739469395e-05
  66    -2.808207211725e-05
  67    9.991962530291e-06
  68    5.0594344350894e-05
  69    -0.00040288727053802
  70    -6.2380459557243e-06
  71    -1.8441416616942e-05
  72    -6.9186892383032e-06
  73    0.0002635765535525
  74    0.0003504605476869
  75    0.00027395356387117
  76    2.7127762928324e-05
  77    1.1414510147777e-05
  78    -1.0134971678622e-05
  79    -8.5069749087829e-06
  80    9.5421642981653e-06
  81    8.0163438641963e-06
  82    0.00031675729452029
  83    -2.8967960730389e-05
  84    0.00015441093561959
  85    0.0013050567692712
  86    -0.00018947255160893
  87    7.6404570881206e-05
  88    -0.00030839470310171
  89    -0.00045592110358076
  90    -0.00040649385190258
  91    -0.00054876669335392
  92    -3.3198557107135e-06
  93    2.3764835821831e-05
  94    -1.3925834556992e-05
  95    -6.5740156958498e-06
  96    -9.8630590382552e-06
  97    -7.0136748027426e-05
  98    3.824150484268e-05
  99    -5.4251225985142e-05
 100    -0.00012737246019322
 101    8.9923060124509e-05
 102    -7.7691971380981e-05
 103    -0.001138367326638
 104    7.7070033910923e-05
 105    0.00023632343982929
 106    0.00038500196399175
 107    0.0026662445163093
 108    -0.00064534628487572
 109    -0.0032481631347256
 110    3.9317121748391e-05
 111    9.1763132281676e-05
 112    -3.3734099311838e-05
 113    -6.4844307435793e-05
 114    2.9233195879111e-05
 115    9.6382231906833e-05
 116    -0.00021989557369515
 117    -0.0023222409180735
 118    0.00012881104840537
 119    -0.00040450215993891
 120    7.339994612145e-05
 121    0.00048484266915971
 122    -0.00016534971461566
 123    -0.0014516811234216
 124    1.5097535738998e-05
 125    4.9984654189228e-05
 126    -5.2631480097614e-05
 127    -1.2046181851277e-05
 128    9.1599104697723e-06
 129    -1.2307160899175e-05
 130    0.00077831722544739
 131    -0.011436586981775
 132    -0.00022988162566039
 133    -7.7118258581857e-05
 134    -0.00073584745270317
 135    0.0015192961035488
 136    -0.001179599084143
 137     0.012533547684614
 138    -0.00038779226968689
 139    7.6668455843016e-05
 140    0.00014432439077604
 141    6.316231840607e-05
 142    9.3316866341647e-05
 143    6.0802136635407e-05
 144    -1.0727891360107e-05
 145    -0.0022656729442071
 146    6.9075368775919e-05
 147    0.00012442242549098
 148    0.00036437378614382
 149    -0.0027369926272198
 150    0.0017304046876751
 151    -0.0020312618318727
 152    9.2128851470473e-05
 153    -2.8152183563058e-05
 154    -3.9088762933911e-05
 155    -5.8932169002023e-05
 156    5.795250696202e-05
 157    1.3481816909753e-05
 158    0.0001834894199222
 159    -0.0015601787100108
 160    3.6087882872681e-05
 161    1.0708729076335e-05
 162    -9.7959968871453e-05
 163     7.96529482392e-06
 164    0.00098111245073196
 165    0.00022053823660135
 166    2.0635923859592e-05
 167    2.7975389278273e-06
 168    -6.2064429298347e-07
 169    5.4351732527726e-05
 170    -7.4320459620275e-06
 171    1.2288615178686e-05
 172    -0.00023638987500078
 173    0.00037476055542391
 174    -2.0338915636757e-05
 175    6.8052717552305e-06
 176      0.00029688431643
 177    0.00040537097211036
 178    -0.00074613579448509
 179    -7.6374187769156e-05
 180    3.6917793239819e-06
 181    5.1779890968398e-05
 182    1.9041832929146e-05
 183    3.4859481247502e-05
 184    -8.1667526676583e-06
 185    -1.3658902179247e-05
 186    3.3740029715328e-05
 187    0.0017441724359044
 188    1.9831625233646e-06
 189    -5.141008520263e-05
 190    -0.00025262135319266
 191    -0.00092826419448018
 192    -0.00045956420399414
 193    -0.00050051609334289
 194    2.141054924254e-05
 195    3.8487897831555e-05
 196    2.5818104799707e-05
 197    -6.0011448939587e-06
 198    2.1861593878061e-05
 199    -1.5901971970353e-05
 200    0.00031465106102525
 201    -8.9975751741503e-05
 202    -0.00041964035531177
 203    0.0002454975978638
 204    0.00083930401949882
 205    -0.00023329028829492
 206    -0.0001815502392841
 207    0.00014682286283206
 208    -0.00073966109677447
 209    0.00013156660530798
 210    0.00021679470096809
 211    4.3948960180857e-05
 212    -9.9503722330987e-05
 213    -1.8929168304251e-05
 214    -0.00027182058201889
 215    -5.2662791575264e-05
 216    -0.00064696956630122
 217    6.4578216483711e-05
 218    0.00042424033437733
 219    -1.0087002297578e-05
 220    -0.00048116980851795
 221    0.0012709349843141
 222    -0.002943573604444
 223     0.022966198584617
 224    -0.0014828012501409
 225    -0.0016825997292271
 226    0.0029676310283014
 227     0.016528508590549
 228    0.0013520759865499
 229    0.0088806664844691
 230    0.00024699546709705
 231    -0.00016479183320587
 232    -0.00017210961744102
 233    0.00012068386247332
 234    0.00013917887931663
 235    -0.0082398041322982
 236     0.043670991793709
 237     0.019777187652733
 238    0.0064464894710824
 239     0.011367079319066
 240     -0.04874452406158
 241    0.0075822387455639
 242    0.0077480607641288
 243    -0.028660465318761
 244    0.0064835182109244
 245        0.002473439735
 246    -0.0018833590224965
 247    0.00095368354055531
 248    0.00012423738134759
 249    0.00076602327031427
 250     0.008228591921571
 251    0.0015453010963005
 252       0.2968225583994
 253      0.18573759874359
 254      0.07918691059707
 255     0.051498514792253
 256     -0.14913198267076
 257    -0.012802946221629
 258    0.0065477437869977
 259    -0.045533867630153
 260    0.0044734158510423
 261    -0.006484454217085
 262    -0.0050315274551666
 263    0.0077045307741056
 264    0.0059182862674445
 265     0.012187633335498
 266    0.0019080005245484
 267     0.064317085703115
 268    -0.0037464483399198
 269    0.0011356188822241
 270     0.022731462371044
 271      0.01140931859628
 272    -0.0053582757513751
 273    -0.003971964611889
 274    0.0082482576388457
 275    -0.0015796667788984
 276    0.0035720447229558
 277    0.0019063748242494
 278    0.00024913412349023
 279    -0.0007735897624871
 280    -0.00039598518501929
 281    -0.00037637515723462
 282    0.00021688864092991
 283    -0.0011983288172427
 284    0.0056321795223971