[Molden Format]
made by pyscf v[2.0.1]
[Atoms] (AU)
C   1   6     0.69100024066471     0.64692934207205    -3.48223131169301
H   2   1     2.68052439830868     1.13355088658700    -3.25784032593313
C   3   6    -0.36286361513219     0.85440132524594    -5.97030179418974
H   4   1    -2.35448549047279     0.36322488579172    -6.17995817793143
C   5   6     0.93697958957450     1.61209284601821    -8.05828437677121
H   6   1     1.06549067678056     3.62267689696451    -8.48487489511106
C   7   6     2.16736557798100    -0.10534186648568    -9.75912299477448
H   8   1     2.02320928491733    -2.11383137749881    -9.30645195914250
H   9   1     1.55630230933075    -1.92953025305990    12.99630010416247
C   10   6     0.75233899775814    -2.21270439606481    11.10705728102219
H   11   1    -0.43433408177274    -3.90944857546550    11.22216085340412
C   12   6     2.86362581178706    -2.63237380607947     9.17926416456045
H   13   1     4.39038949912609    -1.24955421540245     9.49899813497433
H   14   1     3.74629220191363    -4.48798724300892     9.47414880959024
C   15   6     2.02478325613682    -2.42177285709634     6.44560829588644
C   16   6     3.88048732735477    -3.58795445234514     4.61402886975252
C   17   6    -0.18412382258602    -1.30464291234259     5.76021113872346
C   18   6    -2.10044360464350    -0.26837831858460     7.71610340967100
C   19   6    -3.08956938670431     2.35282328359417     6.88693925039594
C   20   6    -4.37372924086464    -2.09766595989678     7.93610724222001
C   21   6    -0.83850430601230     0.06372213486173    10.33002307638377
H   22   1     0.38411922151109     1.74281358582432    10.27380136542181
H   23   1    -2.30980003007874     0.45460143924521    11.73986301809809
H   24   1     4.58527064644668    -5.38706904487420     5.36778158031719
H   25   1     5.54944938085014    -2.37631462192748     4.35398898413318
H   26   1     3.06633019150423    -3.94118377050688     2.75255466040884
H   27   1    -4.17727778763735     2.26573369139522     5.12914900961283
H   28   1    -1.52662344944051     3.68001877445626     6.59540397144508
H   29   1    -4.32916174397830     3.13643051467482     8.35225460090378
H   30   1    -5.32329548508442    -2.36691813602939     6.11583672749896
H   31   1    -5.77989366602257    -1.33896741843465     9.25748940450990
H   32   1    -3.79310905208926    -3.96389819310853     8.61386170102686
C   33   6    -1.01100794811226    -1.06331657314144     3.11929490449947
C   34   6     0.37686231036534    -0.33275864505552     1.09165013605873
H   35   1    -3.01671213906703    -1.40297922279997     2.77827895090944
C   36   6    -0.64382707979370    -0.11591880174385    -1.42063131251064
H   37   1     2.35569259782137     0.17174499283897     1.33641070251401
H   38   1    -2.63317482980319    -0.60229203511219    -1.66119700387645
C   39   6     3.47875288242203     0.56169257871714   -11.85961387583028
C   40   6     4.66516051155728    -1.33401759756945   -13.47384510134906
H   41   1     3.69428385946791     2.52875803282145   -12.41815504578381
O   42   8     5.86788117255002    -0.86880199432758   -15.38639878207248
H   43   1     4.39675898316744    -3.32256790318547   -12.83056660829343
[GTO]
1 0
 s    6 1.00
             3047.5249  0.0018347001629433
             457.36951    0.01403730124668
             103.94869   0.068842606114048
             29.210155    0.23218442062076
              9.286663    0.46794134155879
              3.163927    0.36231203217765
 s    3 1.00
             7.8682724   -0.11933240861517
             1.8812885   -0.16085421161283
             0.5442493     1.1434564825515
 s    1 1.00
             0.1687144                   1
 p    3 1.00
             7.8682724   0.068999095584993
             1.8812885    0.31642397975315
             0.5442493    0.74430825237435
 p    1 1.00
             0.1687144                   1
 d    1 1.00
                   0.8                   1

2 0
 s    3 1.00
             18.731137    0.03349459952309
             2.8253937    0.23472694665786
             0.6401217    0.81375731841339
 s    1 1.00
             0.1612778                   1

3 0
 s    6 1.00
             3047.5249  0.0018347001629433
             457.36951    0.01403730124668
             103.94869   0.068842606114048
             29.210155    0.23218442062076
              9.286663    0.46794134155879
              3.163927    0.36231203217765
 s    3 1.00
             7.8682724   -0.11933240861517
             1.8812885   -0.16085421161283
             0.5442493     1.1434564825515
 s    1 1.00
             0.1687144                   1
 p    3 1.00
             7.8682724   0.068999095584993
             1.8812885    0.31642397975315
             0.5442493    0.74430825237435
 p    1 1.00
             0.1687144                   1
 d    1 1.00
                   0.8                   1

4 0
 s    3 1.00
             18.731137    0.03349459952309
             2.8253937    0.23472694665786
             0.6401217    0.81375731841339
 s    1 1.00
             0.1612778                   1

5 0
 s    6 1.00
             3047.5249  0.0018347001629433
             457.36951    0.01403730124668
             103.94869   0.068842606114048
             29.210155    0.23218442062076
              9.286663    0.46794134155879
              3.163927    0.36231203217765
 s    3 1.00
             7.8682724   -0.11933240861517
             1.8812885   -0.16085421161283
             0.5442493     1.1434564825515
 s    1 1.00
             0.1687144                   1
 p    3 1.00
             7.8682724   0.068999095584993
             1.8812885    0.31642397975315
             0.5442493    0.74430825237435
 p    1 1.00
             0.1687144                   1
 d    1 1.00
                   0.8                   1

6 0
 s    3 1.00
             18.731137    0.03349459952309
             2.8253937    0.23472694665786
             0.6401217    0.81375731841339
 s    1 1.00
             0.1612778                   1

7 0
 s    6 1.00
             3047.5249  0.0018347001629433
             457.36951    0.01403730124668
             103.94869   0.068842606114048
             29.210155    0.23218442062076
              9.286663    0.46794134155879
              3.163927    0.36231203217765
 s    3 1.00
             7.8682724   -0.11933240861517
             1.8812885   -0.16085421161283
             0.5442493     1.1434564825515
 s    1 1.00
             0.1687144                   1
 p    3 1.00
             7.8682724   0.068999095584993
             1.8812885    0.31642397975315
             0.5442493    0.74430825237435
 p    1 1.00
             0.1687144                   1
 d    1 1.00
                   0.8                   1

8 0
 s    3 1.00
             18.731137    0.03349459952309
             2.8253937    0.23472694665786
             0.6401217    0.81375731841339
 s    1 1.00
             0.1612778                   1

9 0
 s    3 1.00
             18.731137    0.03349459952309
             2.8253937    0.23472694665786
             0.6401217    0.81375731841339
 s    1 1.00
             0.1612778                   1

10 0
 s    6 1.00
             3047.5249  0.0018347001629433
             457.36951    0.01403730124668
             103.94869   0.068842606114048
             29.210155    0.23218442062076
              9.286663    0.46794134155879
              3.163927    0.36231203217765
 s    3 1.00
             7.8682724   -0.11933240861517
             1.8812885   -0.16085421161283
             0.5442493     1.1434564825515
 s    1 1.00
             0.1687144                   1
 p    3 1.00
             7.8682724   0.068999095584993
             1.8812885    0.31642397975315
             0.5442493    0.74430825237435
 p    1 1.00
             0.1687144                   1
 d    1 1.00
                   0.8                   1

11 0
 s    3 1.00
             18.731137    0.03349459952309
             2.8253937    0.23472694665786
             0.6401217    0.81375731841339
 s    1 1.00
             0.1612778                   1

12 0
 s    6 1.00
             3047.5249  0.0018347001629433
             457.36951    0.01403730124668
             103.94869   0.068842606114048
             29.210155    0.23218442062076
              9.286663    0.46794134155879
              3.163927    0.36231203217765
 s    3 1.00
             7.8682724   -0.11933240861517
             1.8812885   -0.16085421161283
             0.5442493     1.1434564825515
 s    1 1.00
             0.1687144                   1
 p    3 1.00
             7.8682724   0.068999095584993
             1.8812885    0.31642397975315
             0.5442493    0.74430825237435
 p    1 1.00
             0.1687144                   1
 d    1 1.00
                   0.8                   1

13 0
 s    3 1.00
             18.731137    0.03349459952309
             2.8253937    0.23472694665786
             0.6401217    0.81375731841339
 s    1 1.00
             0.1612778                   1

14 0
 s    3 1.00
             18.731137    0.03349459952309
             2.8253937    0.23472694665786
             0.6401217    0.81375731841339
 s    1 1.00
             0.1612778                   1

15 0
 s    6 1.00
             3047.5249  0.0018347001629433
             457.36951    0.01403730124668
             103.94869   0.068842606114048
             29.210155    0.23218442062076
              9.286663    0.46794134155879
              3.163927    0.36231203217765
 s    3 1.00
             7.8682724   -0.11933240861517
             1.8812885   -0.16085421161283
             0.5442493     1.1434564825515
 s    1 1.00
             0.1687144                   1
 p    3 1.00
             7.8682724   0.068999095584993
             1.8812885    0.31642397975315
             0.5442493    0.74430825237435
 p    1 1.00
             0.1687144                   1
 d    1 1.00
                   0.8                   1

16 0
 s    6 1.00
             3047.5249  0.0018347001629433
             457.36951    0.01403730124668
             103.94869   0.068842606114048
             29.210155    0.23218442062076
              9.286663    0.46794134155879
              3.163927    0.36231203217765
 s    3 1.00
             7.8682724   -0.11933240861517
             1.8812885   -0.16085421161283
             0.5442493     1.1434564825515
 s    1 1.00
             0.1687144                   1
 p    3 1.00
             7.8682724   0.068999095584993
             1.8812885    0.31642397975315
             0.5442493    0.74430825237435
 p    1 1.00
             0.1687144                   1
 d    1 1.00
                   0.8                   1

17 0
 s    6 1.00
             3047.5249  0.0018347001629433
             457.36951    0.01403730124668
             103.94869   0.068842606114048
             29.210155    0.23218442062076
              9.286663    0.46794134155879
              3.163927    0.36231203217765
 s    3 1.00
             7.8682724   -0.11933240861517
             1.8812885   -0.16085421161283
             0.5442493     1.1434564825515
 s    1 1.00
             0.1687144                   1
 p    3 1.00
             7.8682724   0.068999095584993
             1.8812885    0.31642397975315
             0.5442493    0.74430825237435
 p    1 1.00
             0.1687144                   1
 d    1 1.00
                   0.8                   1

18 0
 s    6 1.00
             3047.5249  0.0018347001629433
             457.36951    0.01403730124668
             103.94869   0.068842606114048
             29.210155    0.23218442062076
              9.286663    0.46794134155879
              3.163927    0.36231203217765
 s    3 1.00
             7.8682724   -0.11933240861517
             1.8812885   -0.16085421161283
             0.5442493     1.1434564825515
 s    1 1.00
             0.1687144                   1
 p    3 1.00
             7.8682724   0.068999095584993
             1.8812885    0.31642397975315
             0.5442493    0.74430825237435
 p    1 1.00
             0.1687144                   1
 d    1 1.00
                   0.8                   1

19 0
 s    6 1.00
             3047.5249  0.0018347001629433
             457.36951    0.01403730124668
             103.94869   0.068842606114048
             29.210155    0.23218442062076
              9.286663    0.46794134155879
              3.163927    0.36231203217765
 s    3 1.00
             7.8682724   -0.11933240861517
             1.8812885   -0.16085421161283
             0.5442493     1.1434564825515
 s    1 1.00
             0.1687144                   1
 p    3 1.00
             7.8682724   0.068999095584993
             1.8812885    0.31642397975315
             0.5442493    0.74430825237435
 p    1 1.00
             0.1687144                   1
 d    1 1.00
                   0.8                   1

20 0
 s    6 1.00
             3047.5249  0.0018347001629433
             457.36951    0.01403730124668
             103.94869   0.068842606114048
             29.210155    0.23218442062076
              9.286663    0.46794134155879
              3.163927    0.36231203217765
 s    3 1.00
             7.8682724   -0.11933240861517
             1.8812885   -0.16085421161283
             0.5442493     1.1434564825515
 s    1 1.00
             0.1687144                   1
 p    3 1.00
             7.8682724   0.068999095584993
             1.8812885    0.31642397975315
             0.5442493    0.74430825237435
 p    1 1.00
             0.1687144                   1
 d    1 1.00
                   0.8                   1

21 0
 s    6 1.00
             3047.5249  0.0018347001629433
             457.36951    0.01403730124668
             103.94869   0.068842606114048
             29.210155    0.23218442062076
              9.286663    0.46794134155879
              3.163927    0.36231203217765
 s    3 1.00
             7.8682724   -0.11933240861517
             1.8812885   -0.16085421161283
             0.5442493     1.1434564825515
 s    1 1.00
             0.1687144                   1
 p    3 1.00
             7.8682724   0.068999095584993
             1.8812885    0.31642397975315
             0.5442493    0.74430825237435
 p    1 1.00
             0.1687144                   1
 d    1 1.00
                   0.8                   1

22 0
 s    3 1.00
             18.731137    0.03349459952309
             2.8253937    0.23472694665786
             0.6401217    0.81375731841339
 s    1 1.00
             0.1612778                   1

23 0
 s    3 1.00
             18.731137    0.03349459952309
             2.8253937    0.23472694665786
             0.6401217    0.81375731841339
 s    1 1.00
             0.1612778                   1

24 0
 s    3 1.00
             18.731137    0.03349459952309
             2.8253937    0.23472694665786
             0.6401217    0.81375731841339
 s    1 1.00
             0.1612778                   1

25 0
 s    3 1.00
             18.731137    0.03349459952309
             2.8253937    0.23472694665786
             0.6401217    0.81375731841339
 s    1 1.00
             0.1612778                   1

26 0
 s    3 1.00
             18.731137    0.03349459952309
             2.8253937    0.23472694665786
             0.6401217    0.81375731841339
 s    1 1.00
             0.1612778                   1

27 0
 s    3 1.00
             18.731137    0.03349459952309
             2.8253937    0.23472694665786
             0.6401217    0.81375731841339
 s    1 1.00
             0.1612778                   1

28 0
 s    3 1.00
             18.731137    0.03349459952309
             2.8253937    0.23472694665786
             0.6401217    0.81375731841339
 s    1 1.00
             0.1612778                   1

29 0
 s    3 1.00
             18.731137    0.03349459952309
             2.8253937    0.23472694665786
             0.6401217    0.81375731841339
 s    1 1.00
             0.1612778                   1

30 0
 s    3 1.00
             18.731137    0.03349459952309
             2.8253937    0.23472694665786
             0.6401217    0.81375731841339
 s    1 1.00
             0.1612778                   1

31 0
 s    3 1.00
             18.731137    0.03349459952309
             2.8253937    0.23472694665786
             0.6401217    0.81375731841339
 s    1 1.00
             0.1612778                   1

32 0
 s    3 1.00
             18.731137    0.03349459952309
             2.8253937    0.23472694665786
             0.6401217    0.81375731841339
 s    1 1.00
             0.1612778                   1

33 0
 s    6 1.00
             3047.5249  0.0018347001629433
             457.36951    0.01403730124668
             103.94869   0.068842606114048
             29.210155    0.23218442062076
              9.286663    0.46794134155879
              3.163927    0.36231203217765
 s    3 1.00
             7.8682724   -0.11933240861517
             1.8812885   -0.16085421161283
             0.5442493     1.1434564825515
 s    1 1.00
             0.1687144                   1
 p    3 1.00
             7.8682724   0.068999095584993
             1.8812885    0.31642397975315
             0.5442493    0.74430825237435
 p    1 1.00
             0.1687144                   1
 d    1 1.00
                   0.8                   1

34 0
 s    6 1.00
             3047.5249  0.0018347001629433
             457.36951    0.01403730124668
             103.94869   0.068842606114048
             29.210155    0.23218442062076
              9.286663    0.46794134155879
              3.163927    0.36231203217765
 s    3 1.00
             7.8682724   -0.11933240861517
             1.8812885   -0.16085421161283
             0.5442493     1.1434564825515
 s    1 1.00
             0.1687144                   1
 p    3 1.00
             7.8682724   0.068999095584993
             1.8812885    0.31642397975315
             0.5442493    0.74430825237435
 p    1 1.00
             0.1687144                   1
 d    1 1.00
                   0.8                   1

35 0
 s    3 1.00
             18.731137    0.03349459952309
             2.8253937    0.23472694665786
             0.6401217    0.81375731841339
 s    1 1.00
             0.1612778                   1

36 0
 s    6 1.00
             3047.5249  0.0018347001629433
             457.36951    0.01403730124668
             103.94869   0.068842606114048
             29.210155    0.23218442062076
              9.286663    0.46794134155879
              3.163927    0.36231203217765
 s    3 1.00
             7.8682724   -0.11933240861517
             1.8812885   -0.16085421161283
             0.5442493     1.1434564825515
 s    1 1.00
             0.1687144                   1
 p    3 1.00
             7.8682724   0.068999095584993
             1.8812885    0.31642397975315
             0.5442493    0.74430825237435
 p    1 1.00
             0.1687144                   1
 d    1 1.00
                   0.8                   1

37 0
 s    3 1.00
             18.731137    0.03349459952309
             2.8253937    0.23472694665786
             0.6401217    0.81375731841339
 s    1 1.00
             0.1612778                   1

38 0
 s    3 1.00
             18.731137    0.03349459952309
             2.8253937    0.23472694665786
             0.6401217    0.81375731841339
 s    1 1.00
             0.1612778                   1

39 0
 s    6 1.00
             3047.5249  0.0018347001629433
             457.36951    0.01403730124668
             103.94869   0.068842606114048
             29.210155    0.23218442062076
              9.286663    0.46794134155879
              3.163927    0.36231203217765
 s    3 1.00
             7.8682724   -0.11933240861517
             1.8812885   -0.16085421161283
             0.5442493     1.1434564825515
 s    1 1.00
             0.1687144                   1
 p    3 1.00
             7.8682724   0.068999095584993
             1.8812885    0.31642397975315
             0.5442493    0.74430825237435
 p    1 1.00
             0.1687144                   1
 d    1 1.00
                   0.8                   1

40 0
 s    6 1.00
             3047.5249  0.0018347001629433
             457.36951    0.01403730124668
             103.94869   0.068842606114048
             29.210155    0.23218442062076
              9.286663    0.46794134155879
              3.163927    0.36231203217765
 s    3 1.00
             7.8682724   -0.11933240861517
             1.8812885   -0.16085421161283
             0.5442493     1.1434564825515
 s    1 1.00
             0.1687144                   1
 p    3 1.00
             7.8682724   0.068999095584993
             1.8812885    0.31642397975315
             0.5442493    0.74430825237435
 p    1 1.00
             0.1687144                   1
 d    1 1.00
                   0.8                   1

41 0
 s    3 1.00
             18.731137    0.03349459952309
             2.8253937    0.23472694665786
             0.6401217    0.81375731841339
 s    1 1.00
             0.1612778                   1

42 0
 s    6 1.00
             5484.6717   0.001831099805527
             825.23495   0.013950098518422
             188.04696    0.06844509273075
               52.9645    0.23271427528445
              16.89757    0.47019295006289
             5.7996353    0.35852086192309
 s    3 1.00
             15.539616   -0.11077750382508
             3.5999336   -0.14802630511126
             1.0137618     1.1307670390447
 s    1 1.00
             0.2700058                   1
 p    3 1.00
             15.539616   0.070874299543311
             3.5999336    0.33975279781076
             1.0137618    0.72715859531445
 p    1 1.00
             0.2700058                   1
 d    1 1.00
                   0.8                   1

43 0
 s    3 1.00
             18.731137    0.03349459952309
             2.8253937    0.23472694665786
             0.6401217    0.81375731841339
 s    1 1.00
             0.1612778                   1

[5d]
[7f]
[9g]

[MO]
 Sym= A
 Ene=               0
 Spin= Alpha
 Occup=    1.00000
   1    0.0030841208064961
   2      0.29827850111748
   3      0.19629898191131
   4    -0.075999594092268
   5    -0.050254926542314
   6      0.14679622328722
   7     0.011046244825063
   8    -0.0070000273944199
   9     0.048622399920968
  10      0.00472091373853
  11    -0.0063547224978341
  12    -0.0054226491266842
  13    0.0075437997930872
  14    0.0063410420385683
  15     0.066454010445743
  16    -0.0022418000171401
  17    -0.0087532853547843
  18     0.046568812158771
  19     0.021857343035654
  20    -0.0059584691649146
  21    -0.011952288473707
  22     0.052720097074316
  23    -0.011463997866077
  24    -0.0076496736696596
  25     0.025544665820478
  26    0.0064068803071268
  27    0.0028282904624561
  28    -0.0017055998451112
  29    0.00085835695889364
  30    8.623275682721e-05
  31     0.012886051006566
  32    -0.00011933667849799
  33    0.0011181126225722
  34    -0.0011132692548068
  35       0.0174813090043
  36    0.0017752215746686
  37    0.0011423748678883
  38    -0.0067769711616796
  39    -0.0057494823943807
  40    -0.0055965705201579
  41    0.00098451236395684
  42    5.3243100620817e-05
  43    -0.00074524539668637
  44    0.00021022432494871
  45    -4.0135397854718e-05
  46    -7.5691460201525e-05
  47    0.0012716534877047
  48    0.0028282892928775
  49    -0.00039373419913471
  50      0.02021289317278
  51     0.011192713393202
  52    0.0063889795929254
  53    0.00041356466331299
  54    -0.0098930632914746
  55    0.0052328428950366
  56    -0.0022066139717757
  57    -0.0057214498390452
  58    0.00011100732315961
  59    -0.00058004492225476
  60    -0.00049347226809197
  61    -0.00036743149067304
  62    0.00027482020393547
  63    0.0055527525850993
  64    0.0015278668306994
  65    2.6262709449501e-05
  66    -2.801926398295e-05
  67    9.9147966665088e-06
  68    5.0713318780906e-05
  69    -0.00040243826226115
  70    -6.0783121097255e-06
  71    -1.8354759140354e-05
  72    -7.0479750056082e-06
  73    0.00026352812516529
  74    0.00035043538632071
  75    0.00027369520597572
  76    2.7134471041467e-05
  77    1.1408766290754e-05
  78    -1.0138475016606e-05
  79    -8.5021402811477e-06
  80    9.5286570030065e-06
  81    7.9014262693014e-06
  82    0.00031645767989463
  83    -2.902349551136e-05
  84    0.00015469816047331
  85    0.0013045085705405
  86    -0.0001899419460578
  87    7.6179463579026e-05
  88    -0.00030879522638091
  89    -0.00045601002382887
  90    -0.0004065942542376
  91    -0.00054853516790301
  92    -3.3181857615943e-06
  93    2.3719316051178e-05
  94    -1.3939327684226e-05
  95    -6.604600175685e-06
  96    -9.8902110839873e-06
  97    -7.053111849673e-05
  98    3.7651899662942e-05
  99    -5.4191719625706e-05
 100    -0.00012724444971479
 101    8.9969575554313e-05
 102    -7.794818653755e-05
 103    -0.001134646017863
 104    7.8032167978478e-05
 105    0.00023752289362718
 106    0.00038511849220394
 107    0.0026670207866693
 108    -0.00064448869331364
 109    -0.0032483929023613
 110    3.9444041703703e-05
 111    9.1849052349471e-05
 112    -3.3888017054854e-05
 113    -6.4923261128498e-05
 114    2.9180154401327e-05
 115    9.6702768757234e-05
 116    -0.0002202030546703
 117    -0.0023248803526381
 118    0.00012900367903007
 119    -0.00040527276019401
 120    7.3991990608672e-05
 121    0.00048543735887346
 122    -0.00016691381142996
 123    -0.0014515553275434
 124    1.5085297277169e-05
 125    5.0033379880525e-05
 126    -5.2724651387355e-05
 127    -1.219452121505e-05
 128    9.0453427226712e-06
 129    -1.3091475545171e-05
 130    0.00078041283141947
 131    -0.011427259905841
 132    -0.0002306623237528
 133    -7.5614565265257e-05
 134    -0.00073927535549199
 135    0.0015149970104247
 136    -0.0011770831944861
 137     0.012530108364007
 138    -0.00038781031775107
 139    7.6740774000862e-05
 140    0.00014435061543583
 141    6.3272261691742e-05
 142    9.3308276836378e-05
 143    6.1094026500227e-05
 144    -1.0838272130529e-05
 145    -0.0022703565548134
 146    6.8358568758625e-05
 147    0.00012456083441014
 148    0.00036486234580882
 149    -0.0027383157854912
 150    0.0017311739063333
 151    -0.0020282053541153
 152    9.2264616563607e-05
 153    -2.8101857259893e-05
 154    -3.9080563871419e-05
 155    -5.8953139223285e-05
 156    5.8049148709384e-05
 157    1.3574449599846e-05
 158    0.00018318736918443
 159    -0.001560397781422
 160    3.586438108904e-05
 161    1.0999128382574e-05
 162    -9.800748401288e-05
 163    8.4145972274207e-06
 164    0.0009805837170212
 165    0.00021966017881393
 166    2.063118064666e-05
 167    2.8105248698325e-06
 168    -6.010971211523e-07
 169    5.4344594795506e-05
 170    -7.429750930175e-06
 171    1.228122144139e-05
 172    -0.00023626521230529
 173    0.00037543131604354
 174    -2.0143304627997e-05
 175    6.7812241905694e-06
 176    0.00029696831996443
 177    0.00040488862319352
 178    -0.00074592660109538
 179    -7.6020951046633e-05
 180    3.7021362452275e-06
 181    5.1766766220884e-05
 182    1.9032068551785e-05
 183    3.4857892934457e-05
 184    -8.1701066759244e-06
 185    -1.3779520463132e-05
 186    3.4044516601526e-05
 187    0.0017443684391524
 188    1.6456346596941e-06
 189    -5.1482040915411e-05
 190    -0.00025300044267048
 191    -0.00092818831205473
 192    -0.00045964014292094
 193    -0.00050090768316918
 194    2.1358455465108e-05
 195    3.8506958176109e-05
 196    2.5790193291961e-05
 197    -5.9952377140154e-06
 198    2.1868000288582e-05
 199    -1.5887112953721e-05
 200    0.00031460161933936
 201    -9.0081240582194e-05
 202    -0.00042015656151546
 203    0.0002462176344075
 204    0.00083955891478055
 205    -0.0002339897779681
 206    -0.0001811082196748
 207    0.00014683704584035
 208    -0.00073982403655395
 209    0.00013161177729618
 210    0.00021697829470788
 211    4.3875785562343e-05
 212    -9.925335033566e-05
 213    -1.8851409904008e-05
 214    -0.00027108606270652
 215    -5.2657734318427e-05
 216    -0.00064731278853522
 217    6.4487990862425e-05
 218    0.00042332306550831
 219    -9.9872762612813e-06
 220    -0.00048101637994367
 221    0.0012736678524096
 222    -0.0029499810837378
 223     0.022939809572811
 224    -0.0014860051392692
 225    -0.0016853807913349
 226    0.0029747528263574
 227     0.016518232793566
 228    0.0013517300572774
 229    0.0088827261321099
 230    0.0002476301616199
 231    -0.00016479257855224
 232    -0.0001717873114096
 233    0.00012052431854522
 234    0.00013897373755726
 235    -0.0082439026605934
 236     0.043691428721186
 237     0.019772827329885
 238    0.0064511744209183
 239     0.011360552001715
 240    -0.048764341240307
 241    0.0075912573312564
 242    0.0077346380194484
 243    -0.028638644470075
 244    0.0064799025097643
 245    0.0024752031552435
 246    -0.0018803167526796
 247    0.0009536230153962
 248    0.00012405192922582
 249    0.00076486941208503
 250    0.0082268435082147
 251    0.0015418354873314
 252       0.2969625561386
 253      0.18571436670674
 254     0.079216157846081
 255     0.051486101095605
 256     -0.14921177051782
 257    -0.012810576219806
 258    0.0065168331078082
 259    -0.045459158480873
 260    0.0044833602332856
 261    -0.0065015042848104
 262    -0.0050374310358802
 263    0.0077113248186731
 264     0.005922767326125
 265     0.012199313691206
 266     0.001913227293569
 267     0.064345486434811
 268    -0.0037313980730299
 269    0.0011328820797678
 270     0.021624924429805
 271     0.010407093631065
 272    -0.0048533095135655
 273    -0.0039423887247187
 274    0.0077015964215339
 275    -0.0014605749848163
 276    0.0034973552756074
 277    0.0015849179839875
 278    0.00022976774786307
 279    -0.00072753448730437
 280    -0.00038891730328549
 281    -0.00035884407168677
 282    0.00017148072333845
 283    -0.0011816970525516
 284    0.0055345770995989