[Molden Format]
made by pyscf v[2.0.1]
[Atoms] (AU)
C   1   6     0.69100024066471     0.64692934207205    -3.48223131169301
H   2   1     2.68052439830868     1.13355088658700    -3.25784032593313
C   3   6    -0.36286361513219     0.85440132524594    -5.97030179418974
H   4   1    -2.35448549047279     0.36322488579172    -6.17995817793143
C   5   6     0.93697958957450     1.61209284601821    -8.05828437677121
H   6   1    -0.04002876534153     1.70579051152009    -9.86870372539436
C   7   6     3.55882871340184     2.30532870411993    -8.01809862923490
H   8   1     4.51217335653741     2.20318273111775    -6.19041637810672
H   9   1     1.55630230933075    -1.92953025305990    12.99630010416247
C   10   6     0.75233899775814    -2.21270439606481    11.10705728102219
H   11   1    -0.43433408177274    -3.90944857546550    11.22216085340412
C   12   6     2.86362581178706    -2.63237380607947     9.17926416456045
H   13   1     4.39038949912609    -1.24955421540245     9.49899813497433
H   14   1     3.74629220191363    -4.48798724300892     9.47414880959024
C   15   6     2.02478325613682    -2.42177285709634     6.44560829588644
C   16   6     3.88048732735477    -3.58795445234514     4.61402886975252
C   17   6    -0.18412382258602    -1.30464291234259     5.76021113872346
C   18   6    -2.10044360464350    -0.26837831858460     7.71610340967100
C   19   6    -3.08956938670431     2.35282328359417     6.88693925039594
C   20   6    -4.37372924086464    -2.09766595989678     7.93610724222001
C   21   6    -0.83850430601230     0.06372213486173    10.33002307638377
H   22   1     0.38411922151109     1.74281358582432    10.27380136542181
H   23   1    -2.30980003007874     0.45460143924521    11.73986301809809
H   24   1     4.58527064644668    -5.38706904487420     5.36778158031719
H   25   1     5.54944938085014    -2.37631462192748     4.35398898413318
H   26   1     3.06633019150423    -3.94118377050688     2.75255466040884
H   27   1    -4.17727778763735     2.26573369139522     5.12914900961283
H   28   1    -1.52662344944051     3.68001877445626     6.59540397144508
H   29   1    -4.32916174397830     3.13643051467482     8.35225460090378
H   30   1    -5.32329548508442    -2.36691813602939     6.11583672749896
H   31   1    -5.77989366602257    -1.33896741843465     9.25748940450990
H   32   1    -3.79310905208926    -3.96389819310853     8.61386170102686
C   33   6    -1.01100794811226    -1.06331657314144     3.11929490449947
C   34   6     0.37686231036534    -0.33275864505552     1.09165013605873
H   35   1    -3.01671213906703    -1.40297922279997     2.77827895090944
C   36   6    -0.64382707979370    -0.11591880174385    -1.42063131251064
H   37   1     2.35569259782137     0.17174499283897     1.33641070251401
H   38   1    -2.63317482980319    -0.60229203511219    -1.66119700387645
C   39   6     4.92949292707610     3.06752929189425   -10.04715344157890
C   40   6     7.59555456141448     3.73329481661799    -9.81073387339210
H   41   1     4.09542353861424     3.21030697797155   -11.92110945203513
O   42   8     8.93835728030826     4.43020973545744   -11.55200196938216
H   43   1     8.37079058468688     3.56000927179912    -7.85902689076443
[GTO]
1 0
 s    6 1.00
             3047.5249  0.0018347001629433
             457.36951    0.01403730124668
             103.94869   0.068842606114048
             29.210155    0.23218442062076
              9.286663    0.46794134155879
              3.163927    0.36231203217765
 s    3 1.00
             7.8682724   -0.11933240861517
             1.8812885   -0.16085421161283
             0.5442493     1.1434564825515
 s    1 1.00
             0.1687144                   1
 p    3 1.00
             7.8682724   0.068999095584993
             1.8812885    0.31642397975315
             0.5442493    0.74430825237435
 p    1 1.00
             0.1687144                   1
 d    1 1.00
                   0.8                   1

2 0
 s    3 1.00
             18.731137    0.03349459952309
             2.8253937    0.23472694665786
             0.6401217    0.81375731841339
 s    1 1.00
             0.1612778                   1

3 0
 s    6 1.00
             3047.5249  0.0018347001629433
             457.36951    0.01403730124668
             103.94869   0.068842606114048
             29.210155    0.23218442062076
              9.286663    0.46794134155879
              3.163927    0.36231203217765
 s    3 1.00
             7.8682724   -0.11933240861517
             1.8812885   -0.16085421161283
             0.5442493     1.1434564825515
 s    1 1.00
             0.1687144                   1
 p    3 1.00
             7.8682724   0.068999095584993
             1.8812885    0.31642397975315
             0.5442493    0.74430825237435
 p    1 1.00
             0.1687144                   1
 d    1 1.00
                   0.8                   1

4 0
 s    3 1.00
             18.731137    0.03349459952309
             2.8253937    0.23472694665786
             0.6401217    0.81375731841339
 s    1 1.00
             0.1612778                   1

5 0
 s    6 1.00
             3047.5249  0.0018347001629433
             457.36951    0.01403730124668
             103.94869   0.068842606114048
             29.210155    0.23218442062076
              9.286663    0.46794134155879
              3.163927    0.36231203217765
 s    3 1.00
             7.8682724   -0.11933240861517
             1.8812885   -0.16085421161283
             0.5442493     1.1434564825515
 s    1 1.00
             0.1687144                   1
 p    3 1.00
             7.8682724   0.068999095584993
             1.8812885    0.31642397975315
             0.5442493    0.74430825237435
 p    1 1.00
             0.1687144                   1
 d    1 1.00
                   0.8                   1

6 0
 s    3 1.00
             18.731137    0.03349459952309
             2.8253937    0.23472694665786
             0.6401217    0.81375731841339
 s    1 1.00
             0.1612778                   1

7 0
 s    6 1.00
             3047.5249  0.0018347001629433
             457.36951    0.01403730124668
             103.94869   0.068842606114048
             29.210155    0.23218442062076
              9.286663    0.46794134155879
              3.163927    0.36231203217765
 s    3 1.00
             7.8682724   -0.11933240861517
             1.8812885   -0.16085421161283
             0.5442493     1.1434564825515
 s    1 1.00
             0.1687144                   1
 p    3 1.00
             7.8682724   0.068999095584993
             1.8812885    0.31642397975315
             0.5442493    0.74430825237435
 p    1 1.00
             0.1687144                   1
 d    1 1.00
                   0.8                   1

8 0
 s    3 1.00
             18.731137    0.03349459952309
             2.8253937    0.23472694665786
             0.6401217    0.81375731841339
 s    1 1.00
             0.1612778                   1

9 0
 s    3 1.00
             18.731137    0.03349459952309
             2.8253937    0.23472694665786
             0.6401217    0.81375731841339
 s    1 1.00
             0.1612778                   1

10 0
 s    6 1.00
             3047.5249  0.0018347001629433
             457.36951    0.01403730124668
             103.94869   0.068842606114048
             29.210155    0.23218442062076
              9.286663    0.46794134155879
              3.163927    0.36231203217765
 s    3 1.00
             7.8682724   -0.11933240861517
             1.8812885   -0.16085421161283
             0.5442493     1.1434564825515
 s    1 1.00
             0.1687144                   1
 p    3 1.00
             7.8682724   0.068999095584993
             1.8812885    0.31642397975315
             0.5442493    0.74430825237435
 p    1 1.00
             0.1687144                   1
 d    1 1.00
                   0.8                   1

11 0
 s    3 1.00
             18.731137    0.03349459952309
             2.8253937    0.23472694665786
             0.6401217    0.81375731841339
 s    1 1.00
             0.1612778                   1

12 0
 s    6 1.00
             3047.5249  0.0018347001629433
             457.36951    0.01403730124668
             103.94869   0.068842606114048
             29.210155    0.23218442062076
              9.286663    0.46794134155879
              3.163927    0.36231203217765
 s    3 1.00
             7.8682724   -0.11933240861517
             1.8812885   -0.16085421161283
             0.5442493     1.1434564825515
 s    1 1.00
             0.1687144                   1
 p    3 1.00
             7.8682724   0.068999095584993
             1.8812885    0.31642397975315
             0.5442493    0.74430825237435
 p    1 1.00
             0.1687144                   1
 d    1 1.00
                   0.8                   1

13 0
 s    3 1.00
             18.731137    0.03349459952309
             2.8253937    0.23472694665786
             0.6401217    0.81375731841339
 s    1 1.00
             0.1612778                   1

14 0
 s    3 1.00
             18.731137    0.03349459952309
             2.8253937    0.23472694665786
             0.6401217    0.81375731841339
 s    1 1.00
             0.1612778                   1

15 0
 s    6 1.00
             3047.5249  0.0018347001629433
             457.36951    0.01403730124668
             103.94869   0.068842606114048
             29.210155    0.23218442062076
              9.286663    0.46794134155879
              3.163927    0.36231203217765
 s    3 1.00
             7.8682724   -0.11933240861517
             1.8812885   -0.16085421161283
             0.5442493     1.1434564825515
 s    1 1.00
             0.1687144                   1
 p    3 1.00
             7.8682724   0.068999095584993
             1.8812885    0.31642397975315
             0.5442493    0.74430825237435
 p    1 1.00
             0.1687144                   1
 d    1 1.00
                   0.8                   1

16 0
 s    6 1.00
             3047.5249  0.0018347001629433
             457.36951    0.01403730124668
             103.94869   0.068842606114048
             29.210155    0.23218442062076
              9.286663    0.46794134155879
              3.163927    0.36231203217765
 s    3 1.00
             7.8682724   -0.11933240861517
             1.8812885   -0.16085421161283
             0.5442493     1.1434564825515
 s    1 1.00
             0.1687144                   1
 p    3 1.00
             7.8682724   0.068999095584993
             1.8812885    0.31642397975315
             0.5442493    0.74430825237435
 p    1 1.00
             0.1687144                   1
 d    1 1.00
                   0.8                   1

17 0
 s    6 1.00
             3047.5249  0.0018347001629433
             457.36951    0.01403730124668
             103.94869   0.068842606114048
             29.210155    0.23218442062076
              9.286663    0.46794134155879
              3.163927    0.36231203217765
 s    3 1.00
             7.8682724   -0.11933240861517
             1.8812885   -0.16085421161283
             0.5442493     1.1434564825515
 s    1 1.00
             0.1687144                   1
 p    3 1.00
             7.8682724   0.068999095584993
             1.8812885    0.31642397975315
             0.5442493    0.74430825237435
 p    1 1.00
             0.1687144                   1
 d    1 1.00
                   0.8                   1

18 0
 s    6 1.00
             3047.5249  0.0018347001629433
             457.36951    0.01403730124668
             103.94869   0.068842606114048
             29.210155    0.23218442062076
              9.286663    0.46794134155879
              3.163927    0.36231203217765
 s    3 1.00
             7.8682724   -0.11933240861517
             1.8812885   -0.16085421161283
             0.5442493     1.1434564825515
 s    1 1.00
             0.1687144                   1
 p    3 1.00
             7.8682724   0.068999095584993
             1.8812885    0.31642397975315
             0.5442493    0.74430825237435
 p    1 1.00
             0.1687144                   1
 d    1 1.00
                   0.8                   1

19 0
 s    6 1.00
             3047.5249  0.0018347001629433
             457.36951    0.01403730124668
             103.94869   0.068842606114048
             29.210155    0.23218442062076
              9.286663    0.46794134155879
              3.163927    0.36231203217765
 s    3 1.00
             7.8682724   -0.11933240861517
             1.8812885   -0.16085421161283
             0.5442493     1.1434564825515
 s    1 1.00
             0.1687144                   1
 p    3 1.00
             7.8682724   0.068999095584993
             1.8812885    0.31642397975315
             0.5442493    0.74430825237435
 p    1 1.00
             0.1687144                   1
 d    1 1.00
                   0.8                   1

20 0
 s    6 1.00
             3047.5249  0.0018347001629433
             457.36951    0.01403730124668
             103.94869   0.068842606114048
             29.210155    0.23218442062076
              9.286663    0.46794134155879
              3.163927    0.36231203217765
 s    3 1.00
             7.8682724   -0.11933240861517
             1.8812885   -0.16085421161283
             0.5442493     1.1434564825515
 s    1 1.00
             0.1687144                   1
 p    3 1.00
             7.8682724   0.068999095584993
             1.8812885    0.31642397975315
             0.5442493    0.74430825237435
 p    1 1.00
             0.1687144                   1
 d    1 1.00
                   0.8                   1

21 0
 s    6 1.00
             3047.5249  0.0018347001629433
             457.36951    0.01403730124668
             103.94869   0.068842606114048
             29.210155    0.23218442062076
              9.286663    0.46794134155879
              3.163927    0.36231203217765
 s    3 1.00
             7.8682724   -0.11933240861517
             1.8812885   -0.16085421161283
             0.5442493     1.1434564825515
 s    1 1.00
             0.1687144                   1
 p    3 1.00
             7.8682724   0.068999095584993
             1.8812885    0.31642397975315
             0.5442493    0.74430825237435
 p    1 1.00
             0.1687144                   1
 d    1 1.00
                   0.8                   1

22 0
 s    3 1.00
             18.731137    0.03349459952309
             2.8253937    0.23472694665786
             0.6401217    0.81375731841339
 s    1 1.00
             0.1612778                   1

23 0
 s    3 1.00
             18.731137    0.03349459952309
             2.8253937    0.23472694665786
             0.6401217    0.81375731841339
 s    1 1.00
             0.1612778                   1

24 0
 s    3 1.00
             18.731137    0.03349459952309
             2.8253937    0.23472694665786
             0.6401217    0.81375731841339
 s    1 1.00
             0.1612778                   1

25 0
 s    3 1.00
             18.731137    0.03349459952309
             2.8253937    0.23472694665786
             0.6401217    0.81375731841339
 s    1 1.00
             0.1612778                   1

26 0
 s    3 1.00
             18.731137    0.03349459952309
             2.8253937    0.23472694665786
             0.6401217    0.81375731841339
 s    1 1.00
             0.1612778                   1

27 0
 s    3 1.00
             18.731137    0.03349459952309
             2.8253937    0.23472694665786
             0.6401217    0.81375731841339
 s    1 1.00
             0.1612778                   1

28 0
 s    3 1.00
             18.731137    0.03349459952309
             2.8253937    0.23472694665786
             0.6401217    0.81375731841339
 s    1 1.00
             0.1612778                   1

29 0
 s    3 1.00
             18.731137    0.03349459952309
             2.8253937    0.23472694665786
             0.6401217    0.81375731841339
 s    1 1.00
             0.1612778                   1

30 0
 s    3 1.00
             18.731137    0.03349459952309
             2.8253937    0.23472694665786
             0.6401217    0.81375731841339
 s    1 1.00
             0.1612778                   1

31 0
 s    3 1.00
             18.731137    0.03349459952309
             2.8253937    0.23472694665786
             0.6401217    0.81375731841339
 s    1 1.00
             0.1612778                   1

32 0
 s    3 1.00
             18.731137    0.03349459952309
             2.8253937    0.23472694665786
             0.6401217    0.81375731841339
 s    1 1.00
             0.1612778                   1

33 0
 s    6 1.00
             3047.5249  0.0018347001629433
             457.36951    0.01403730124668
             103.94869   0.068842606114048
             29.210155    0.23218442062076
              9.286663    0.46794134155879
              3.163927    0.36231203217765
 s    3 1.00
             7.8682724   -0.11933240861517
             1.8812885   -0.16085421161283
             0.5442493     1.1434564825515
 s    1 1.00
             0.1687144                   1
 p    3 1.00
             7.8682724   0.068999095584993
             1.8812885    0.31642397975315
             0.5442493    0.74430825237435
 p    1 1.00
             0.1687144                   1
 d    1 1.00
                   0.8                   1

34 0
 s    6 1.00
             3047.5249  0.0018347001629433
             457.36951    0.01403730124668
             103.94869   0.068842606114048
             29.210155    0.23218442062076
              9.286663    0.46794134155879
              3.163927    0.36231203217765
 s    3 1.00
             7.8682724   -0.11933240861517
             1.8812885   -0.16085421161283
             0.5442493     1.1434564825515
 s    1 1.00
             0.1687144                   1
 p    3 1.00
             7.8682724   0.068999095584993
             1.8812885    0.31642397975315
             0.5442493    0.74430825237435
 p    1 1.00
             0.1687144                   1
 d    1 1.00
                   0.8                   1

35 0
 s    3 1.00
             18.731137    0.03349459952309
             2.8253937    0.23472694665786
             0.6401217    0.81375731841339
 s    1 1.00
             0.1612778                   1

36 0
 s    6 1.00
             3047.5249  0.0018347001629433
             457.36951    0.01403730124668
             103.94869   0.068842606114048
             29.210155    0.23218442062076
              9.286663    0.46794134155879
              3.163927    0.36231203217765
 s    3 1.00
             7.8682724   -0.11933240861517
             1.8812885   -0.16085421161283
             0.5442493     1.1434564825515
 s    1 1.00
             0.1687144                   1
 p    3 1.00
             7.8682724   0.068999095584993
             1.8812885    0.31642397975315
             0.5442493    0.74430825237435
 p    1 1.00
             0.1687144                   1
 d    1 1.00
                   0.8                   1

37 0
 s    3 1.00
             18.731137    0.03349459952309
             2.8253937    0.23472694665786
             0.6401217    0.81375731841339
 s    1 1.00
             0.1612778                   1

38 0
 s    3 1.00
             18.731137    0.03349459952309
             2.8253937    0.23472694665786
             0.6401217    0.81375731841339
 s    1 1.00
             0.1612778                   1

39 0
 s    6 1.00
             3047.5249  0.0018347001629433
             457.36951    0.01403730124668
             103.94869   0.068842606114048
             29.210155    0.23218442062076
              9.286663    0.46794134155879
              3.163927    0.36231203217765
 s    3 1.00
             7.8682724   -0.11933240861517
             1.8812885   -0.16085421161283
             0.5442493     1.1434564825515
 s    1 1.00
             0.1687144                   1
 p    3 1.00
             7.8682724   0.068999095584993
             1.8812885    0.31642397975315
             0.5442493    0.74430825237435
 p    1 1.00
             0.1687144                   1
 d    1 1.00
                   0.8                   1

40 0
 s    6 1.00
             3047.5249  0.0018347001629433
             457.36951    0.01403730124668
             103.94869   0.068842606114048
             29.210155    0.23218442062076
              9.286663    0.46794134155879
              3.163927    0.36231203217765
 s    3 1.00
             7.8682724   -0.11933240861517
             1.8812885   -0.16085421161283
             0.5442493     1.1434564825515
 s    1 1.00
             0.1687144                   1
 p    3 1.00
             7.8682724   0.068999095584993
             1.8812885    0.31642397975315
             0.5442493    0.74430825237435
 p    1 1.00
             0.1687144                   1
 d    1 1.00
                   0.8                   1

41 0
 s    3 1.00
             18.731137    0.03349459952309
             2.8253937    0.23472694665786
             0.6401217    0.81375731841339
 s    1 1.00
             0.1612778                   1

42 0
 s    6 1.00
             5484.6717   0.001831099805527
             825.23495   0.013950098518422
             188.04696    0.06844509273075
               52.9645    0.23271427528445
              16.89757    0.47019295006289
             5.7996353    0.35852086192309
 s    3 1.00
             15.539616   -0.11077750382508
             3.5999336   -0.14802630511126
             1.0137618     1.1307670390447
 s    1 1.00
             0.2700058                   1
 p    3 1.00
             15.539616   0.070874299543311
             3.5999336    0.33975279781076
             1.0137618    0.72715859531445
 p    1 1.00
             0.2700058                   1
 d    1 1.00
                   0.8                   1

43 0
 s    3 1.00
             18.731137    0.03349459952309
             2.8253937    0.23472694665786
             0.6401217    0.81375731841339
 s    1 1.00
             0.1612778                   1

[5d]
[7f]
[9g]

[MO]
 Sym= A
 Ene=               0
 Spin= Alpha
 Occup=    1.00000
   1    0.00061362528566815
   2    0.00021752424409067
   3    0.00027985931416348
   4    0.00014606066264609
   5    5.6753207709888e-05
   6    -9.3166724793667e-05
   7    -0.0018250928962496
   8    -0.00053542885916087
   9    0.00025600297230477
  10    5.9948408663548e-05
  11    -5.848265316333e-05
  12    -3.028829546647e-05
  13    -3.3559223115154e-05
  14    -5.169929594618e-06
  15    8.4598732853779e-05
  16    0.0018544753740897
  17    -0.00057717975245162
  18    0.00034825245215557
  19    -0.0016209443192489
  20    0.00017269650024511
  21    6.356675975507e-05
  22    -8.9602663681265e-05
  23    -0.00025493873421046
  24    -9.7038585986608e-05
  25    0.00014504146522141
  26    -0.00012334395557483
  27    -7.4145076638702e-05
  28    3.5942419252201e-05
  29    -5.8275771324588e-05
  30    -1.9954669361655e-05
  31    4.1217305700517e-05
  32    -0.00016186775995597
  33    -0.013249298331823
  34    0.00095953825895239
  35    -0.0063051489718089
  36    0.0011488387718882
  37    0.00031322956161684
  38    -2.9818913157028e-05
  39    -0.0030875367498915
  40    -0.0011390988023215
  41    0.0016002752568345
  42    -0.00065572137397259
  43    0.00015403116153875
  44    2.9286478789339e-05
  45    0.0010506788328896
  46    0.00057123896859072
  47    0.00041789601816252
  48    0.00055619882234545
  49     -0.99500686053927
  50    -0.036141814980401
  51     0.028092559383482
  52    0.00012430530642571
  53    -8.8644890210673e-05
  54    0.0006264938453748
  55    -0.00068431502626378
  56    0.00028062812676996
  57    -0.0023795928465146
  58    -0.00013329872455913
  59    0.00058752002341414
  60    0.00035059280485945
  61    -0.00056684776635804
  62    -0.00046956786330425
  63    0.0011762788803998
  64    -0.0049714503825098
  65    8.4749176228026e-07
  66    1.6443285761073e-06
  67    -2.6686060891836e-08
  68    1.3375025626667e-07
  69    -7.5620640977908e-07
  70    -6.5399909159854e-07
  71    1.3784273515561e-06
  72    -1.563538701975e-07
  73    -4.2503879582217e-06
  74    -8.2112760343742e-06
  75    -4.1577771858755e-06
  76    2.2786175268832e-07
  77    1.3220634549872e-07
  78    -1.3185809937822e-07
  79    -1.907486185182e-07
  80    4.3343193955161e-08
  81    -8.7300630291051e-07
  82    -4.1893901942493e-06
  83    -1.487350190432e-09
  84    -3.5452384421609e-09
  85    2.099883396919e-05
  86    -1.8881096037078e-06
  87    -6.492472052499e-07
  88    -1.7773060826389e-06
  89    -5.5880881007274e-06
  90    2.0824867791874e-05
  91    -1.4244226657802e-06
  92    -7.8426770499318e-07
  93    1.0216039425152e-06
  94    -1.4174930914446e-06
  95    1.9281773822911e-08
  96    3.0665278947052e-07
  97    -2.0743249535102e-06
  98    -5.8844514183973e-06
  99    8.1648024143168e-07
 100    5.5073452512787e-06
 101    5.017416928612e-07
 102    4.913238738207e-06
 103    -9.6733487409401e-05
 104    -2.7297527005623e-07
 105    2.993525049262e-06
 106    9.7798249644752e-07
 107    8.3914943834647e-05
 108    -7.5230298534912e-05
 109    -4.7164609865351e-05
 110    2.1156287035359e-06
 111    8.0432086592257e-07
 112    7.0914074785903e-08
 113    -9.8365334351184e-07
 114    1.9637094903148e-06
 115    1.0589317904255e-06
 116    9.6028867470302e-06
 117    -9.3184283575313e-05
 118    3.353174151073e-06
 119    -4.4056112257276e-06
 120    1.0279954838877e-06
 121    2.155021524446e-06
 122    9.1396469593095e-06
 123    -3.1094115705797e-05
 124    -2.5651019155762e-07
 125    1.2222851984244e-06
 126    1.5079419605261e-06
 127    5.7609828951604e-07
 128    1.6591545270038e-06
 129    2.3645150048733e-06
 130    2.1641693238747e-05
 131    -2.4476216011433e-05
 132    -2.087736052939e-06
 133    4.8769595443857e-07
 134    -1.0230252882789e-05
 135    0.00012879618197351
 136    -1.3847070811683e-05
 137    0.00017694328716896
 138    -4.8497394331916e-06
 139    -5.7344376817662e-06
 140    -1.4248171060341e-06
 141    -1.713452476751e-06
 142    -2.6083215739625e-06
 143     1.19509663369e-06
 144    1.3045144983809e-05
 145    -3.5027454063786e-05
 146    -2.4609621660503e-07
 147    -1.8799764567591e-06
 148    -3.5517882746222e-06
 149    -2.2325764950627e-05
 150    8.2979541791496e-06
 151     1.73340076628e-05
 152    2.9696379021443e-06
 153    1.7479884124037e-06
 154    8.0305280660462e-07
 155    -2.095546239058e-06
 156    1.8354500535242e-06
 157    -4.7448359324392e-07
 158    -3.5881082625825e-06
 159    6.1965070321054e-06
 160    -2.0968847672182e-06
 161    1.0169218087985e-07
 162    6.3638818198875e-07
 163    2.0423153144746e-05
 164    -6.2870481308852e-06
 165    -3.67722152533e-06
 166    -1.6988532886304e-06
 167    4.194399623598e-07
 168    5.4473986697408e-08
 169    7.3916433668385e-08
 170    -9.1301450061721e-07
 171    2.2527563168591e-07
 172    4.5509225444016e-06
 173    -1.3373273688144e-05
 174    8.656716019177e-07
 175    -1.6955725131386e-08
 176    -3.458039592417e-06
 177    7.6304311891957e-06
 178    -9.1740385591375e-07
 179    1.2058139839237e-05
 180    -6.2859038735003e-07
 181    -1.6145843985654e-06
 182    -4.6222585903782e-07
 183    8.9722509701597e-07
 184    -3.2658543671956e-07
 185    1.138453901166e-06
 186    1.0518909639289e-05
 187    -2.0476053975934e-05
 188    4.7420432687484e-07
 189    -4.6804363811585e-07
 190    -2.9196516042063e-06
 191    -1.7409589024718e-07
 192    3.6929896118979e-06
 193    2.201904461474e-05
 194    -9.5400860322988e-07
 195    -4.7638016447905e-07
 196    -8.2514735162539e-07
 197    -1.3809407510765e-07
 198    6.1562459693263e-09
 199    2.400511329561e-06
 200    1.5188610085549e-09
 201    7.4654779189981e-07
 202    -8.4468956569313e-06
 203    6.9119068483229e-06
 204    1.5808399545122e-05
 205    -6.1829442595556e-06
 206    2.9569494808181e-05
 207    -6.0383562947123e-06
 208    9.1412566766226e-06
 209    -4.1378849467456e-06
 210    1.2171783586046e-05
 211    -2.440964411315e-06
 212    -6.3811217180802e-06
 213    6.015059472763e-07
 214    8.0137716835398e-06
 215    -4.1409052106134e-07
 216    2.1097105190064e-05
 217    1.1339532799361e-07
 218    -1.1502377334983e-06
 219    -2.0179690117354e-07
 220    -1.3963963807954e-06
 221    3.5911848252009e-06
 222    3.6699571336338e-05
 223    -0.00010421181298033
 224    6.8599397756387e-06
 225    3.4062694925344e-06
 226    -1.2563678716261e-05
 227    -0.00024156542766234
 228    -9.8926538737752e-05
 229    0.00024336655071209
 230    2.6853902366618e-06
 231    1.4927329315848e-05
 232    6.8323141744767e-06
 233    -1.0598283364449e-05
 234    -9.6975089595713e-06
 235    8.3235414347299e-07
 236    2.9989410242658e-06
 237    -0.00021613178241049
 238    -4.9834621297942e-06
 239    -2.3892760637112e-06
 240    -3.8902559119354e-06
 241    0.00027854074926257
 242    -3.2382075322217e-05
 243    0.00059718274251082
 244    -3.6928619426898e-06
 245    -2.5335141768488e-05
 246    -4.9397877297272e-06
 247    -3.6398094195657e-06
 248    3.6778223224758e-06
 249    1.0672854345116e-05
 250    -0.0001480280390365
 251    1.5754739784803e-06
 252    4.7140454252107e-05
 253    -0.00079864586175629
 254    -2.1051268088408e-05
 255    -5.0223797351981e-06
 256    -1.2415292491519e-06
 257    0.00017461923973361
 258    -0.00020938742636824
 259    0.0012855774112044
 260    -3.2238474488271e-05
 261    3.7059800520273e-05
 262    2.2259150181755e-05
 263    -4.1700311131979e-07
 264    -9.8142575512697e-06
 265    4.2532903129599e-05
 266    -0.00031866142893846
 267    4.5201302974058e-05
 268    0.00020374323358573
 269    -9.8998022450685e-05
 270    0.0021009847353475
 271    -0.0089285636197825
 272    -0.00081518917145194
 273    -0.000470997667439
 274    0.0012975247606514
 275    0.0025981408373876
 276    0.0011039715494039
 277    -0.0020988488544274
 278    0.00071264722162691
 279    -0.00093054955858165
 280    -0.00057169054228093